Title
82294
    1SAPS     N    1   2.366   3.935  10.976 -0.1416 -0.0807 -0.2098
    1SAPS   HN1    2   2.369   3.842  10.930 -1.3870 -0.6546  0.8022
    1SAPS   HN2    3   2.300   3.994  10.922 -0.7357 -1.7307 -1.3556
    1SAPS   HN3    4   2.463   3.972  10.969  0.1405 -1.0906 -2.5473
    1SAPS   C12    5   2.338   3.937  11.120 -0.0064 -0.8771 -0.4189
    1SAPS  H12A    6   2.238   3.903  11.141 -0.2886 -1.6480 -2.8186
    1SAPS   C13    7   2.426   3.857  11.225 -0.3483  0.4843  0.1776
    1SAPS  O13A    8   2.518   3.778  11.184  0.1543 -0.8982 -0.2224
    1SAPS  O13B    9   2.374   3.848  11.343 -0.0005  0.0861  0.3903
    1SAPS   C11   10   2.355   4.094  11.154  0.5641 -0.7347  0.5051
    1SAPS  H11A   11   2.450   4.134  11.113  0.5966 -1.1732  0.1483
    1SAPS  H11B   12   2.365   4.127  11.260  2.1073  2.4479 -0.5249
    1SAPS     P   13   2.228   4.316  11.130  0.2376 -0.0313 -0.0452
    1SAPS   O13   14   2.093   4.366  11.102  0.5882  0.5546  0.7317
    1SAPS   O14   15   2.296   4.348  11.257  0.1233 -0.5172  0.4960
    1SAPS   O12   16   2.242   4.165  11.097 -0.2729  0.1807 -0.4797
    1SAPS   O11   17   2.322   4.364  11.012 -0.0039 -0.8653  0.3315
    1SAPS    C1   18   2.305   4.318  10.879 -0.4019  1.0716 -0.3521
    1SAPS    HA   19   2.351   4.217  10.879 -3.7294 -0.5833 -0.1824
    1SAPS    HB   20   2.199   4.297  10.852 -0.9147  0.1569  2.0786
    1SAPS    C2   21   2.376   4.419  10.777  0.4162  0.3607 -0.1079
    1SAPS    HS   22   2.316   4.429  10.684  0.1060  1.3404  0.1876
    1SAPS   O21   23   2.510   4.370  10.749  0.2205  0.0543 -0.1470
    1SAPS   C21   24   2.564   4.398  10.628 -0.3985  0.4087 -1.2232
    1SAPS   O22   25   2.509   4.446  10.530  0.6703  0.1960  0.1322
    1SAPS   C22   26   2.710   4.362  10.632  0.6150  0.1826  0.6210
    1SAPS   H2R   27   2.750   4.352  10.735  1.5307  1.9115  0.4813
    1SAPS   H2S   28   2.711   4.265  10.579 -0.9149  1.1046 -1.2332
    1SAPS    C3   29   2.370   4.563  10.829 -0.5812 -0.6505  0.0931
    1SAPS    HX   30   2.413   4.578  10.930  1.9388 -2.2933 -0.6180
    1SAPS    HY   31   2.263   4.584  10.850 -0.7220  0.1437 -1.3475
    1SAPS   O31   32   2.434   4.661  10.739  0.0452  0.1849  0.2318
    1SAPS   C31   33   2.363   4.682  10.625 -0.0600  0.1679 -0.9469
    1SAPS   O32   34   2.251   4.645  10.597  0.4596  0.1732  0.0015
    1SAPS   C32   35   2.447   4.775  10.537  0.0565  0.3869 -0.2713
    1SAPS   H2X   36   2.538   4.714  10.517 -0.8251 -0.3220 -2.4266
    1SAPS   H2Y   37   2.465   4.869  10.594 -2.5922  0.8190 -0.0150
    1SAPS   C23   38   2.799   4.458  10.547 -0.4041  1.2983 -0.6216
    1SAPS   H3R   39   2.881   4.502  10.608 -0.3618 -0.6612  0.8232
    1SAPS   H3S   40   2.746   4.543  10.500  0.0264  1.3947 -0.9474
    1SAPS   C24   41   2.865   4.358  10.444 -0.8433  0.3787  0.4530
    1SAPS   H4R   42   2.787   4.296  10.396  0.8462 -1.7696  0.3513
    1SAPS   H4S   43   2.934   4.287  10.494 -0.4415 -0.5741 -1.3877
    1SAPS   C25   44   2.931   4.438  10.343 -0.3748 -0.6917  0.0671
    1SAPS   H5R   45   3.002   4.508  10.390 -0.9114  0.5551 -0.9058
    1SAPS   C26   46   2.914   4.439  10.206 -0.4459  0.2873 -0.2535
    1SAPS   H6R   47   2.981   4.509  10.153  0.5971 -0.5496 -0.0905
    1SAPS   C27   48   2.831   4.362  10.117  0.2796  0.0579  0.0589
    1SAPS   H7R   49   2.774   4.287  10.176  0.3933  1.1503  1.6124
    1SAPS   H7S   50   2.903   4.290  10.072  0.0093 -1.3510  1.7299
    1SAPS   C28   51   2.747   4.435  10.015 -0.1660 -0.2974 -1.1140
    1SAPS   H8R   52   2.708   4.527  10.060  2.4005  0.6858 -0.7051
    1SAPS   C29   53   2.720   4.398   9.890 -0.1133 -0.2567  0.4271
    1SAPS   H9R   54   2.644   4.460   9.841  0.6146  1.7647  1.7124
    1SAPS  C210   55   2.760   4.270   9.815  0.2592 -0.2939  0.1635
    1SAPS  H10R   56   2.672   4.203   9.828 -0.2854  0.4483  0.3913
    1SAPS  H10S   57   2.843   4.219   9.867  1.5919  1.8590  0.2768
    1SAPS  C211   58   2.777   4.301   9.665 -0.6614  0.3393  0.2950
    1SAPS  H11R   59   2.755   4.402   9.627 -0.1533 -0.3368 -1.9261
    1SAPS  C212   60   2.852   4.224   9.584  0.6331  0.2198 -0.1801
    1SAPS  H12R   61   2.850   4.254   9.478 -0.9128 -1.3955 -0.6612
    1SAPS  C213   62   2.911   4.085   9.611  0.0299 -0.3758  0.3076
    1SAPS  H13R   63   2.855   4.031   9.691 -1.3464  0.0404 -0.3474
    1SAPS  H13S   64   3.016   4.105   9.642 -0.1183  1.6245 -0.3755
    1SAPS  C214   65   2.916   4.006   9.483 -0.1526 -0.5533 -0.1718
    1SAPS  H14R   66   3.015   3.972   9.448  0.2874 -0.7946  1.2237
    1SAPS  C215   67   2.807   3.936   9.438  0.2451  0.7316  0.0992
    1SAPS  H15R   68   2.822   3.883   9.343  1.0147  5.1859 -2.5806
    1SAPS  C216   69   2.663   3.945   9.487 -0.6015  1.2548 -0.1330
    1SAPS  H16R   70   2.661   4.025   9.565 -2.8286  1.1201 -0.0062
    1SAPS  H16S   71   2.625   3.852   9.534  0.1738  0.3480 -1.2270
    1SAPS  C217   72   2.568   3.983   9.371 -0.2859  0.7715  0.2148
    1SAPS  H17R   73   2.465   3.978   9.412 -1.1314 -0.3386 -1.9254
    1SAPS  H17S   74   2.581   3.919   9.281 -0.3824  0.8839  0.1192
    1SAPS  C218   75   2.587   4.128   9.327  0.0700 -0.4189 -0.6976
    1SAPS  H18R   76   2.692   4.137   9.292  0.2484 -0.5216 -0.2052
    1SAPS  H18S   77   2.573   4.192   9.417  3.9846  1.3126 -1.0966
    1SAPS  C219   78   2.492   4.179   9.215  0.0191  0.3214  0.0808
    1SAPS  H19R   79   2.389   4.186   9.255 -0.3105  1.1027 -0.8709
    1SAPS  H19S   80   2.489   4.099   9.138 -0.6218 -0.9616  1.3989
    1SAPS  C220   81   2.528   4.316   9.149  0.3375  0.2828  0.1305
    1SAPS  H20R   82   2.492   4.312   9.044  1.0645 -1.2709 -0.0891
    1SAPS  H20S   83   2.639   4.327   9.152  0.6467 -2.2768  0.3495
    1SAPS  H20T   84   2.469   4.396   9.197 -0.6422 -0.9075  0.9781
    1SAPS   C33   85   2.385   4.811  10.402 -0.2672 -0.0576  0.5809
    1SAPS   H3X   86   2.341   4.912  10.419 -1.7366 -0.2328 -1.7395
    1SAPS   H3Y   87   2.304   4.741  10.371  0.1747 -0.5737  0.5725
    1SAPS   C34   88   2.496   4.807  10.291 -0.5348 -0.1443  0.3395
    1SAPS   H4X   89   2.562   4.718  10.303  1.0619  0.7615 -1.1794
    1SAPS   H4Y   90   2.560   4.896  10.304 -0.5340 -0.1118  0.1316
    1SAPS   C35   91   2.428   4.809  10.157  0.0308 -0.4222  0.2291
    1SAPS   H5X   92   2.388   4.909  10.132  0.0242 -0.2456  0.9460
    1SAPS   H5Y   93   2.334   4.750  10.164  0.0723 -0.2876  2.5562
    1SAPS   C36   94   2.506   4.771  10.033 -0.9835  0.0479 -0.3958
    1SAPS   H6X   95   2.431   4.767   9.950 -0.8109  1.9532 -0.6775
    1SAPS   H6Y   96   2.549   4.671  10.056  0.0459  0.7799  0.9668
    1SAPS   C37   97   2.621   4.866   9.991  0.0722  0.4759  0.0504
    1SAPS   H7X   98   2.694   4.864  10.075 -0.7635  1.4979  0.8488
    1SAPS   H7Y   99   2.582   4.970   9.991  1.3269  0.9742 -0.7618
    1SAPS   C38  100   2.679   4.821   9.856 -0.0076 -0.0190  0.2863
    1SAPS   H8X  101   2.688   4.711   9.859  2.1145  0.1195  0.3455
    1SAPS   H8Y  102   2.779   4.866   9.840 -0.5108  0.6680 -1.1497
    1SAPS   C39  103   2.583   4.861   9.733 -0.2661  0.1690 -0.1115
    1SAPS   H9X  104   2.565   4.970   9.736 -0.1555  0.1979 -0.4430
    1SAPS   H9Y  105   2.487   4.807   9.748 -0.1157  0.3923  1.9629
    1SAPS  C310  106   2.629   4.820   9.589  0.1231 -0.0556 -0.8069
    1SAPS  H10X  107   2.728   4.864   9.564  0.6342 -1.3600 -1.1403
    1SAPS  H10Y  108   2.558   4.871   9.521  0.6574  0.4988 -0.9605
    1SAPS  C311  109   2.590   4.668   9.560 -0.9425  0.7184  0.4988
    1SAPS  H11X  110   2.485   4.666   9.596 -1.4715  0.1215 -1.0100
    1SAPS  H11Y  111   2.655   4.601   9.620  1.3146  2.6248  0.3180
    1SAPS  C312  112   2.582   4.631   9.417 -0.3217 -0.1327  1.0869
    1SAPS  H12X  113   2.522   4.709   9.365  2.2265 -0.1513 -2.2667
    1SAPS  H12Y  114   2.539   4.529   9.405  0.8271 -0.6572  1.2815
    1SAPS  C313  115   2.720   4.623   9.347  0.4551 -0.0419 -0.1680
    1SAPS  H13X  116   2.782   4.543   9.394  1.0188  0.7368  0.4588
    1SAPS  H13Y  117   2.756   4.726   9.370  0.1876 -0.2714  1.4547
    1SAPS  C314  118   2.703   4.615   9.191 -0.3806 -0.2693 -0.7963
    1SAPS  H14X  119   2.624   4.686   9.158  1.2314  1.3797 -1.2795
    1SAPS  H14Y  120   2.686   4.510   9.162 -2.1814 -0.6586  1.3394
    1SAPS  C315  121   2.823   4.652   9.103 -0.1969 -0.3213  0.2506
    1SAPS  H15X  122   2.836   4.762   9.099 -1.5651 -0.1372  0.3979
    1SAPS  H15Y  123   2.791   4.630   8.999  0.4679  0.7068 -0.1816
    1SAPS  C316  124   2.957   4.582   9.135 -0.3927  0.9547 -0.3162
    1SAPS  H16X  125   2.990   4.610   9.237  2.0641 -1.3403 -0.3894
    1SAPS  H16Y  126   3.028   4.621   9.059  0.8288  0.0407  0.3231
    1SAPS  C317  127   2.953   4.424   9.135  0.0693  0.1683  0.8717
    1SAPS  H17X  128   2.875   4.393   9.207  0.1166 -0.4356  0.6734
    1SAPS  H17Y  129   3.053   4.393   9.174  1.0889  0.6074 -1.2398
    1SAPS  C318  130   2.931   4.361   8.996 -0.4975  0.3831  0.0405
    1SAPS  H18X  131   2.822   4.364   8.978 -0.7090 -0.6503  1.0182
    1SAPS  H18Y  132   2.952   4.253   8.986 -0.2814  0.6165 -2.9995
    1SAPS  H18Z  133   2.972   4.418   8.910 -2.1138  0.2918 -0.8327
    2SAPS     N  134   1.674   4.262  10.800 -0.1969  0.1491 -0.1440
    2SAPS   HN1  135   1.707   4.334  10.867 -0.4475  0.0028  0.1404
    2SAPS   HN2  136   1.746   4.187  10.791 -1.0721 -1.1526  2.6081
    2SAPS   HN3  137   1.657   4.310  10.709 -0.7122  0.5564  0.1635
    2SAPS   C12  138   1.546   4.195  10.845  0.4828 -0.1874  0.6482
    2SAPS  H12A  139   1.518   4.122  10.770  2.7570 -0.2223 -0.2423
    2SAPS   C13  140   1.571   4.122  10.978  0.3750  0.4232 -0.0855
    2SAPS  O13A  141   1.692   4.109  11.023  0.0324  0.7694  0.1713
    2SAPS  O13B  142   1.474   4.096  11.053  0.5425 -0.4295  0.3358
    2SAPS   C11  143   1.428   4.301  10.856  0.1730  0.8329  0.0485
    2SAPS  H11A  144   1.414   4.330  10.962  0.5976  1.2912 -0.0179
    2SAPS  H11B  145   1.334   4.248  10.827  0.7240  0.1941 -0.5986
    2SAPS     P  146   1.400   4.416  10.623  0.4593  0.1565  0.5632
    2SAPS   O13  147   1.321   4.295  10.587  0.3993  0.2550 -0.5466
    2SAPS   O14  148   1.343   4.544  10.582 -0.0679 -0.1239 -0.4106
    2SAPS   O12  149   1.449   4.422  10.772  0.6442  0.4866  0.3431
    2SAPS   O11  150   1.548   4.404  10.561 -0.1624 -0.1347 -0.1199
    2SAPS    C1  151   1.584   4.298  10.473  1.4152  0.0925  0.4933
    2SAPS    HA  152   1.584   4.202  10.530 -0.4276 -0.1367  0.1903
    2SAPS    HB  153   1.507   4.291  10.394  0.2375  1.4365  1.4743
    2SAPS    C2  154   1.721   4.308  10.408 -0.3241 -0.5952  0.0563
    2SAPS    HS  155   1.799   4.292  10.485  0.3317  0.3568 -0.3869
    2SAPS   O21  156   1.736   4.438  10.356  0.4001 -0.6012  0.5530
    2SAPS   C21  157   1.863   4.487  10.342  0.3038 -0.0312 -0.6235
    2SAPS   O22  158   1.960   4.430  10.385  0.2998 -0.4522 -0.2554
    2SAPS   C22  159   1.867   4.623  10.278  0.0855 -0.7107 -0.4306
    2SAPS   H2R  160   1.787   4.639  10.203 -1.1371  0.3238  1.0066
    2SAPS   H2S  161   1.843   4.693  10.361 -1.0900 -0.8393 -0.6467
    2SAPS    C3  162   1.754   4.197  10.294  0.4281 -1.5636 -0.5932
    2SAPS    HX  163   1.750   4.098  10.344  0.0765 -2.0409 -1.5292
    2SAPS    HY  164   1.862   4.215  10.278  0.3445 -1.3825 -0.9731
    2SAPS   O31  165   1.686   4.216  10.170 -0.0053 -0.6451 -0.1303
    2SAPS   C31  166   1.574   4.150  10.160  0.6256  0.2207 -0.0462
    2SAPS   O32  167   1.531   4.067  10.242 -0.6801  0.1373  0.0077
    2SAPS   C32  168   1.497   4.196  10.036  0.2781 -0.3934 -0.3201
    2SAPS   H2X  169   1.540   4.281   9.979 -0.0409  0.6775  0.9859
    2SAPS   H2Y  170   1.398   4.226  10.075  1.0136  2.1352 -0.2315
    2SAPS   C23  171   2.009   4.652  10.236  0.2067  0.0521  0.1394
    2SAPS   H3R  172   2.041   4.579  10.158  0.5940  2.0284 -1.6470
    2SAPS   H3S  173   2.077   4.641  10.323  0.1521 -0.4663  0.1223
    2SAPS   C24  174   2.024   4.798  10.166  0.6036  0.6843 -0.1782
    2SAPS   H4R  175   2.130   4.827  10.163  0.1555  2.3070 -1.0054
    2SAPS   H4S  176   1.974   4.880  10.221 -0.5917  0.7951 -1.3791
    2SAPS   C25  177   1.960   4.807  10.027 -0.1382  0.7231  0.0220
    2SAPS   H5R  178   1.852   4.788  10.032 -0.0749  0.0119 -1.0035
    2SAPS   C26  179   2.014   4.849   9.907  0.3626  1.3123  0.1390
    2SAPS   H6R  180   1.954   4.836   9.816 -0.2908 -0.4596  0.7625
    2SAPS   C27  181   2.159   4.886   9.875  0.2557 -0.1150  0.1123
    2SAPS   H7R  182   2.204   4.803   9.816 -0.1137 -1.3688  1.5439
    2SAPS   H7S  183   2.206   4.891   9.975  0.1443  2.5835  0.1069
    2SAPS   C28  184   2.157   5.010   9.796  0.3810  0.2045 -0.3927
    2SAPS   H8R  185   2.162   5.102   9.855 -2.0841  1.0223 -1.3351
    2SAPS   C29  186   2.159   5.023   9.659  0.0934  0.2007 -0.6798
    2SAPS   H9R  187   2.150   5.123   9.615  0.8069  1.7961  2.4695
    2SAPS  C210  188   2.152   4.914   9.553 -0.2050  0.3934 -0.2688
    2SAPS  H10R  189   2.050   4.871   9.543  0.1245 -0.9686  1.6049
    2SAPS  H10S  190   2.195   4.820   9.592 -2.5498 -0.3198  0.7800
    2SAPS  C211  191   2.200   4.943   9.409 -0.6433  0.0997  0.2284
    2SAPS  H11R  192   2.301   4.911   9.380 -0.6865 -0.2916  0.5069
    2SAPS  C212  193   2.126   4.998   9.308 -0.3640 -0.5727 -0.0967
    2SAPS  H12R  194   2.184   5.005   9.215  1.6194 -1.4409  1.0274
    2SAPS  C213  195   1.992   5.071   9.334 -0.0550  0.1994  0.1994
    2SAPS  H13R  196   2.011   5.181   9.328  0.1232  0.2390  1.2342
    2SAPS  H13S  197   1.952   5.049   9.435  0.0631 -0.8805  0.0188
    2SAPS  C214  198   1.894   5.019   9.226 -0.7805 -0.1498 -0.2531
    2SAPS  H14R  199   1.820   4.943   9.256 -0.8650 -0.5653 -1.4865
    2SAPS  C215  200   1.878   5.081   9.105 -0.3842  0.4820 -1.1872
    2SAPS  H15R  201   1.805   5.041   9.032  1.0307 -3.6889 -0.5808
    2SAPS  C216  202   1.951   5.201   9.054  0.0010  0.6166 -0.6941
    2SAPS  H16R  203   1.998   5.259   9.137  1.2571  0.4085 -1.2420
    2SAPS  H16S  204   1.876   5.268   9.006  1.2873  1.0663 -2.1168
    2SAPS  C217  205   2.059   5.159   8.947 -0.6674  0.1228 -0.2568
    2SAPS  H17R  206   2.001   5.141   8.853  2.2097  0.8315 -2.3087
    2SAPS  H17S  207   2.095   5.060   8.981 -1.3275 -0.2133 -0.5095
    2SAPS  C218  208   2.159   5.271   8.921  0.1331 -1.0371  0.3474
    2SAPS  H18R  209   2.233   5.282   9.003 -0.3226 -0.6102  0.7063
    2SAPS  H18S  210   2.113   5.370   8.900 -0.4719 -1.1083  1.2585
    2SAPS  C219  211   2.241   5.254   8.790 -0.2065 -0.4950 -0.8191
    2SAPS  H19R  212   2.317   5.334   8.777 -2.7204  2.5043  1.4801
    2SAPS  H19S  213   2.168   5.266   8.707 -0.7326 -0.7918 -0.4003
    2SAPS  C220  214   2.312   5.116   8.767  0.1804  0.0672 -0.7137
    2SAPS  H20R  215   2.354   5.114   8.665  2.1961 -0.1416  0.0849
    2SAPS  H20S  216   2.248   5.026   8.777 -2.4069  1.7971 -0.4833
    2SAPS  H20T  217   2.397   5.105   8.838 -0.9712  0.6116  0.8140
    2SAPS   C33  218   1.464   4.087   9.941  0.2078  0.1765 -0.7662
    2SAPS   H3X  219   1.405   4.133   9.860  1.7543  0.9455 -1.4987
    2SAPS   H3Y  220   1.402   4.014   9.998  1.5604  0.1200  0.7367
    2SAPS   C34  221   1.584   4.033   9.861  0.0543 -0.5813  0.1881
    2SAPS   H4X  222   1.658   4.000   9.937 -0.2252 -2.1270 -0.1810
    2SAPS   H4Y  223   1.632   4.123   9.816 -2.5874  1.5353  1.2688
    2SAPS   C35  224   1.550   3.911   9.769 -0.1534 -0.4273  0.2263
    2SAPS   H5X  225   1.456   3.862   9.803 -1.4330  1.3604 -0.5282
    2SAPS   H5Y  226   1.635   3.841   9.783  0.5028  0.3924  0.4313
    2SAPS   C36  227   1.522   3.948   9.622 -0.3144  0.0316 -0.9607
    2SAPS   H6X  228   1.616   3.979   9.572 -0.4569 -1.5689 -2.2961
    2SAPS   H6Y  229   1.437   4.019   9.610 -1.0177 -0.9839 -2.2480
    2SAPS   C37  230   1.481   3.825   9.541  0.5157 -0.3774  0.5395
    2SAPS   H7X  231   1.371   3.829   9.528  0.8039  0.2517 -2.5432
    2SAPS   H7Y  232   1.505   3.721   9.570  0.5787 -0.1444  1.3423
    2SAPS   C38  233   1.532   3.829   9.392 -0.2279  0.5197 -0.0773
    2SAPS   H8X  234   1.641   3.846   9.400 -0.2223 -0.1634  1.6399
    2SAPS   H8Y  235   1.498   3.915   9.330  0.8715 -0.2070 -1.7731
    2SAPS   C39  236   1.526   3.698   9.302  0.3157 -0.7870 -0.5303
    2SAPS   H9X  237   1.435   3.706   9.239  1.1403  0.3801 -1.6183
    2SAPS   H9Y  238   1.529   3.603   9.361 -1.1437 -1.5364 -1.5931
    2SAPS  C310  239   1.646   3.692   9.214 -0.4792  0.1480 -0.3280
    2SAPS  H10X  240   1.738   3.704   9.275 -1.3306 -1.2447  1.3217
    2SAPS  H10Y  241   1.636   3.775   9.141 -3.0399 -0.6396 -0.9995
    2SAPS  C311  242   1.656   3.552   9.155 -0.4498 -0.4192  0.8866
    2SAPS  H11X  243   1.556   3.525   9.115  0.6386  0.7781 -3.1235
    2SAPS  H11Y  244   1.695   3.475   9.224  1.0719  0.6144  1.2183
    2SAPS  C312  245   1.758   3.546   9.032  0.0504  0.4751 -0.4006
    2SAPS  H12X  246   1.709   3.609   8.955 -2.3615 -2.3111 -1.3557
    2SAPS  H12Y  247   1.736   3.445   8.992  0.3759  0.2305  0.0307
    2SAPS  C313  248   1.902   3.579   9.056  0.0612  0.0534 -0.0665
    2SAPS  H13X  249   1.944   3.517   9.138  0.9054  1.2334  0.4263
    2SAPS  H13Y  250   1.908   3.681   9.100  0.6747 -0.6638  1.5721
    2SAPS  C314  251   2.003   3.563   8.945 -0.1486 -0.1431 -0.1959
    2SAPS  H14X  252   2.105   3.593   8.977  0.5957 -1.0050 -1.6567
    2SAPS  H14Y  253   1.975   3.634   8.865  0.8982  1.2847  0.6560
    2SAPS  C315  254   2.007   3.422   8.891  0.2147  0.7363  0.2900
    2SAPS  H15X  255   2.099   3.414   8.829 -0.8323  1.3619 -1.4288
    2SAPS  H15Y  256   1.917   3.399   8.831  1.1977  1.4014 -1.5077
    2SAPS  C316  257   2.021   3.308   8.998  0.2665 -0.0637  0.5299
    2SAPS  H16X  258   1.921   3.313   9.047  0.0083  0.3279 -0.0286
    2SAPS  H16Y  259   2.091   3.336   9.080 -0.7324 -0.7282  1.6412
    2SAPS  C317  260   2.042   3.171   8.948  0.1842  0.0118  0.1670
    2SAPS  H17X  261   1.977   3.156   8.859  0.5523  2.6265 -0.6130
    2SAPS  H17Y  262   2.019   3.090   9.021  0.6938 -3.4504 -3.1594
    2SAPS  C318  263   2.188   3.150   8.899  0.5197 -0.0317 -0.1120
    2SAPS  H18X  264   2.267   3.156   8.977  1.6023  0.0285 -1.1779
    2SAPS  H18Y  265   2.214   3.215   8.813 -1.3128  1.5403  0.4583
    2SAPS  H18Z  266   2.200   3.041   8.877  1.3760 -0.0597  0.4426
    3SAPS     N  267   1.788   0.795  10.876  0.0122  0.0604  0.0087
    3SAPS   HN1  268   1.793   0.895  10.905  0.3168 -0.3686  1.5511
    3SAPS   HN2  269   1.877   0.749  10.906 -1.0287 -2.7590 -0.8265
    3SAPS   HN3  270   1.762   0.781  10.776 -1.7394  0.6600  0.3531
    3SAPS   C12  271   1.681   0.720  10.954 -0.3436 -0.1667  0.6522
    3SAPS  H12A  272   1.658   0.764  11.050 -0.4969  1.6678 -0.1738
    3SAPS   C13  273   1.541   0.731  10.889  0.0525  0.6837  0.5850
    3SAPS  O13A  274   1.524   0.788  10.779 -0.2411 -0.3897  0.0898
    3SAPS  O13B  275   1.445   0.686  10.954 -0.2705 -0.0065 -0.2513
    3SAPS   C11  276   1.725   0.568  10.975 -0.5820 -0.8326  0.8081
    3SAPS  H11A  277   1.649   0.521  11.041  0.5378 -1.1802  1.8885
    3SAPS  H11B  278   1.816   0.561  11.038 -0.1068 -1.4980  0.0774
    3SAPS     P  279   1.759   0.327  10.870 -0.0049 -0.4757 -0.1165
    3SAPS   O13  280   1.886   0.295  10.938  0.4190  0.1125 -0.2787
    3SAPS   O14  281   1.638   0.281  10.939 -0.0994  0.2427 -0.1245
    3SAPS   O12  282   1.742   0.485  10.856 -0.9096 -0.1300 -0.9701
    3SAPS   O11  283   1.773   0.271  10.724  0.4557 -0.5677 -0.2839
    3SAPS    C1  284   1.819   0.352  10.614 -0.5199 -0.2904 -0.1128
    3SAPS    HA  285   1.898   0.420  10.653 -0.1666 -1.2254  0.8744
    3SAPS    HB  286   1.867   0.281  10.543 -0.5141 -0.2780 -0.1214
    3SAPS    C2  287   1.698   0.422  10.546  0.0319  0.1367 -0.8726
    3SAPS    HS  288   1.632   0.476  10.617  1.6859  2.9579 -1.3381
    3SAPS   O21  289   1.626   0.311  10.484 -0.2825 -0.3978  0.4145
    3SAPS   C21  290   1.496   0.338  10.456 -0.4846  0.0292 -0.5300
    3SAPS   O22  291   1.441   0.442  10.493 -0.7766  0.0350  0.1115
    3SAPS   C22  292   1.438   0.229  10.362 -0.3589  0.0413  0.0853
    3SAPS   H2R  293   1.507   0.144  10.347 -1.2671 -0.7621  0.3162
    3SAPS   H2S  294   1.346   0.201  10.417 -1.9349 -2.1870 -3.3474
    3SAPS    C3  295   1.735   0.529  10.441  0.3945  0.4671  0.0161
    3SAPS    HX  296   1.797   0.605  10.492  0.2360  0.1863  0.6457
    3SAPS    HY  297   1.641   0.573  10.401 -0.2989 -0.0808  0.9958
    3SAPS   O31  298   1.816   0.473  10.334  0.1957  0.5595  0.0638
    3SAPS   C31  299   1.880   0.564  10.268 -0.6148 -0.4358 -0.1037
    3SAPS   O32  300   1.870   0.682  10.281 -0.2540 -0.1839 -0.4438
    3SAPS   C32  301   1.974   0.496  10.171  0.4979 -0.1090  0.1368
    3SAPS   H2X  302   1.912   0.457  10.087  0.5120 -0.1487  0.1446
    3SAPS   H2Y  303   2.016   0.406  10.223  1.1163  0.4843  0.6862
    3SAPS   C23  304   1.381   0.278  10.228  0.7886  0.4937  0.2100
    3SAPS   H3R  305   1.285   0.333  10.232  0.0018 -0.8568  0.5761
    3SAPS   H3S  306   1.356   0.194  10.159  1.5309  2.1048 -2.1706
    3SAPS   C24  307   1.485   0.364  10.154 -0.3489 -0.7879 -0.0669
    3SAPS   H4R  308   1.517   0.448  10.220 -0.7032 -1.3189  0.7964
    3SAPS   H4S  309   1.439   0.396  10.058  0.4249 -0.0896 -0.2216
    3SAPS   C25  310   1.614   0.302  10.125  0.4384  0.3589  0.5373
    3SAPS   H5R  311   1.672   0.267  10.212  0.3956 -1.2072 -0.0215
    3SAPS   C26  312   1.671   0.278  10.004 -0.6033  0.2747  0.2647
    3SAPS   H6R  313   1.773   0.236  10.004 -0.2926  0.9768 -0.9257
    3SAPS   C27  314   1.636   0.321   9.864 -0.1690 -0.6165  0.0704
    3SAPS   H7R  315   1.533   0.362   9.866 -2.1539 -5.0273  0.9159
    3SAPS   H7S  316   1.616   0.236   9.796 -2.2872  1.8152 -2.6358
    3SAPS   C28  317   1.745   0.416   9.809  0.9254  0.1877 -0.2496
    3SAPS   H8R  318   1.801   0.479   9.881  2.7234 -0.2866 -1.1701
    3SAPS   C29  319   1.798   0.415   9.692  0.5218 -0.5758  0.4428
    3SAPS   H9R  320   1.879   0.487   9.670  0.2358  0.0468  1.3864
    3SAPS  C210  321   1.756   0.322   9.580  0.3106  0.2592  0.5276
    3SAPS  H10R  322   1.732   0.221   9.621  0.0930  0.7709  1.6892
    3SAPS  H10S  323   1.851   0.311   9.525  2.9035  0.2813  4.5781
    3SAPS  C211  324   1.634   0.371   9.500 -0.4146  0.0418  0.9156
    3SAPS  H11R  325   1.558   0.414   9.566  0.0308  1.3573  0.6013
    3SAPS  C212  326   1.612   0.366   9.370 -0.0191  0.6900 -0.3248
    3SAPS  H12R  327   1.517   0.408   9.335 -0.4749  0.8760  1.0844
    3SAPS  C213  328   1.702   0.305   9.257  0.5817 -0.5012 -0.0994
    3SAPS  H13R  329   1.653   0.211   9.224 -0.0698 -0.4925  0.8015
    3SAPS  H13S  330   1.799   0.263   9.291 -0.2078 -3.5943 -1.3508
    3SAPS  C214  331   1.711   0.402   9.146  0.6054  0.0988 -0.6732
    3SAPS  H14R  332   1.786   0.483   9.154  2.4110 -1.3216 -2.3611
    3SAPS  C215  333   1.627   0.399   9.040 -0.3967  0.3103 -0.4483
    3SAPS  H15R  334   1.648   0.449   8.944 -1.5867 -0.3244 -1.0662
    3SAPS  C216  335   1.498   0.313   9.032  0.1348 -0.6119 -0.3825
    3SAPS  H16R  336   1.478   0.261   9.129 -1.0188  0.8180  0.1920
    3SAPS  H16S  337   1.504   0.231   8.957 -0.9053  0.7651 -2.0485
    3SAPS  C217  338   1.379   0.402   8.989 -0.7538 -0.1746 -0.0015
    3SAPS  H17R  339   1.403   0.447   8.890 -2.3276  0.7480  0.0041
    3SAPS  H17S  340   1.380   0.483   9.066 -3.5426 -1.2249  1.2535
    3SAPS  C218  341   1.246   0.328   8.986 -0.6209  0.3562  0.1985
    3SAPS  H18R  342   1.173   0.408   8.959  0.4368  0.6458 -2.1215
    3SAPS  H18S  343   1.230   0.283   9.086  0.0949 -1.7665 -0.5875
    3SAPS  C219  344   1.231   0.234   8.868 -0.3633 -0.3909 -0.3391
    3SAPS  H19R  345   1.291   0.141   8.865  1.9420  1.0180 -2.1659
    3SAPS  H19S  346   1.240   0.281   8.768  1.2941 -1.4906 -0.7443
    3SAPS  C220  347   1.085   0.175   8.874  0.2515 -0.0330  0.0167
    3SAPS  H20R  348   1.011   0.248   8.913  1.2500  0.1269  1.7043
    3SAPS  H20S  349   1.090   0.097   8.954 -0.3555  0.1608  0.2506
    3SAPS  H20T  350   1.053   0.128   8.779 -0.7048  2.7974 -1.1641
    3SAPS   C33  351   2.085   0.590  10.118  0.2617  0.2785  0.4067
    3SAPS   H3X  352   2.119   0.665  10.193  1.8851  1.2659 -1.2410
    3SAPS   H3Y  353   2.046   0.666  10.047 -2.1789  2.1195  3.4264
    3SAPS   C34  354   2.208   0.517  10.074 -0.1880  0.4944  0.0793
    3SAPS   H4X  355   2.229   0.436  10.148  0.4116  1.5800  1.1295
    3SAPS   H4Y  356   2.286   0.593  10.096  0.9379 -1.3811  3.4433
    3SAPS   C35  357   2.210   0.452   9.940 -0.1113  0.1879  0.4397
    3SAPS   H5X  358   2.193   0.526   9.859 -0.5000 -0.7583 -0.3657
    3SAPS   H5Y  359   2.125   0.381   9.928 -0.1713  0.5575 -1.9322
    3SAPS   C36  360   2.333   0.370   9.932 -0.3791  0.5191  0.4725
    3SAPS   H6X  361   2.355   0.313  10.025  0.0400 -0.0630  0.0243
    3SAPS   H6Y  362   2.415   0.442   9.912  1.6660 -1.1481  2.3479
    3SAPS   C37  363   2.341   0.278   9.815  0.8968  0.9850  0.5101
    3SAPS   H7X  364   2.443   0.234   9.815  1.6052  2.5641  0.0683
    3SAPS   H7Y  365   2.320   0.336   9.722  0.0953 -1.1654 -0.7378
    3SAPS   C38  366   2.236   0.162   9.821  0.0219 -0.0718 -0.8408
    3SAPS   H8X  367   2.143   0.200   9.774 -0.9495 -0.3097  0.8215
    3SAPS   H8Y  368   2.212   0.150   9.928  2.4562 -0.5348 -0.2846
    3SAPS   C39  369   2.273   0.023   9.767  0.2562  0.1107 -0.1717
    3SAPS   H9X  370   2.192  -0.049   9.791  0.5905 -0.6771 -1.3157
    3SAPS   H9Y  371   2.363   0.004   9.829  0.5493 -0.3607 -0.7233
    3SAPS  C310  372   2.295   0.027   9.621 -0.3524  0.0793 -0.4166
    3SAPS  H10X  373   2.328   0.131   9.605 -0.1966 -0.2249 -2.2883
    3SAPS  H10Y  374   2.202   0.020   9.560 -0.5815  1.5267 -0.2681
    3SAPS  C311  375   2.413  -0.066   9.584 -0.3169  0.5206 -0.1163
    3SAPS  H11X  376   2.394  -0.166   9.629 -0.4881  1.5081  2.1749
    3SAPS  H11Y  377   2.493  -0.031   9.654 -0.2377 -1.6208  0.9702
    3SAPS  C312  378   2.454  -0.048   9.442 -0.0731 -0.3647 -0.4738
    3SAPS  H12X  379   2.551  -0.102   9.442  0.8033  1.1399  0.2692
    3SAPS  H12Y  380   2.475   0.060   9.425  1.5798 -0.4572  0.6470
    3SAPS  C313  381   2.358  -0.113   9.347 -0.3165 -0.0013  0.3141
    3SAPS  H13X  382   2.250  -0.090   9.356 -0.0520  1.8978 -0.6751
    3SAPS  H13Y  383   2.368  -0.223   9.347 -0.1093 -0.1312 -3.3241
    3SAPS  C314  384   2.398  -0.073   9.201  0.4807  0.3349  0.0661
    3SAPS  H14X  385   2.342  -0.135   9.129  1.8450 -1.1002  0.1837
    3SAPS  H14Y  386   2.505  -0.100   9.187  0.2999 -0.0477 -0.6025
    3SAPS  C315  387   2.382   0.082   9.171 -0.6380 -0.0960  0.0951
    3SAPS  H15X  388   2.407   0.094   9.063 -1.6193 -2.0012 -0.3943
    3SAPS  H15Y  389   2.450   0.152   9.223 -1.3789  2.0409 -1.6391
    3SAPS  C316  390   2.238   0.141   9.179  0.2376  0.1118 -0.7153
    3SAPS  H16X  391   2.230   0.159   9.289  5.8448  0.7729 -0.1242
    3SAPS  H16Y  392   2.170   0.055   9.163 -0.6705  0.4883  0.8205
    3SAPS  C317  393   2.200   0.263   9.097  0.0998 -0.8609 -0.5418
    3SAPS  H17X  394   2.202   0.242   8.988  0.6362  1.5192 -1.0359
    3SAPS  H17Y  395   2.264   0.351   9.117 -1.1668  0.3439 -1.5993
    3SAPS  C318  396   2.059   0.306   9.130  0.3659 -0.0371 -0.2527
    3SAPS  H18X  397   2.050   0.417   9.139 -2.1018 -0.3049  1.8962
    3SAPS  H18Y  398   2.027   0.275   9.232  0.3201  1.8248  0.3393
    3SAPS  H18Z  399   1.993   0.262   9.053  0.1116 -1.3246  0.6688
    4SAPS     N  400   2.896   2.454  10.893  0.0837 -0.6213  0.5146
    4SAPS   HN1  401   2.970   2.446  10.821 -2.1268  0.5987 -2.1061
    4SAPS   HN2  402   2.870   2.360  10.928  2.8872 -1.8739 -0.5185
    4SAPS   HN3  403   2.815   2.492  10.839  0.9725  0.1281 -0.3381
    4SAPS   C12  404   2.929   2.556  10.993  0.6753 -0.1224 -0.2264
    4SAPS  H12A  405   2.859   2.537  11.073  0.1791  1.2865 -0.2969
    4SAPS   C13  406   3.070   2.548  11.054 -0.1550 -0.4084  0.4020
    4SAPS  O13A  407   3.154   2.459  11.027  0.0547  0.5195 -0.1838
    4SAPS  O13B  408   3.113   2.640  11.131  0.5554  0.2675  0.4644
    4SAPS   C11  409   2.907   2.692  10.941 -0.3080 -0.6786  0.1727
    4SAPS  H11A  410   2.938   2.768  11.016 -1.0677 -0.1278 -0.0614
    4SAPS  H11B  411   2.798   2.705  10.922  0.0701 -0.9599 -2.4785
    4SAPS     P  412   2.997   2.852  10.752  0.5499 -0.2697  0.0649
    4SAPS   O13  413   3.012   2.973  10.841 -0.1144  0.0913  0.4456
    4SAPS   O14  414   3.097   2.836  10.650 -0.7069 -0.5314  0.6394
    4SAPS   O12  415   2.994   2.713  10.829  0.8851  0.1551 -0.4983
    4SAPS   O11  416   2.849   2.868  10.681 -0.0954 -0.2966  0.3271
    4SAPS    C1  417   2.769   2.757  10.642 -0.2989  0.0220 -0.1225
    4SAPS    HA  418   2.824   2.660  10.637 -2.6785 -1.4077 -0.0172
    4SAPS    HB  419   2.699   2.741  10.727  1.1733 -1.3903  0.8804
    4SAPS    C2  420   2.712   2.786  10.501  0.4061 -0.0158  0.3385
    4SAPS    HS  421   2.666   2.694  10.458 -1.6886  0.6576  0.9919
    4SAPS   O21  422   2.804   2.862  10.417  0.1587  1.3242 -0.4086
    4SAPS   C21  423   2.915   2.791  10.390  1.2712 -0.3085 -0.3453
    4SAPS   O22  424   2.934   2.673  10.413  0.3849 -0.1024  0.8591
    4SAPS   C22  425   3.013   2.892  10.337 -0.7552 -0.5258  0.2005
    4SAPS   H2R  426   3.076   2.932  10.419 -0.7733 -0.9360  0.4188
    4SAPS   H2S  427   3.089   2.837  10.278 -0.2207  2.0551 -1.7300
    4SAPS    C3  428   2.594   2.880  10.516 -0.3480 -0.4672 -0.1097
    4SAPS    HX  429   2.638   2.982  10.507 -0.7899 -0.4331 -2.2164
    4SAPS    HY  430   2.547   2.874  10.617 -0.0605  0.0914  0.0632
    4SAPS   O31  431   2.490   2.854  10.416 -0.1701  0.1269  0.2360
    4SAPS   C31  432   2.460   2.957  10.348 -0.1862 -0.1597  0.7200
    4SAPS   O32  433   2.525   3.060  10.338 -0.7467 -0.0065  0.2339
    4SAPS   C32  434   2.335   2.934  10.260  0.4056  0.2817 -0.4976
    4SAPS   H2X  435   2.322   3.041  10.233  0.7210  0.5707  0.4805
    4SAPS   H2Y  436   2.261   2.892  10.331  1.6469 -3.0043 -0.9693
    4SAPS   C23  437   2.959   3.014  10.261 -0.1563 -0.7613 -0.0476
    4SAPS   H3R  438   2.872   3.064  10.308 -0.0164  0.7063 -1.2380
    4SAPS   H3S  439   2.912   2.973  10.169  0.5331 -2.2177  0.2197
    4SAPS   C24  440   3.076   3.112  10.222  0.4548  0.3962 -0.1932
    4SAPS   H4R  441   3.149   3.051  10.164 -1.8083 -1.3266 -1.3985
    4SAPS   H4S  442   3.129   3.162  10.306  1.0951 -1.8923  0.8632
    4SAPS   C25  443   3.029   3.208  10.119 -0.0569  0.5131  0.1811
    4SAPS   H5R  444   2.971   3.294  10.154 -0.5567  1.6415 -3.0872
    4SAPS   C26  445   3.066   3.208   9.985 -0.7993  0.1235  0.0006
    4SAPS   H6R  446   3.037   3.296   9.927  1.1467  2.8233  2.8021
    4SAPS   C27  447   3.162   3.107   9.909  0.0518 -0.1294  0.0336
    4SAPS   H7R  448   3.241   3.061   9.973 -0.5335 -1.8944 -0.4606
    4SAPS   H7S  449   3.220   3.166   9.835 -1.1696  4.8531  2.6221
    4SAPS   C28  450   3.069   2.996   9.858  0.1470 -0.3336 -0.4943
    4SAPS   H8R  451   3.051   2.913   9.928  2.3273  0.2194  0.8106
    4SAPS   C29  452   3.010   2.979   9.743  0.6419 -0.7994 -0.2888
    4SAPS   H9R  453   2.964   2.881   9.724 -1.4647  0.4006 -1.8848
    4SAPS  C210  454   3.001   3.079   9.635  0.3424  0.4219 -0.0364
    4SAPS  H10R  455   3.058   3.170   9.664 -1.4496  1.3617  0.7558
    4SAPS  H10S  456   2.892   3.099   9.625 -0.0604 -1.9998 -1.1623
    4SAPS  C211  457   3.055   3.029   9.499 -0.5892  0.0617  0.5884
    4SAPS  H11R  458   2.992   2.950   9.456 -1.1783  0.9936 -0.2689
    4SAPS  C212  459   3.152   3.072   9.419  0.6440  0.1975  0.1653
    4SAPS  H12R  460   3.150   3.025   9.319  0.4047 -0.5325  0.5051
    4SAPS  C213  461   3.248   3.187   9.430 -0.4506  0.4730  0.5841
    4SAPS  H13R  462   3.350   3.145   9.434 -1.0166 -1.1886 -1.1671
    4SAPS  H13S  463   3.240   3.250   9.522  3.3702  1.3367  0.4715
    4SAPS  C214  464   3.215   3.287   9.326 -0.1839  0.3876 -0.2212
    4SAPS  H14R  465   3.109   3.317   9.326 -0.6969 -1.2735 -0.7750
    4SAPS  C215  466   3.300   3.343   9.235 -0.2055  1.0764  0.1905
    4SAPS  H15R  467   3.253   3.414   9.166  0.0803 -0.9991 -2.2967
    4SAPS  C216  468   3.450   3.320   9.209  0.1707 -0.3310 -0.5566
    4SAPS  H16R  469   3.495   3.276   9.301  0.2216 -0.2185 -0.5278
    4SAPS  H16S  470   3.494   3.419   9.185 -0.4208  0.1938  0.4439
    4SAPS  C217  471   3.475   3.215   9.094  0.3970  0.9289 -0.4386
    4SAPS  H17R  472   3.414   3.240   9.004 -1.5380 -0.0194  0.5257
    4SAPS  H17S  473   3.440   3.119   9.138  1.0870  0.4139 -0.9848
    4SAPS  C218  474   3.626   3.196   9.055  0.2428 -0.2107  0.2422
    4SAPS  H18R  475   3.683   3.169   9.146 -1.2778 -5.7837 -0.0831
    4SAPS  H18S  476   3.653   3.295   9.013  1.7432 -1.6941 -2.5774
    4SAPS  C219  477   3.649   3.084   8.953  0.2448 -0.1328  0.4372
    4SAPS  H19R  478   3.602   3.112   8.856  0.3279  0.4822  0.5736
    4SAPS  H19S  479   3.600   2.990   8.987 -0.0284 -0.1505  0.0102
    4SAPS  C220  480   3.800   3.068   8.952 -0.1395 -1.0639 -0.2064
    4SAPS  H20R  481   3.839   2.991   8.883 -0.4650  0.0287 -1.6500
    4SAPS  H20S  482   3.853   3.054   9.050 -2.3249 -0.7265  1.0813
    4SAPS  H20T  483   3.846   3.159   8.908 -2.2245 -0.7452 -1.8770
    4SAPS   C33  484   2.361   2.847  10.138  0.2706 -0.6045 -0.3792
    4SAPS   H3X  485   2.265   2.803  10.102 -0.5136  0.7853 -0.0529
    4SAPS   H3Y  486   2.427   2.761  10.164 -1.0309 -0.8418  2.5470
    4SAPS   C34  487   2.411   2.928  10.018  0.6366  0.0799  0.0775
    4SAPS   H4X  488   2.497   2.977  10.069  1.3411 -2.0413  1.0498
    4SAPS   H4Y  489   2.331   2.995   9.981  0.3243  0.3419  1.1928
    4SAPS   C35  490   2.467   2.857   9.899  0.3463 -0.9316  0.1565
    4SAPS   H5X  491   2.388   2.802   9.843  0.2375 -0.5093 -0.1097
    4SAPS   H5Y  492   2.558   2.798   9.924  3.0759  1.3796 -3.3989
    4SAPS   C36  493   2.502   2.966   9.796 -0.5308  0.8075 -0.7131
    4SAPS   H6X  494   2.573   3.030   9.853 -1.6196 -0.9723  2.9845
    4SAPS   H6Y  495   2.412   3.028   9.778 -0.2703  1.8405  1.2963
    4SAPS   C37  496   2.548   2.914   9.670  0.6000 -0.4511  0.3562
    4SAPS   H7X  497   2.475   2.837   9.637 -1.1696  1.5791 -0.6871
    4SAPS   H7Y  498   2.643   2.856   9.673 -0.7414 -3.1498 -2.8346
    4SAPS   C38  499   2.551   3.032   9.566 -0.1368 -0.2474 -0.0133
    4SAPS   H8X  500   2.617   3.113   9.604 -0.0293 -0.4783  0.2968
    4SAPS   H8Y  501   2.447   3.068   9.555 -1.3954 -3.8673 -1.5830
    4SAPS   C39  502   2.616   2.987   9.431  0.8727  0.3051  0.2749
    4SAPS   H9X  503   2.539   2.925   9.381 -0.2911  1.6348  0.3507
    4SAPS   H9Y  504   2.705   2.936   9.472  0.2050  0.3189  1.8432
    4SAPS  C310  505   2.642   3.111   9.337 -0.1714 -0.9040 -0.9808
    4SAPS  H10X  506   2.689   3.195   9.393 -3.5873  0.7729 -0.3616
    4SAPS  H10Y  507   2.540   3.148   9.311 -0.6166 -1.5722 -0.2453
    4SAPS  C311  508   2.732   3.061   9.220  0.0661 -0.1512  0.4405
    4SAPS  H11X  509   2.678   2.999   9.145  2.2456 -0.3330 -1.0798
    4SAPS  H11Y  510   2.816   2.992   9.241  0.7980 -0.4368 -2.8796
    4SAPS  C312  511   2.798   3.185   9.144  0.0592  0.8412  0.0071
    4SAPS  H12X  512   2.856   3.243   9.218 -0.1624  0.0376  0.8293
    4SAPS  H12Y  513   2.713   3.247   9.108  0.7768  1.8136 -0.0134
    4SAPS  C313  514   2.880   3.146   9.019  0.0313 -0.0929 -0.4610
    4SAPS  H13X  515   2.812   3.100   8.944 -1.7265  1.0972  0.3460
    4SAPS  H13Y  516   2.953   3.069   9.051 -0.9344 -0.0677  1.9572
    4SAPS  C314  517   2.946   3.273   8.952  0.6627 -0.3223  0.1458
    4SAPS  H14X  518   2.973   3.347   9.030  2.9430 -1.6135  0.6791
    4SAPS  H14Y  519   2.872   3.315   8.881  1.8872 -1.2959 -1.7826
    4SAPS  C315  520   3.077   3.244   8.879  0.4816  0.2835  0.1313
    4SAPS  H15X  521   3.139   3.172   8.938  0.4524 -0.1910 -0.4140
    4SAPS  H15Y  522   3.131   3.338   8.854  0.7062 -0.0860 -0.8015
    4SAPS  C316  523   3.053   3.193   8.740  0.3113  0.2485  0.3344
    4SAPS  H16X  524   2.997   3.254   8.666 -0.2816  1.3153  1.6087
    4SAPS  H16Y  525   2.996   3.098   8.740  1.5255 -0.5296 -1.4776
    4SAPS  C317  526   3.192   3.158   8.680  0.4497  0.0919 -0.3597
    4SAPS  H17X  527   3.251   3.114   8.763 -2.5296  0.9545  2.3903
    4SAPS  H17Y  528   3.245   3.250   8.647  0.4869  0.2938  0.2616
    4SAPS  C318  529   3.181   3.060   8.562 -1.1823  0.8712  0.2247
    4SAPS  H18X  530   3.286   3.037   8.533 -1.1760  0.0707  0.8316
    4SAPS  H18Y  531   3.124   3.095   8.473 -0.2781 -1.5996 -1.4375
    4SAPS  H18Z  532   3.150   2.963   8.607  1.4023  0.9929  2.5737
    5SAPS     N  533   6.722   6.504  11.113 -0.0925  0.1713  0.1865
    5SAPS   HN1  534   6.694   6.576  11.182 -0.1335 -1.1808  1.6279
    5SAPS   HN2  535   6.767   6.536  11.025  0.4359 -0.2134  0.3152
    5SAPS   HN3  536   6.641   6.443  11.091 -0.8309  1.0115  0.5171
    5SAPS   C12  537   6.813   6.419  11.189 -0.3991 -0.3875 -0.4760
    5SAPS  H12A  538   6.845   6.462  11.283 -0.3645 -3.2360  0.9292
    5SAPS   C13  539   6.760   6.284  11.222 -0.7734  0.3425  0.4647
    5SAPS  O13A  540   6.644   6.255  11.181  0.2191 -0.3854 -0.2372
    5SAPS  O13B  541   6.827   6.198  11.293  0.7068  0.2757 -0.5309
    5SAPS   C11  542   6.937   6.408  11.096  0.3991  1.0312  0.3203
    5SAPS  H11A  543   6.912   6.345  11.009  3.4846 -0.9955  0.7175
    5SAPS  H11B  544   7.018   6.351  11.147 -0.4519 -2.6202 -2.0479
    5SAPS     P  545   7.129   6.558  11.008 -0.0337  0.1149  0.0155
    5SAPS   O13  546   7.140   6.697  10.954 -0.6456  0.4952  0.1396
    5SAPS   O14  547   7.210   6.529  11.126 -1.0269  0.4431  0.0299
    5SAPS   O12  548   6.980   6.539  11.058  0.0196 -0.3534  0.0196
    5SAPS   O11  549   7.164   6.464  10.880 -0.0147  0.2464 -0.2038
    5SAPS    C1  550   7.184   6.515  10.750  0.6782  0.0011  0.6893
    5SAPS    HA  551   7.118   6.600  10.723  0.5446 -1.0884 -2.9648
    5SAPS    HB  552   7.285   6.562  10.748 -0.2078  1.9968  0.5683
    5SAPS    C2  553   7.155   6.413  10.631 -0.7822  0.4667  0.1909
    5SAPS    HS  554   7.227   6.330  10.650 -1.6489 -0.0151  1.4718
    5SAPS   O21  555   7.165   6.486  10.504 -0.1276 -0.5663 -0.1406
    5SAPS   C21  556   7.215   6.398  10.411 -0.8734 -0.0605  0.9471
    5SAPS   O22  557   7.234   6.282  10.431 -0.5683 -0.1469 -0.1780
    5SAPS   C22  558   7.254   6.459  10.273  1.0086  0.3066  0.3681
    5SAPS   H2R  559   7.319   6.539  10.314  0.8036  0.0633  1.1742
    5SAPS   H2S  560   7.308   6.386  10.210 -1.5132 -0.6645 -0.8098
    5SAPS    C3  561   7.015   6.351  10.636  0.4713 -0.4936 -0.2679
    5SAPS    HX  562   6.941   6.430  10.609  0.5380 -0.2957  0.1246
    5SAPS    HY  563   7.009   6.334  10.746 -1.0578  1.6558  0.0517
    5SAPS   O31  564   6.991   6.234  10.559  0.8563 -0.4080 -0.2740
    5SAPS   C31  565   6.889   6.235  10.473  0.1113 -0.7285 -0.5308
    5SAPS   O32  566   6.840   6.336  10.418 -0.0303  0.3654 -0.5018
    5SAPS   C32  567   6.853   6.091  10.441 -0.6884 -0.7657  0.1509
    5SAPS   H2X  568   6.757   6.093  10.385 -2.0313  3.5772  2.1777
    5SAPS   H2Y  569   6.850   6.046  10.543  3.1194 -0.2509  0.6511
    5SAPS   C23  570   7.135   6.523  10.199  0.6717 -0.2236 -0.6225
    5SAPS   H3R  571   7.074   6.596  10.257  0.0776 -0.2185 -1.2377
    5SAPS   H3S  572   7.068   6.442  10.161  0.1273 -0.4853  0.8093
    5SAPS   C24  573   7.187   6.607  10.079  0.0139  0.6509  0.5251
    5SAPS   H4R  574   7.259   6.544  10.022 -1.5423 -0.3475 -0.4255
    5SAPS   H4S  575   7.244   6.693  10.119  2.1723 -0.5273  0.1214
    5SAPS   C25  576   7.074   6.658   9.994 -0.2153  0.1361 -0.2429
    5SAPS   H5R  577   6.990   6.707  10.046  0.4772  1.1578 -0.0546
    5SAPS   C26  578   7.063   6.645   9.863 -1.1557  0.0496  0.7972
    5SAPS   H6R  579   6.981   6.698   9.812 -0.6320  0.5973  0.5143
    5SAPS   C27  580   7.168   6.581   9.768  0.0658  0.2035 -0.8068
    5SAPS   H7R  581   7.223   6.501   9.821 -0.2842  0.4534 -0.0488
    5SAPS   H7S  582   7.243   6.654   9.730 -0.1837  0.6694 -0.4250
    5SAPS   C28  583   7.099   6.523   9.649 -0.3968 -0.0650  0.5212
    5SAPS   H8R  584   7.066   6.418   9.655  1.6830 -0.8418 -0.7144
    5SAPS   C29  585   7.091   6.574   9.523  0.8167 -0.3935  0.5297
    5SAPS   H9R  586   7.030   6.521   9.449 -0.0218  0.5900  0.5034
    5SAPS  C210  587   7.135   6.706   9.470  0.2302 -0.6343 -0.3791
    5SAPS  H10R  588   7.215   6.740   9.539  1.7635 -2.9069 -0.9300
    5SAPS  H10S  589   7.055   6.783   9.465  0.0087 -0.8529 -0.2382
    5SAPS  C211  590   7.205   6.665   9.340  0.1088 -0.5401 -0.2292
    5SAPS  H11R  591   7.288   6.594   9.348 -0.4321 -1.0485  1.2783
    5SAPS  C212  592   7.176   6.712   9.220  0.2369 -0.5217 -1.3162
    5SAPS  H12R  593   7.245   6.683   9.140 -1.7286  1.7085 -4.0180
    5SAPS  C213  594   7.070   6.807   9.178  0.2620  0.4532 -0.1496
    5SAPS  H13R  595   7.113   6.888   9.115 -1.2135  0.1715 -1.6077
    5SAPS  H13S  596   7.031   6.853   9.271  0.0895 -4.0402  2.2678
    5SAPS  C214  597   6.963   6.744   9.087 -0.3130 -0.1776  0.2347
    5SAPS  H14R  598   6.879   6.698   9.141 -1.2044 -0.8360 -1.6155
    5SAPS  C215  599   6.971   6.742   8.950 -0.1670  0.2826 -0.0849
    5SAPS  H15R  600   6.884   6.693   8.904 -1.0474  0.9379  0.8506
    5SAPS  C216  601   7.084   6.806   8.867  0.1442  0.4369  0.1847
    5SAPS  H16R  602   7.153   6.721   8.849  0.8386  0.8288  0.9287
    5SAPS  H16S  603   7.144   6.886   8.915  0.9812 -0.0909  0.0345
    5SAPS  C217  604   7.035   6.862   8.732 -1.2757 -0.0636  0.4712
    5SAPS  H17R  605   7.121   6.902   8.674 -0.7447 -1.5657  0.1845
    5SAPS  H17S  606   6.977   6.955   8.750 -2.8895 -1.0983  0.8103
    5SAPS  C218  607   6.962   6.756   8.645 -0.8352  0.0919 -0.3019
    5SAPS  H18R  608   7.016   6.660   8.652 -3.8933 -1.7057  0.4703
    5SAPS  H18S  609   6.865   6.737   8.696 -0.5243 -1.4097 -0.2490
    5SAPS  C219  610   6.934   6.802   8.499  0.4131  0.5369 -0.3460
    5SAPS  H19R  611   7.027   6.843   8.454  0.7473  1.3027  1.0009
    5SAPS  H19S  612   6.855   6.879   8.508  0.8614  0.9797 -0.2081
    5SAPS  C220  613   6.886   6.681   8.415 -0.7396  0.7276  0.0793
    5SAPS  H20R  614   6.849   6.719   8.318  0.2752  1.4742 -0.0367
    5SAPS  H20S  615   6.802   6.631   8.467 -0.9124  2.1775  1.2889
    5SAPS  H20T  616   6.967   6.610   8.388 -0.6607 -0.5121  3.1366
    5SAPS   C33  617   6.961   6.029  10.346 -0.2058  0.2524  0.0699
    5SAPS   H3X  618   6.936   5.928  10.307  2.8780 -0.3681 -0.5134
    5SAPS   H3Y  619   7.062   6.020  10.392 -0.2234  0.7617  0.2133
    5SAPS   C34  620   6.976   6.119  10.218 -0.1256  0.0669 -0.8471
    5SAPS   H4X  621   7.052   6.195  10.246 -0.3265 -0.0398  0.0346
    5SAPS   H4Y  622   6.875   6.162  10.205  0.1185  0.8298 -0.3160
    5SAPS   C35  623   7.015   6.037  10.098 -0.1258  0.4373  0.9017
    5SAPS   H5X  624   6.942   5.954  10.088  1.1266 -0.5666 -0.1162
    5SAPS   H5Y  625   7.115   6.005  10.135 -0.6632  0.8897  2.8944
    5SAPS   C36  626   7.031   6.121   9.972 -0.1040  0.3099  0.4145
    5SAPS   H6X  627   7.103   6.204   9.987 -0.6886  0.9248 -0.0984
    5SAPS   H6Y  628   6.933   6.161   9.939 -0.8165  0.0174  2.0520
    5SAPS   C37  629   7.091   6.038   9.856  0.4374 -0.1159  0.4257
    5SAPS   H7X  630   7.022   5.955   9.829  1.7767 -0.9572 -0.5455
    5SAPS   H7Y  631   7.183   5.983   9.886 -0.6083 -1.8232  0.6257
    5SAPS   C38  632   7.111   6.131   9.733 -0.6292 -0.4933 -0.2279
    5SAPS   H8X  633   7.186   6.209   9.758 -1.0569 -0.1314 -0.0607
    5SAPS   H8Y  634   7.012   6.180   9.715  0.0684  0.5265 -1.4357
    5SAPS   C39  635   7.163   6.061   9.607 -0.7432  0.0585  0.0507
    5SAPS   H9X  636   7.100   5.970   9.591 -0.0024 -0.2597 -1.1139
    5SAPS   H9Y  637   7.266   6.021   9.620 -1.4622 -2.1109 -0.4485
    5SAPS  C310  638   7.169   6.158   9.482 -0.2069  0.0396 -0.3058
    5SAPS  H10X  639   7.234   6.106   9.408 -1.4377  0.2270 -1.5795
    5SAPS  H10Y  640   7.214   6.256   9.510 -1.5471  0.9454 -1.1771
    5SAPS  C311  641   7.025   6.176   9.415 -0.5415 -0.7791 -0.3055
    5SAPS  H11X  642   6.971   6.235   9.493  0.5874 -1.2577  0.8707
    5SAPS  H11Y  643   6.977   6.077   9.401  0.0264 -0.8066 -2.4851
    5SAPS  C312  644   7.024   6.261   9.285  0.2425  0.2709 -0.6794
    5SAPS  H12X  645   7.087   6.204   9.214 -0.9742 -0.0076 -1.5800
    5SAPS  H12Y  646   7.077   6.358   9.301 -3.2428  2.0554  1.2843
    5SAPS  C313  647   6.875   6.280   9.237 -0.6884 -0.0193  0.6071
    5SAPS  H13X  648   6.828   6.346   9.313 -0.5720 -0.6018  1.2001
    5SAPS  H13Y  649   6.816   6.186   9.242  1.0106 -1.0755  2.5354
    5SAPS  C314  650   6.862   6.349   9.102 -1.2232  0.3026 -0.5970
    5SAPS  H14X  651   6.899   6.453   9.107  1.8507 -0.7083  0.1074
    5SAPS  H14Y  652   6.754   6.355   9.079 -1.8067 -0.5354  1.6744
    5SAPS  C315  653   6.923   6.268   8.986  0.7744  0.4247  0.4778
    5SAPS  H15X  654   6.857   6.180   8.969  1.8105  0.0328 -1.8709
    5SAPS  H15Y  655   7.020   6.218   9.004  0.4203 -0.0449  1.1236
    5SAPS  C316  656   6.926   6.357   8.865 -1.0462  0.8697 -0.2897
    5SAPS  H16X  657   7.008   6.429   8.886  0.4245 -0.7127 -0.3885
    5SAPS  H16Y  658   6.835   6.419   8.851 -1.6122  0.7401  2.3253
    5SAPS  C317  659   6.969   6.270   8.746  0.2469 -0.5034  0.1102
    5SAPS  H17X  660   6.898   6.193   8.706  1.1180 -1.0915 -0.3327
    5SAPS  H17Y  661   7.061   6.214   8.772  1.9671  1.7304 -0.8712
    5SAPS  C318  662   7.000   6.369   8.634 -0.1475  0.6550  0.4616
    5SAPS  H18X  663   7.024   6.312   8.542  2.7823  1.7517  0.4459
    5SAPS  H18Y  664   7.073   6.448   8.662  0.2856  0.1077  0.8850
    5SAPS  H18Z  665   6.902   6.412   8.603 -0.3553  0.1026  0.3505
    6SAPS     N  666   1.062   6.181  10.728 -0.2302  0.0910 -0.3195
    6SAPS   HN1  667   0.964   6.208  10.708 -1.2946 -2.9084  0.4349
    6SAPS   HN2  668   1.083   6.235  10.815  1.3451 -0.4376 -0.3324
    6SAPS   HN3  669   1.138   6.209  10.663 -0.2695 -2.6981 -1.7065
    6SAPS   C12  670   1.064   6.032  10.743  0.0969 -0.0388  0.4894
    6SAPS  H12A  671   1.053   5.986  10.646  0.0698  0.0619  0.4450
    6SAPS   C13  672   1.177   5.971  10.829 -0.4896  0.1256 -0.7112
    6SAPS  O13A  673   1.279   6.045  10.850 -0.2233 -0.1819 -0.0437
    6SAPS  O13B  674   1.152   5.862  10.888  0.0473 -0.1204 -0.5071
    6SAPS   C11  675   0.925   5.993  10.813 -0.7911  0.5273 -0.2611
    6SAPS  H11A  676   0.934   6.016  10.921 -0.5857  0.1670 -0.1983
    6SAPS  H11B  677   0.928   5.882  10.804  1.9200  0.5276 -0.3951
    6SAPS     P  678   0.668   6.002  10.771 -0.0739 -0.1829  0.0607
    6SAPS   O13  679   0.655   5.933  10.905 -0.2623 -0.0613  0.1349
    6SAPS   O14  680   0.580   6.118  10.747  0.0299 -0.3537  0.3657
    6SAPS   O12  681   0.819   6.062  10.760 -0.2999 -0.6396  0.2583
    6SAPS   O11  682   0.658   5.897  10.656  0.3477 -0.3473  0.1411
    6SAPS    C1  683   0.703   5.939  10.527  0.4185 -0.3474 -0.1802
    6SAPS    HA  684   0.648   6.034  10.507 -2.0839 -1.6784  0.0850
    6SAPS    HB  685   0.808   5.977  10.524  0.6574 -0.8409  1.2346
    6SAPS    C2  686   0.669   5.822  10.423  0.5278  0.3977  0.3408
    6SAPS    HS  687   0.735   5.733  10.429 -2.3357 -1.7916  1.6855
    6SAPS   O21  688   0.676   5.877  10.291 -0.4549 -0.2362 -0.2617
    6SAPS   C21  689   0.727   5.810  10.189 -0.6010  0.8864  0.1977
    6SAPS   O22  690   0.785   5.701  10.193 -0.2110 -0.0735  0.8251
    6SAPS   C22  691   0.680   5.882  10.064 -0.0182 -0.7364  0.0628
    6SAPS   H2R  692   0.577   5.849  10.040  0.3911 -1.6212 -0.5147
    6SAPS   H2S  693   0.677   5.989  10.094 -0.2008 -1.0731  1.3374
    6SAPS    C3  694   0.524   5.771  10.446 -0.3364  0.2358 -0.4127
    6SAPS    HX  695   0.457   5.848  10.491 -0.2565  0.1217 -0.0953
    6SAPS    HY  696   0.530   5.689  10.520  2.3564  0.4761 -0.2736
    6SAPS   O31  697   0.464   5.738  10.315  0.0220 -0.1628 -0.9018
    6SAPS   C31  698   0.338   5.705  10.297  0.3146 -0.0916  0.0519
    6SAPS   O32  699   0.259   5.695  10.387 -0.2560  0.4865 -0.3789
    6SAPS   C32  700   0.309   5.667  10.150  0.1189 -0.5500 -0.4886
    6SAPS   H2X  701   0.402   5.616  10.117  1.1744  1.0831 -0.1725
    6SAPS   H2Y  702   0.294   5.761  10.092 -0.8344 -1.4805 -1.7993
    6SAPS   C23  703   0.765   5.870   9.933 -0.3285  0.1866  0.0932
    6SAPS   H3R  704   0.803   5.767   9.916 -0.1258 -0.3663  3.2096
    6SAPS   H3S  705   0.858   5.930   9.938 -1.7115  2.6423 -1.5668
    6SAPS   C24  706   0.701   5.926   9.807 -0.0613 -0.1807  0.0603
    6SAPS   H4R  707   0.775   5.957   9.730 -0.7561 -1.4388 -1.1482
    6SAPS   H4S  708   0.643   6.020   9.822  0.8023  0.5181 -0.8309
    6SAPS   C25  709   0.599   5.834   9.749  0.7312  0.7036  0.0885
    6SAPS   H5R  710   0.519   5.802   9.817  2.3905 -1.4444  1.1876
    6SAPS   C26  711   0.592   5.776   9.632  0.2893  0.1681  0.6759
    6SAPS   H6R  712   0.502   5.723   9.600  1.4668 -2.0046  0.7721
    6SAPS   C27  713   0.681   5.781   9.514 -0.6819  0.0229 -0.2170
    6SAPS   H7R  714   0.789   5.778   9.539 -0.8098 -0.3839  0.3145
    6SAPS   H7S  715   0.663   5.883   9.473  1.9338  1.3073  1.5702
    6SAPS   C28  716   0.666   5.668   9.417  0.7043 -0.2132 -0.0670
    6SAPS   H8R  717   0.638   5.570   9.457 -1.0753  0.6290  0.8757
    6SAPS   C29  718   0.687   5.655   9.285  0.1662 -0.6359  0.3898
    6SAPS   H9R  719   0.663   5.558   9.238 -0.2777  0.2353 -1.2526
    6SAPS  C210  720   0.740   5.751   9.178 -0.0748 -0.7790  0.2926
    6SAPS  H10R  721   0.702   5.720   9.078 -0.5759  2.0061 -0.4548
    6SAPS  H10S  722   0.849   5.730   9.170 -0.0872 -1.0713  0.7961
    6SAPS  C211  723   0.710   5.901   9.188 -0.6042 -0.4424 -0.0738
    6SAPS  H11R  724   0.784   5.963   9.241  1.1307 -1.9722 -0.5688
    6SAPS  C212  725   0.593   5.959   9.163  0.2051 -0.1352 -0.2797
    6SAPS  H12R  726   0.582   6.067   9.148  1.1602  0.1062  0.6277
    6SAPS  C213  727   0.480   5.881   9.108 -0.3939  0.3462 -0.0686
    6SAPS  H13R  728   0.433   5.816   9.186 -0.6955 -1.3359 -1.5842
    6SAPS  H13S  729   0.514   5.800   9.039  0.3105 -0.1589  0.8366
    6SAPS  C214  730   0.374   5.968   9.046  0.5739  0.5220 -1.0955
    6SAPS  H14R  731   0.307   6.009   9.124  0.7493  0.9297 -1.1553
    6SAPS  C215  732   0.363   6.002   8.918 -0.0888 -0.3497  0.4258
    6SAPS  H15R  733   0.284   6.071   8.883  0.0296 -1.5082 -2.4167
    6SAPS  C216  734   0.444   5.950   8.801  0.0723 -0.2891  0.2639
    6SAPS  H16R  735   0.532   5.892   8.835  1.8671  1.7878 -0.5726
    6SAPS  H16S  736   0.485   6.027   8.732 -1.0768 -0.6062 -0.8193
    6SAPS  C217  737   0.366   5.864   8.711  0.5656  0.0913  0.1698
    6SAPS  H17R  738   0.423   5.857   8.616  1.0100  1.4373  0.3122
    6SAPS  H17S  739   0.274   5.911   8.668 -0.0227 -1.3039 -0.1371
    6SAPS  C218  740   0.303   5.740   8.771  0.7292  0.0696  0.1525
    6SAPS  H18R  741   0.211   5.765   8.827 -0.0397  0.1542 -1.1222
    6SAPS  H18S  742   0.370   5.687   8.844 -0.3348 -0.8964  0.4577
    6SAPS  C219  743   0.260   5.636   8.663  0.3766 -0.0238  0.0887
    6SAPS  H19R  744   0.346   5.604   8.600  0.8483  3.0367 -0.9689
    6SAPS  H19S  745   0.197   5.695   8.593  1.4359  3.1388  1.6336
    6SAPS  C220  746   0.197   5.506   8.720  0.5102  0.2215  0.0376
    6SAPS  H20R  747   0.115   5.528   8.791  1.2888  1.3638  0.6252
    6SAPS  H20S  748   0.272   5.456   8.786  1.9105  2.0948 -0.0375
    6SAPS  H20T  749   0.167   5.434   8.640 -1.8832 -0.1703  1.2022
    6SAPS   C33  750   0.180   5.583  10.139  0.3790  0.1845 -0.1534
    6SAPS   H3X  751   0.096   5.649  10.171  0.0523  0.6875 -1.9402
    6SAPS   H3Y  752   0.175   5.485  10.192 -0.4816 -1.2800 -2.7768
    6SAPS   C34  753   0.147   5.558   9.988 -0.3114 -0.4282  0.1020
    6SAPS   H4X  754   0.230   5.489   9.959 -0.1808 -0.5845  0.8357
    6SAPS   H4Y  755   0.150   5.658   9.940 -0.6543  0.0771  1.1175
    6SAPS   C35  756   0.016   5.503   9.963  0.8858 -0.1339 -0.2999
    6SAPS   H5X  757  -0.057   5.576  10.006  0.8586  1.5481 -2.9932
    6SAPS   H5Y  758  -0.005   5.411  10.022 -2.4915  0.8202  0.2128
    6SAPS   C36  759  -0.005   5.473   9.813  0.2716 -0.2769 -0.5857
    6SAPS   H6X  760   0.056   5.381   9.798 -0.7503 -1.1521  0.5176
    6SAPS   H6Y  761   0.022   5.554   9.741 -1.1431  0.9216  0.1770
    6SAPS   C37  762  -0.152   5.434   9.782 -0.3823 -0.5246  0.6144
    6SAPS   H7X  763  -0.214   5.525   9.794  1.5208  0.7399  1.3903
    6SAPS   H7Y  764  -0.184   5.366   9.864  1.4446 -1.6938  0.4241
    6SAPS   C38  765  -0.158   5.361   9.646  0.3172  0.1023  0.6311
    6SAPS   H8X  766  -0.244   5.290   9.642  1.0200 -0.7527  0.3224
    6SAPS   H8Y  767  -0.068   5.296   9.632 -0.6613 -1.4984  1.4582
    6SAPS   C39  768  -0.177   5.445   9.521 -0.0086  0.3680 -0.5302
    6SAPS   H9X  769  -0.098   5.522   9.511  1.3148 -0.7496  0.7872
    6SAPS   H9Y  770  -0.273   5.499   9.540 -1.7488 -2.3059 -1.1598
    6SAPS  C310  771  -0.177   5.370   9.389  0.7576 -0.2734 -0.9353
    6SAPS  H10X  772  -0.227   5.271   9.399  1.1997 -0.3691  0.6444
    6SAPS  H10Y  773  -0.071   5.341   9.376  0.9652  0.3613 -0.6994
    6SAPS  C311  774  -0.223   5.457   9.270 -0.1404  0.0662  0.0287
    6SAPS  H11X  775  -0.155   5.543   9.252 -1.1108  0.3852 -2.6615
    6SAPS  H11Y  776  -0.323   5.502   9.282  0.5105  1.6355 -0.2073
    6SAPS  C312  777  -0.232   5.380   9.135  0.5917  0.2021 -0.2653
    6SAPS  H12X  778  -0.324   5.318   9.131 -0.2354  1.3558  0.1998
    6SAPS  H12Y  779  -0.147   5.311   9.117  2.7561  2.3819  1.0587
    6SAPS  C313  780  -0.240   5.473   9.020  0.1045 -0.0236  0.4312
    6SAPS  H13X  781  -0.134   5.507   9.018  0.4780 -1.0274 -2.9002
    6SAPS  H13Y  782  -0.320   5.548   9.039 -1.9132 -0.5172 -4.5455
    6SAPS  C314  783  -0.248   5.401   8.887  0.1635 -0.4791 -0.1482
    6SAPS  H14X  784  -0.323   5.319   8.892 -1.4830  0.7401 -2.6461
    6SAPS  H14Y  785  -0.153   5.351   8.859 -0.3309 -0.9479 -1.0256
    6SAPS  C315  786  -0.306   5.491   8.771  0.1686  0.3676 -0.4204
    6SAPS  H15X  787  -0.262   5.590   8.747  0.2250  0.6007  0.5966
    6SAPS  H15Y  788  -0.412   5.516   8.791  0.8117  3.3405 -0.3274
    6SAPS  C316  789  -0.304   5.427   8.632 -0.2472  0.1934 -0.1831
    6SAPS  H16X  790  -0.316   5.320   8.658 -0.5826  0.0090 -1.0592
    6SAPS  H16Y  791  -0.212   5.438   8.570 -0.4200 -0.5653 -0.5949
    6SAPS  C317  792  -0.421   5.463   8.541 -0.4663  0.8426  0.0548
    6SAPS  H17X  793  -0.430   5.573   8.529 -0.4124  1.1448  2.3429
    6SAPS  H17Y  794  -0.514   5.440   8.597  0.1796  1.0946  1.2604
    6SAPS  C318  795  -0.413   5.396   8.406 -0.5361 -0.3868  0.2988
    6SAPS  H18X  796  -0.458   5.295   8.411 -2.6730  0.5365  1.1320
    6SAPS  H18Y  797  -0.313   5.392   8.359 -0.5870 -2.7565  0.2784
    6SAPS  H18Z  798  -0.487   5.454   8.346 -2.2801  0.5521  3.1238
    7SAPS     N  799   2.353   1.246  10.740  0.0453 -0.3291  0.0607
    7SAPS   HN1  800   2.259   1.204  10.727  1.3636 -3.1984 -1.1639
    7SAPS   HN2  801   2.338   1.347  10.760  1.3807 -0.6521  3.1482
    7SAPS   HN3  802   2.407   1.223  10.654 -0.7073 -0.1264 -0.4780
    7SAPS   C12  803   2.414   1.177  10.858  0.4406 -0.3340  0.1721
    7SAPS  H12A  804   2.515   1.214  10.859  0.4275 -0.2776 -0.4701
    7SAPS   C13  805   2.352   1.220  11.000  1.1052 -0.9207 -0.2915
    7SAPS  O13A  806   2.281   1.321  11.007  0.1375  0.2397  0.3623
    7SAPS  O13B  807   2.406   1.173  11.098 -0.3306 -0.6118  0.2257
    7SAPS   C11  808   2.393   1.020  10.846  0.5374 -0.2007  0.2308
    7SAPS  H11A  809   2.286   1.000  10.864 -0.2466 -0.9494 -4.1245
    7SAPS  H11B  810   2.466   0.974  10.916 -0.5614 -1.8684  0.3154
    7SAPS     P  811   2.382   0.815  10.693  0.0139 -0.8136 -0.0825
    7SAPS   O13  812   2.455   0.726  10.783  0.3174  0.4251  1.0153
    7SAPS   O14  813   2.235   0.813  10.692  0.6856  0.0625  0.2915
    7SAPS   O12  814   2.425   0.967  10.717  0.8776 -0.3546  0.2843
    7SAPS   O11  815   2.435   0.793  10.546 -0.2812  0.4988  0.2453
    7SAPS    C1  816   2.451   0.907  10.455 -0.3789 -0.5001 -0.0079
    7SAPS    HA  817   2.384   0.996  10.464  0.9505  0.5293  0.0667
    7SAPS    HB  818   2.550   0.953  10.475  0.1331 -0.5338 -2.2790
    7SAPS    C2  819   2.440   0.871  10.304  0.2185 -0.0970 -0.1578
    7SAPS    HS  820   2.484   0.770  10.294  0.5842 -0.1401  1.6564
    7SAPS   O21  821   2.514   0.976  10.235 -0.7415  0.4195 -0.3804
    7SAPS   C21  822   2.647   0.955  10.245  0.0005 -0.7484 -0.5523
    7SAPS   O22  823   2.700   0.868  10.311 -0.2478 -0.6022  0.0991
    7SAPS   C22  824   2.724   1.065  10.165 -0.8319  0.3586  0.5236
    7SAPS   H2R  825   2.654   1.149  10.147  0.6974  1.4959 -0.3815
    7SAPS   H2S  826   2.792   1.109  10.241  2.4086  0.4659 -2.1956
    7SAPS    C3  827   2.294   0.861  10.249 -0.0061  0.1863 -0.2028
    7SAPS    HX  828   2.233   0.944  10.290 -1.2395 -0.4934 -0.6164
    7SAPS    HY  829   2.250   0.773  10.299  0.7807 -0.2108 -0.1843
    7SAPS   O31  830   2.286   0.843  10.108 -0.6963  0.1047 -0.2729
    7SAPS   C31  831   2.195   0.908  10.042 -0.2519 -0.9987 -0.3382
    7SAPS   O32  832   2.111   0.979  10.086  0.4651 -0.4548 -0.2004
    7SAPS   C32  833   2.219   0.879   9.894  0.6774  0.3932  0.5364
    7SAPS   H2X  834   2.226   0.769   9.884 -1.0736  0.3278 -0.2705
    7SAPS   H2Y  835   2.322   0.909   9.866  0.5578 -0.1404 -0.5226
    7SAPS   C23  836   2.807   1.010  10.038  0.4133  0.0469  0.2401
    7SAPS   H3R  837   2.848   0.907  10.054 -0.1752 -0.1609  0.4340
    7SAPS   H3S  838   2.887   1.085  10.020  0.6561 -0.0303  0.9512
    7SAPS   C24  839   2.719   1.010   9.914  0.2958  0.0867 -0.0295
    7SAPS   H4R  840   2.636   0.936   9.923 -1.4668  1.6981 -1.9613
    7SAPS   H4S  841   2.781   0.961   9.835  0.9698  0.0359  0.5196
    7SAPS   C25  842   2.654   1.137   9.875 -0.4409  1.1489 -0.4573
    7SAPS   H5R  843   2.650   1.216   9.952 -0.1344  0.5956  0.1407
    7SAPS   C26  844   2.595   1.156   9.753  0.6989  0.0997 -0.4221
    7SAPS   H6R  845   2.546   1.252   9.729  0.6747 -0.1752 -1.5446
    7SAPS   C27  846   2.581   1.063   9.635  0.0024 -0.2042 -0.0904
    7SAPS   H7R  847   2.476   1.080   9.603  0.1754 -1.8149 -1.6834
    7SAPS   H7S  848   2.616   0.961   9.664  2.3189  0.5263 -0.0790
    7SAPS   C28  849   2.674   1.121   9.537  0.4216  0.2728  0.2820
    7SAPS   H8R  850   2.760   1.176   9.577 -1.4658  0.4696  4.5296
    7SAPS   C29  851   2.650   1.117   9.403 -1.1088  0.0392  0.1648
    7SAPS   H9R  852   2.713   1.183   9.342 -1.2657  0.0931  0.0600
    7SAPS  C210  853   2.540   1.069   9.320 -0.3116  0.5885  0.1569
    7SAPS  H10R  854   2.483   1.158   9.285  1.1052  2.9430  3.3979
    7SAPS  H10S  855   2.476   0.997   9.376  1.0386 -1.9723 -1.4074
    7SAPS  C211  856   2.590   0.982   9.210  0.6298  0.1498  1.2736
    7SAPS  H11R  857   2.646   0.897   9.250  1.8788  1.0928  1.6025
    7SAPS  C212  858   2.573   0.998   9.078 -0.6784 -0.1100  0.4368
    7SAPS  H12R  859   2.630   0.934   9.008  0.6824  2.6844 -1.1491
    7SAPS  C213  860   2.500   1.111   9.013  0.5146  0.1683  0.9780
    7SAPS  H13R  861   2.565   1.148   8.931 -1.3075  0.6782 -0.2967
    7SAPS  H13S  862   2.495   1.193   9.089  2.4167  1.6505 -0.3840
    7SAPS  C214  863   2.365   1.082   8.960 -0.7826 -0.3256  0.5093
    7SAPS  H14R  864   2.295   1.124   9.034  1.0584 -0.6415  2.5543
    7SAPS  C215  865   2.323   1.003   8.854  0.2361  0.2695  0.0455
    7SAPS  H15R  866   2.217   1.010   8.825  0.1765 -0.3290  0.0934
    7SAPS  C216  867   2.406   0.917   8.759 -0.2686 -0.1058 -0.6035
    7SAPS  H16R  868   2.394   0.807   8.771  0.9522 -0.2280 -0.3885
    7SAPS  H16S  869   2.512   0.944   8.774 -0.5450  0.7498 -0.1032
    7SAPS  C217  870   2.356   0.954   8.619  0.5192  0.2162 -0.8371
    7SAPS  H17R  871   2.249   0.933   8.599  0.2926  0.7369 -0.2117
    7SAPS  H17S  872   2.411   0.885   8.551  2.2131  0.3504  0.3204
    7SAPS  C218  873   2.404   1.093   8.576 -0.7922  0.3422  0.1311
    7SAPS  H18R  874   2.512   1.100   8.603 -1.2281 -0.7694  2.4105
    7SAPS  H18S  875   2.351   1.174   8.631 -0.5693 -0.4344  1.5202
    7SAPS  C219  876   2.385   1.126   8.426  0.1286 -0.0815  0.5320
    7SAPS  H19R  877   2.278   1.106   8.403 -0.1459  1.2237  0.5868
    7SAPS  H19S  878   2.438   1.059   8.355 -0.7001 -2.8713  2.3881
    7SAPS  C220  879   2.436   1.254   8.380  0.2973 -0.7366 -0.1599
    7SAPS  H20R  880   2.512   1.296   8.449 -0.4589  2.3864 -1.0866
    7SAPS  H20S  881   2.344   1.316   8.377  1.2613  0.9946  2.5345
    7SAPS  H20T  882   2.480   1.266   8.278  1.1078  0.7632  0.3364
    7SAPS   C33  883   2.111   0.935   9.794 -0.3549  0.3191 -0.0136
    7SAPS   H3X  884   2.127   1.044   9.781  0.2928  0.4137  1.3304
    7SAPS   H3Y  885   2.008   0.933   9.836 -0.7152  2.1308 -0.7119
    7SAPS   C34  886   2.120   0.861   9.666 -0.5323 -0.2503  0.2121
    7SAPS   H4X  887   2.043   0.909   9.602 -1.0570 -0.0049  1.0064
    7SAPS   H4Y  888   2.093   0.754   9.680 -0.4616 -0.4131 -0.8108
    7SAPS   C35  889   2.252   0.860   9.600  0.0766  1.0004  0.4312
    7SAPS   H5X  890   2.317   0.796   9.664 -0.3753  0.7392  0.6335
    7SAPS   H5Y  891   2.314   0.951   9.611 -1.6735  2.2822  0.0657
    7SAPS   C36  892   2.244   0.809   9.453  1.1785 -0.0914 -0.6533
    7SAPS   H6X  893   2.196   0.709   9.448  2.2600 -0.6086 -0.9806
    7SAPS   H6Y  894   2.344   0.796   9.408  1.3045 -2.2432  0.1309
    7SAPS   C37  895   2.173   0.911   9.356  0.0552 -0.8872 -0.9492
    7SAPS   H7X  896   2.246   0.991   9.332  1.1878 -0.7660  2.3837
    7SAPS   H7Y  897   2.084   0.966   9.395  1.3574  1.3905 -1.0316
    7SAPS   C38  898   2.134   0.841   9.226  0.0210 -0.4606 -0.3513
    7SAPS   H8X  899   2.084   0.743   9.239 -1.5573 -0.0008 -2.3869
    7SAPS   H8Y  900   2.226   0.802   9.177  0.6061  0.5376 -0.0882
    7SAPS   C39  901   2.049   0.927   9.133  0.5732  0.2241 -0.3217
    7SAPS   H9X  902   2.115   0.994   9.073 -0.5586  0.0425 -1.8221
    7SAPS   H9Y  903   1.978   0.985   9.197 -0.0782 -3.0535  2.1893
    7SAPS  C310  904   1.966   0.843   9.039 -0.3325  0.9058  0.1376
    7SAPS  H10X  905   1.903   0.912   8.979 -2.0254 -0.0162  0.8069
    7SAPS  H10Y  906   1.897   0.778   9.096  0.6740  1.8314  2.5483
    7SAPS  C311  907   2.059   0.755   8.943 -0.2274  0.9517 -0.0757
    7SAPS  H11X  908   2.121   0.681   8.997 -1.9347  0.1497  0.8698
    7SAPS  H11Y  909   2.126   0.831   8.899  2.1137  0.6906  2.7149
    7SAPS  C312  910   1.961   0.677   8.851  0.1035 -0.2567 -0.4672
    7SAPS  H12X  911   1.877   0.740   8.814  2.3860  2.7003 -1.0410
    7SAPS  H12Y  912   1.931   0.590   8.913  1.4689  0.8728  1.9034
    7SAPS  C313  913   2.037   0.634   8.727 -0.1411  0.2698 -0.6296
    7SAPS  H13X  914   2.097   0.721   8.694  1.2786  0.1869  1.4813
    7SAPS  H13Y  915   1.961   0.592   8.657 -1.6639 -0.9661  1.6064
    7SAPS  C314  916   2.145   0.518   8.752  0.2035 -0.3531 -0.5410
    7SAPS  H14X  917   2.098   0.439   8.814  0.2470 -0.1430 -0.2413
    7SAPS  H14Y  918   2.229   0.559   8.812 -0.4231 -3.3237  2.6619
    7SAPS  C315  919   2.195   0.476   8.614 -0.1518 -0.9640 -0.1291
    7SAPS  H15X  920   2.289   0.416   8.616  1.6226  1.5984 -1.0450
    7SAPS  H15Y  921   2.224   0.565   8.555  1.6313 -1.0620  0.5207
    7SAPS  C316  922   2.089   0.397   8.548  0.1976 -0.1460  0.0762
    7SAPS  H16X  923   2.022   0.467   8.493  1.3834  1.9091  1.1367
    7SAPS  H16Y  924   2.017   0.350   8.618 -0.2425  1.1698  0.5454
    7SAPS  C317  925   2.139   0.298   8.442 -0.2010  0.4984  0.6123
    7SAPS  H17X  926   2.201   0.343   8.362 -3.8111  0.8536 -2.2879
    7SAPS  H17Y  927   2.045   0.276   8.387  1.2988  1.2117 -2.4675
    7SAPS  C318  928   2.209   0.167   8.489 -0.0670  0.1791  0.0797
    7SAPS  H18X  929   2.163   0.144   8.588  0.4752  1.8063  0.7440
    7SAPS  H18Y  930   2.315   0.188   8.517  0.0805  0.2208 -0.4956
    7SAPS  H18Z  931   2.199   0.090   8.411 -2.9380  0.6268 -0.0970
    8SAPS     N  932   5.732   1.148  11.157  0.2220  0.4800  0.9456
    8SAPS   HN1  933   5.807   1.172  11.090 -0.6934 -0.6967 -0.5575
    8SAPS   HN2  934   5.663   1.090  11.105  1.4636  0.2972 -0.5418
    8SAPS   HN3  935   5.691   1.236  11.194  0.3652  1.7803 -1.7534
    8SAPS   C12  936   5.796   1.067  11.255 -0.1036 -0.3157  0.2246
    8SAPS  H12A  937   5.889   1.118  11.274  0.0405 -0.6745  0.4961
    8SAPS   C13  938   5.726   1.045  11.395  0.4214  0.5336  0.4715
    8SAPS  O13A  939   5.600   1.074  11.410  0.1320 -0.4097  0.2845
    8SAPS  O13B  940   5.782   0.971  11.477 -0.0368 -0.1837  0.0321
    8SAPS   C11  941   5.818   0.924  11.194  0.3144 -0.1121 -0.1428
    8SAPS  H11A  942   5.723   0.892  11.148  0.1702  0.4151 -0.2173
    8SAPS  H11B  943   5.833   0.842  11.268 -1.1834 -0.0270  0.2906
    8SAPS     P  944   5.998   0.793  11.060  0.4215 -0.0842 -0.2302
    8SAPS   O13  945   6.120   0.789  11.135  0.5254 -0.1442 -0.6009
    8SAPS   O14  946   5.908   0.675  11.060  0.7803 -0.0711 -0.3165
    8SAPS   O12  947   5.920   0.926  11.095 -0.1160  0.7364  0.1043
    8SAPS   O11  948   6.033   0.805  10.904  0.3786  0.0511  0.6856
    8SAPS    C1  949   5.930   0.837  10.811 -0.5110  0.3390  0.5911
    8SAPS    HA  950   5.882   0.743  10.778  0.6113  0.1418 -0.5289
    8SAPS    HB  951   5.850   0.905  10.848 -0.7773  0.0814  0.4962
    8SAPS    C2  952   5.984   0.906  10.688 -0.3445  0.3045  0.4605
    8SAPS    HS  953   5.905   0.909  10.610 -0.4213 -1.6262  0.4163
    8SAPS   O21  954   6.103   0.845  10.642  0.7325 -0.0360  0.3051
    8SAPS   C21  955   6.101   0.729  10.574 -0.0831  0.0272 -0.1162
    8SAPS   O22  956   6.000   0.680  10.536  0.9560  0.3652 -0.1195
    8SAPS   C22  957   6.248   0.677  10.569 -0.1894 -0.3836 -0.3434
    8SAPS   H2R  958   6.302   0.760  10.520 -3.0407  0.9241 -1.4979
    8SAPS   H2S  959   6.288   0.675  10.673  2.1662  1.9213 -1.1063
    8SAPS    C3  960   6.021   1.054  10.728  0.3925  0.7692  0.4232
    8SAPS    HX  961   6.102   1.046  10.805  0.4593  2.6627  0.5987
    8SAPS    HY  962   5.943   1.102  10.790  2.0402  0.5707  2.8147
    8SAPS   O31  963   6.061   1.126  10.610  0.6398 -0.2754 -0.5438
    8SAPS   C31  964   5.952   1.178  10.545 -0.9796 -0.3477 -1.0072
    8SAPS   O32  965   5.842   1.187  10.598 -0.2378  0.0820 -0.2863
    8SAPS   C32  966   5.990   1.222  10.402 -0.2157  0.3914  0.1240
    8SAPS   H2X  967   6.081   1.170  10.364 -0.8197 -0.0943 -0.6839
    8SAPS   H2Y  968   6.033   1.323  10.418  1.2789 -0.3860  1.3189
    8SAPS   C23  969   6.249   0.537  10.504 -0.2047  0.6696  0.2402
    8SAPS   H3R  970   6.178   0.468  10.553  0.1786  0.2659  0.2355
    8SAPS   H3S  971   6.351   0.497  10.521 -0.5922 -0.5139 -0.1203
    8SAPS   C24  972   6.215   0.540  10.354  0.1386 -0.5219 -0.7976
    8SAPS   H4R  973   6.106   0.556  10.341  0.1162  1.0486  0.9487
    8SAPS   H4S  974   6.225   0.438  10.311 -0.8566 -0.5436 -0.9974
    8SAPS   C25  975   6.308   0.622  10.273 -0.2999  0.3077 -0.2653
    8SAPS   H5R  976   6.412   0.595  10.298 -1.6963 -2.5341  3.3297
    8SAPS   C26  977   6.270   0.706  10.180  0.5337 -0.5939  1.1017
    8SAPS   H6R  978   6.345   0.753  10.115  0.0817  0.9067  1.6339
    8SAPS   C27  979   6.124   0.732  10.140 -0.5769  0.8271 -0.2137
    8SAPS   H7R  980   6.065   0.735  10.234 -0.5210 -2.4453  0.0504
    8SAPS   H7S  981   6.101   0.645  10.075  0.0347  1.9565 -2.0083
    8SAPS   C28  982   6.095   0.857  10.064  0.4741  0.5684 -0.1679
    8SAPS   H8R  983   6.059   0.932  10.135  1.5506  1.5169 -0.5957
    8SAPS   C29  984   6.090   0.873   9.938 -0.4121 -0.0368 -0.2052
    8SAPS   H9R  985   6.054   0.968   9.897  0.1350 -1.0307 -3.2387
    8SAPS  C210  986   6.112   0.766   9.834  1.0833 -0.4918 -0.3635
    8SAPS  H10R  987   6.192   0.693   9.859  0.7490 -0.6356  0.3042
    8SAPS  H10S  988   6.149   0.836   9.755  0.9860 -0.8908 -0.7666
    8SAPS  C211  989   5.985   0.695   9.793 -0.1817  0.5967 -0.2722
    8SAPS  H11R  990   5.977   0.598   9.844  3.0619  2.0126  3.4547
    8SAPS  C212  991   5.884   0.735   9.714  0.1805  0.1239  0.3978
    8SAPS  H12R  992   5.801   0.666   9.692  2.0555 -2.0129 -0.2546
    8SAPS  C213  993   5.860   0.870   9.659  0.2374 -0.0766 -0.0514
    8SAPS  H13R  994   5.934   0.897   9.581  0.1178 -2.0391 -0.8923
    8SAPS  H13S  995   5.862   0.944   9.742 -0.2846 -1.1991  0.9989
    8SAPS  C214  996   5.722   0.879   9.601  0.6811  0.0787  0.0242
    8SAPS  H14R  997   5.641   0.871   9.674 -0.5390 -1.5830 -1.4395
    8SAPS  C215  998   5.699   0.892   9.469 -0.1355 -0.3456 -0.0540
    8SAPS  H15R  999   5.598   0.885   9.427  0.1130  0.8904 -0.8990
    8SAPS  C216 1000   5.806   0.896   9.363  0.2486 -0.6109  0.5622
    8SAPS  H16R 1001   5.890   0.832   9.396  1.1220  0.3225  0.1931
    8SAPS  H16S 1002   5.838   1.000   9.342 -1.1712 -0.2213  0.2292
    8SAPS  C217 1003   5.775   0.822   9.229  0.3184  0.6718 -0.5331
    8SAPS  H17R 1004   5.751   0.715   9.245  0.7368  0.8932  2.1095
    8SAPS  H17S 1005   5.867   0.815   9.168  0.1018 -1.7327 -0.6825
    8SAPS  C218 1006   5.667   0.895   9.143  0.1394  0.2528 -0.5028
    8SAPS  H18R 1007   5.593   0.934   9.217 -0.8838 -1.2670 -0.6760
    8SAPS  H18S 1008   5.612   0.827   9.075  2.1135 -0.7802 -1.1257
    8SAPS  C219 1009   5.724   1.018   9.062 -0.4635  0.1002 -0.2755
    8SAPS  H19R 1010   5.803   1.058   9.129 -1.9003 -2.4634  3.2486
    8SAPS  H19S 1011   5.649   1.100   9.052  0.9153  1.5046  0.4556
    8SAPS  C220 1012   5.776   0.984   8.925  0.1451  0.7371  0.7281
    8SAPS  H20R 1013   5.697   0.925   8.875 -0.4642  0.0689  2.4217
    8SAPS  H20S 1014   5.864   0.917   8.936 -1.1546 -1.2184 -0.4039
    8SAPS  H20T 1015   5.796   1.069   8.856 -0.8795 -0.5600 -1.2223
    8SAPS   C33 1016   5.879   1.213  10.295  0.4370  0.0974  0.8455
    8SAPS   H3X 1017   5.782   1.264  10.312 -0.3131 -1.2934  0.8064
    8SAPS   H3Y 1018   5.854   1.109  10.267  1.0139 -0.1561  1.2628
    8SAPS   C34 1019   5.932   1.284  10.168  0.6793 -0.1423  0.1733
    8SAPS   H4X 1020   6.039   1.259  10.150  0.3322  0.2343 -2.9409
    8SAPS   H4Y 1021   5.939   1.395  10.168  0.5689 -0.1019 -1.5510
    8SAPS   C35 1022   5.857   1.243  10.036 -0.5118 -0.1986 -0.5860
    8SAPS   H5X 1023   5.752   1.278  10.036 -0.2712  0.5534 -1.1786
    8SAPS   H5Y 1024   5.847   1.133  10.030 -0.5024 -0.3320  1.2485
    8SAPS   C36 1025   5.917   1.310   9.908  0.0662 -0.4203  0.0066
    8SAPS   H6X 1026   6.028   1.308   9.902  0.0143 -0.7529 -1.0394
    8SAPS   H6Y 1027   5.910   1.421   9.915  0.3792 -0.4442  0.9478
    8SAPS   C37 1028   5.852   1.250   9.785 -0.3735  0.3630 -0.2345
    8SAPS   H7X 1029   5.742   1.258   9.783 -0.7989 -3.8630 -1.6440
    8SAPS   H7Y 1030   5.882   1.146   9.760 -0.7483  0.3096 -0.4695
    8SAPS   C38 1031   5.904   1.316   9.662  0.5816 -0.1119  0.7225
    8SAPS   H8X 1032   6.014   1.306   9.653  0.5482 -1.5768  1.5293
    8SAPS   H8Y 1033   5.867   1.420   9.672 -1.5914 -0.8305  0.7036
    8SAPS   C39 1034   5.837   1.259   9.530 -0.3155  0.2545 -0.1949
    8SAPS   H9X 1035   5.726   1.255   9.534 -0.2828 -2.0269  0.1047
    8SAPS   H9Y 1036   5.873   1.154   9.522  0.0639  0.0368  2.9825
    8SAPS  C310 1037   5.872   1.329   9.396 -0.4492  0.5242 -0.4043
    8SAPS  H10X 1038   5.950   1.272   9.341 -1.4818 -1.4116  0.0438
    8SAPS  H10Y 1039   5.926   1.424   9.419  0.2535  0.3716 -1.3633
    8SAPS  C311 1040   5.749   1.379   9.321  0.5011  0.2095 -0.0134
    8SAPS  H11X 1041   5.698   1.448   9.391 -3.8685 -1.6715 -1.0216
    8SAPS  H11Y 1042   5.682   1.291   9.306  0.0110  0.9042 -2.1864
    8SAPS  C312 1043   5.776   1.446   9.187  0.2395 -0.3708  0.2914
    8SAPS  H12X 1044   5.822   1.367   9.124  2.2432 -0.5675  1.9207
    8SAPS  H12Y 1045   5.839   1.537   9.191 -2.0363  1.2968  0.2876
    8SAPS  C313 1046   5.636   1.480   9.133  0.3433 -0.3992  0.8955
    8SAPS  H13X 1047   5.595   1.553   9.206 -2.0276 -1.1818  0.4563
    8SAPS  H13Y 1048   5.583   1.383   9.134 -2.1344  0.8154 -0.5303
    8SAPS  C314 1049   5.641   1.538   8.990 -0.0486 -0.3228  0.2789
    8SAPS  H14X 1050   5.718   1.618   8.987  0.8578 -1.0740  2.2970
    8SAPS  H14Y 1051   5.541   1.586   8.982  0.0313  0.0103  1.1921
    8SAPS  C315 1052   5.675   1.427   8.886  0.3024  0.4071  0.5048
    8SAPS  H15X 1053   5.596   1.350   8.894  1.0016 -0.2296  1.4613
    8SAPS  H15Y 1054   5.775   1.384   8.909 -1.2688 -2.3970  2.7262
    8SAPS  C316 1055   5.695   1.479   8.741 -0.5354 -0.2167  0.5196
    8SAPS  H16X 1056   5.593   1.512   8.712  0.3472  2.0615 -0.1704
    8SAPS  H16Y 1057   5.720   1.400   8.667 -0.6780  1.3842 -1.3131
    8SAPS  C317 1058   5.804   1.584   8.736 -0.0986 -0.6198 -0.3693
    8SAPS  H17X 1059   5.893   1.533   8.780 -0.8907 -0.3283  1.6918
    8SAPS  H17Y 1060   5.776   1.675   8.792 -0.1003 -0.4396 -0.6631
    8SAPS  C318 1061   5.832   1.623   8.586  0.4645  0.8174  0.2691
    8SAPS  H18X 1062   5.913   1.699   8.591  0.6183  0.6863 -0.2387
    8SAPS  H18Y 1063   5.737   1.667   8.548 -1.0492 -0.8618  1.9248
    8SAPS  H18Z 1064   5.859   1.540   8.517 -1.1559  0.0679  0.4881
    9SAPS     N 1065   1.175   4.427   6.100 -0.1393 -0.1003 -0.3241
    9SAPS   HN1 1066   1.166   4.325   6.114  0.8310 -0.1119  0.2937
    9SAPS   HN2 1067   1.103   4.471   6.161  1.1161  0.2273  0.9731
    9SAPS   HN3 1068   1.153   4.442   6.000 -0.3071 -0.5447 -0.3548
    9SAPS   C12 1069   1.307   4.486   6.131 -0.2589 -0.1055  0.6626
    9SAPS  H12A 1070   1.379   4.413   6.098 -0.4833 -0.1484  0.2680
    9SAPS   C13 1071   1.321   4.618   6.047  0.7893  0.3133  0.4773
    9SAPS  O13A 1072   1.231   4.652   5.958 -0.5484 -0.2634  0.3425
    9SAPS  O13B 1073   1.428   4.673   6.045 -0.0261 -0.4337 -0.2239
    9SAPS   C11 1074   1.324   4.517   6.279  0.7196 -0.1364  0.6507
    9SAPS  H11A 1075   1.428   4.555   6.279  0.1675  1.4557  0.3705
    9SAPS  H11B 1076   1.314   4.425   6.341 -1.2767 -0.2832  0.2084
    9SAPS     P 1077   1.099   4.611   6.383 -0.0767  0.1936  0.1928
    9SAPS   O13 1078   1.033   4.737   6.412  0.7222  0.5470 -0.9454
    9SAPS   O14 1079   1.028   4.530   6.281 -0.4734  0.1980  0.1254
    9SAPS   O12 1080   1.252   4.630   6.336  0.0834  0.0403  0.1515
    9SAPS   O11 1081   1.106   4.526   6.523 -0.2380 -0.3304  0.1719
    9SAPS    C1 1082   1.189   4.569   6.634  0.9429 -0.9797  0.1487
    9SAPS    HA 1083   1.210   4.480   6.697 -2.2149 -1.6288  0.4456
    9SAPS    HB 1084   1.288   4.604   6.599 -0.2951  1.4032 -1.2886
    9SAPS    C2 1085   1.112   4.676   6.722 -0.2526 -0.0564  0.9314
    9SAPS    HS 1086   1.092   4.760   6.652  1.8276  0.2922  0.6961
    9SAPS   O21 1087   1.189   4.726   6.835 -0.2738  0.2218 -0.2523
    9SAPS   C21 1088   1.280   4.805   6.804 -0.2308  0.3673 -0.2400
    9SAPS   O22 1089   1.312   4.838   6.690 -0.7294  0.1632 -0.0399
    9SAPS   C22 1090   1.348   4.856   6.928 -0.0646 -0.1688 -0.7724
    9SAPS   H2R 1091   1.270   4.898   6.994  0.2144  0.0348 -0.5716
    9SAPS   H2S 1092   1.399   4.769   6.975  3.6890  1.5618 -1.2575
    9SAPS    C3 1093   0.981   4.619   6.777  0.3044  0.1182  0.0624
    9SAPS    HX 1094   0.993   4.515   6.812  1.5478  0.4214  0.5846
    9SAPS    HY 1095   0.905   4.612   6.696 -0.8151  3.0899  0.7297
    9SAPS   O31 1096   0.926   4.686   6.893 -0.4276  0.0441  0.0978
    9SAPS   C31 1097   0.887   4.817   6.881 -0.1672 -0.6884  0.1772
    9SAPS   O32 1098   0.864   4.867   6.771 -0.1919 -0.6141 -0.4514
    9SAPS   C32 1099   0.858   4.880   7.012 -0.1206  0.5876 -0.1364
    9SAPS   H2X 1100   0.803   4.796   7.059 -0.3750 -0.1995 -1.7941
    9SAPS   H2Y 1101   0.810   4.981   7.012 -0.6284  0.3654  1.0442
    9SAPS   C23 1102   1.464   4.955   6.903  0.1351 -0.3231 -0.7812
    9SAPS   H3R 1103   1.428   5.042   6.843  0.7856  0.3097 -0.2638
    9SAPS   H3S 1104   1.533   4.898   6.838  0.3726 -3.9971  2.3661
    9SAPS   C24 1105   1.557   4.988   7.020 -0.5897 -0.5481 -0.6152
    9SAPS   H4R 1106   1.487   5.012   7.103 -2.7101 -2.0806 -1.8617
    9SAPS   H4S 1107   1.615   5.078   6.994 -0.4919 -0.8424 -1.4293
    9SAPS   C25 1108   1.648   4.880   7.059  1.2555  1.0505 -0.4926
    9SAPS   H5R 1109   1.710   4.837   6.979 -0.6350 -0.6184 -1.1230
    9SAPS   C26 1110   1.663   4.831   7.184  0.0515 -0.2116 -0.4798
    9SAPS   H6R 1111   1.741   4.754   7.188 -0.7801 -0.9906  1.8306
    9SAPS   C27 1112   1.592   4.885   7.309  0.1470  0.1015  0.1083
    9SAPS   H7R 1113   1.570   4.795   7.371  1.2630 -1.0658 -1.1072
    9SAPS   H7S 1114   1.494   4.927   7.279  1.3697  1.3204 -2.5233
    9SAPS   C28 1115   1.673   4.994   7.388  0.0079  0.9918 -0.7988
    9SAPS   H8R 1116   1.670   5.096   7.347 -1.8829  1.6742  0.8737
    9SAPS   C29 1117   1.724   4.986   7.513  0.0439 -0.0758  0.6596
    9SAPS   H9R 1118   1.775   5.080   7.537 -0.1080  0.7285 -1.8508
    9SAPS  C210 1119   1.724   4.876   7.618  0.2357  0.2180 -0.3327
    9SAPS  H10R 1120   1.678   4.786   7.571 -0.1145  0.9921 -1.5288
    9SAPS  H10S 1121   1.660   4.900   7.705  2.6943 -2.3664  2.3938
    9SAPS  C211 1122   1.863   4.835   7.659  0.0347 -0.0957  0.1880
    9SAPS  H11R 1123   1.948   4.883   7.608 -1.3962  0.0654 -2.1829
    9SAPS  C212 1124   1.896   4.751   7.762 -0.8875  0.4899 -0.0865
    9SAPS  H12R 1125   2.002   4.738   7.790 -0.9314  2.5171  1.2499
    9SAPS  C213 1126   1.804   4.671   7.858  0.6461  0.0733  0.3229
    9SAPS  H13R 1127   1.847   4.571   7.876  0.1311 -0.2654 -0.2785
    9SAPS  H13S 1128   1.704   4.661   7.810 -0.4502  1.6102  2.1557
    9SAPS  C214 1129   1.791   4.734   7.995 -0.3763  0.4770 -0.0275
    9SAPS  H14R 1130   1.757   4.838   7.996  1.3009  1.0777 -1.6252
    9SAPS  C215 1131   1.838   4.694   8.113  0.1883 -0.3958  0.8371
    9SAPS  H15R 1132   1.810   4.761   8.195 -0.9814 -0.8698  0.8497
    9SAPS  C216 1133   1.917   4.568   8.148 -0.2623 -0.2640  0.2506
    9SAPS  H16R 1134   2.017   4.565   8.101 -0.5661 -1.0544 -0.3650
    9SAPS  H16S 1135   1.859   4.481   8.110  0.3563 -0.2094 -0.8660
    9SAPS  C217 1136   1.928   4.541   8.299 -0.2058 -0.5618  0.8046
    9SAPS  H17R 1137   1.975   4.443   8.325  0.0328 -0.5627  0.3664
    9SAPS  H17S 1138   1.828   4.535   8.348  1.3758 -0.8834  4.3405
    9SAPS  C218 1139   2.024   4.639   8.380 -0.5640  0.1268 -0.5222
    9SAPS  H18R 1140   2.008   4.745   8.350 -0.8893  0.7513  1.6955
    9SAPS  H18S 1141   2.131   4.623   8.357 -0.0293  1.5321  0.7618
    9SAPS  C219 1142   2.019   4.619   8.531 -0.9555 -0.2789 -0.9377
    9SAPS  H19R 1143   2.049   4.519   8.568  0.0119  0.5132  0.5066
    9SAPS  H19S 1144   1.914   4.640   8.559 -0.5411  0.5627  0.0308
    9SAPS  C220 1145   2.107   4.734   8.592  0.8187  0.3751  0.3603
    9SAPS  H20R 1146   2.048   4.827   8.578 -2.4954 -1.9972 -3.7801
    9SAPS  H20S 1147   2.209   4.736   8.547  0.4924 -2.3268 -0.6798
    9SAPS  H20T 1148   2.123   4.719   8.701 -1.7890  1.1570  0.9212
    9SAPS   C33 1149   0.996   4.891   7.092 -0.2050  0.3227  0.5920
    9SAPS   H3X 1150   1.062   4.958   7.032 -0.0877 -0.5032 -0.2188
    9SAPS   H3Y 1151   1.058   4.799   7.095  1.2353  1.1829 -0.7715
    9SAPS   C34 1152   0.999   4.961   7.226  0.7378 -0.1435 -0.2786
    9SAPS   H4X 1153   0.964   4.898   7.310  0.7147 -0.6581 -0.6689
    9SAPS   H4Y 1154   0.945   5.058   7.224  0.6183 -0.1440  1.7624
    9SAPS   C35 1155   1.146   5.003   7.247 -0.2764  0.1386 -0.2190
    9SAPS   H5X 1156   1.183   5.077   7.173  2.2167  0.2503  1.0398
    9SAPS   H5Y 1157   1.212   4.914   7.233 -1.2077 -0.6280  0.1533
    9SAPS   C36 1158   1.181   5.059   7.391 -0.1261 -0.1122 -0.8417
    9SAPS   H6X 1159   1.092   5.095   7.448 -0.0685 -1.0021 -0.1757
    9SAPS   H6Y 1160   1.250   5.144   7.373  2.1193 -1.1238  2.2616
    9SAPS   C37 1161   1.266   4.967   7.479  0.2388  0.4386 -0.5167
    9SAPS   H7X 1162   1.368   4.952   7.438 -0.4811 -1.0205 -1.8726
    9SAPS   H7Y 1163   1.212   4.870   7.468 -1.5969  1.3323  0.2307
    9SAPS   C38 1164   1.263   5.030   7.621  0.1274 -0.0103  0.1450
    9SAPS   H8X 1165   1.289   4.948   7.690  0.4438  0.2124  0.2939
    9SAPS   H8Y 1166   1.164   5.055   7.664  0.7284  0.5147  1.2671
    9SAPS   C39 1167   1.378   5.134   7.650  0.1039  0.6405 -0.3088
    9SAPS   H9X 1168   1.378   5.223   7.584  1.2184  0.7791 -0.1452
    9SAPS   H9Y 1169   1.479   5.088   7.654 -0.6217 -0.9456  2.0590
    9SAPS  C310 1170   1.347   5.202   7.783 -0.4024  0.0532 -0.2135
    9SAPS  H10X 1171   1.249   5.253   7.779  0.2749  1.3281 -2.3937
    9SAPS  H10Y 1172   1.424   5.277   7.814 -0.4957 -0.4831  1.4189
    9SAPS  C311 1173   1.335   5.116   7.912  0.9429 -0.4125  0.4175
    9SAPS  H11X 1174   1.242   5.056   7.901 -0.2132  0.8921  2.4414
    9SAPS  H11Y 1175   1.321   5.170   8.008  1.3900  0.1482  0.1709
    9SAPS  C312 1176   1.450   5.013   7.929  0.3315  0.9414 -0.4906
    9SAPS  H12X 1177   1.545   5.069   7.913 -1.4122  4.6945  1.0718
    9SAPS  H12Y 1178   1.438   4.933   7.853  2.5108  0.6683 -0.6091
    9SAPS  C313 1179   1.435   4.953   8.076 -0.2837 -0.6248 -0.1518
    9SAPS  H13X 1180   1.443   5.029   8.157 -1.9763 -1.1882  0.5723
    9SAPS  H13Y 1181   1.525   4.888   8.081  0.0895 -0.1944 -1.0081
    9SAPS  C314 1182   1.315   4.870   8.091 -0.7616  0.0496  0.5777
    9SAPS  H14X 1183   1.300   4.799   8.008 -2.2673 -1.2246  1.8630
    9SAPS  H14Y 1184   1.233   4.945   8.106  1.1438  2.0499  1.5603
    9SAPS  C315 1185   1.330   4.787   8.219  0.1105  0.3809  0.0701
    9SAPS  H15X 1186   1.318   4.849   8.311 -2.1783 -0.0003  0.0812
    9SAPS  H15Y 1187   1.421   4.723   8.221 -1.7338 -2.4430  3.0241
    9SAPS  C316 1188   1.218   4.685   8.230 -0.7120  0.8339 -0.0285
    9SAPS  H16X 1189   1.218   4.606   8.152 -1.8907 -0.7924  1.5530
    9SAPS  H16Y 1190   1.122   4.739   8.222 -1.1046  0.3225  1.1451
    9SAPS  C317 1191   1.231   4.612   8.367  0.6001 -0.4767 -0.0299
    9SAPS  H17X 1192   1.192   4.673   8.451 -1.2349 -1.8915  0.2001
    9SAPS  H17Y 1193   1.340   4.590   8.376  0.1911 -2.0590  1.3785
    9SAPS  C318 1194   1.158   4.476   8.369  0.7345 -0.4412 -0.5852
    9SAPS  H18X 1195   1.055   4.485   8.328  1.5080  2.2097 -2.1355
    9SAPS  H18Y 1196   1.151   4.443   8.475 -2.8171  1.1638 -0.1831
    9SAPS  H18Z 1197   1.210   4.397   8.311  0.3089 -0.4120 -1.0043
   10SAPS     N 1198   2.322   4.096   6.517 -0.2437 -0.3190  0.0925
   10SAPS   HN1 1199   2.422   4.089   6.546 -0.5797 -0.6546  1.2115
   10SAPS   HN2 1200   2.273   4.169   6.573  0.1458  0.9418 -1.1331
   10SAPS   HN3 1201   2.281   4.001   6.519  0.9005 -0.8756 -1.3430
   10SAPS   C12 1202   2.316   4.150   6.373 -0.0569 -0.3340  0.0785
   10SAPS  H12A 1203   2.388   4.088   6.322 -2.8449 -0.8790 -3.6413
   10SAPS   C13 1204   2.182   4.120   6.313  0.2197 -0.0865 -0.5371
   10SAPS  O13A 1205   2.079   4.087   6.377  0.0094  0.0201  0.2091
   10SAPS  O13B 1206   2.177   4.142   6.190  0.0881 -0.0499  0.2194
   10SAPS   C11 1207   2.367   4.303   6.361  0.2693  0.2638  0.3068
   10SAPS  H11A 1208   2.281   4.369   6.386 -1.0646 -0.6652 -1.6041
   10SAPS  H11B 1209   2.382   4.327   6.254 -1.3634 -1.7795 -0.4393
   10SAPS     P 1210   2.623   4.365   6.393 -0.0504  0.2510  0.0267
   10SAPS   O13 1211   2.659   4.271   6.281 -0.6298 -0.3190 -0.2777
   10SAPS   O14 1212   2.604   4.508   6.359  0.0944  0.2658  0.3037
   10SAPS   O12 1213   2.484   4.326   6.443  0.1065  0.5780  0.3897
   10SAPS   O11 1214   2.710   4.324   6.518 -0.4794 -0.1732  0.3084
   10SAPS    C1 1215   2.743   4.420   6.612  0.2622  0.2495  0.0627
   10SAPS    HA 1216   2.795   4.512   6.578  2.0619 -0.5612  0.4940
   10SAPS    HB 1217   2.648   4.454   6.659 -0.7613 -2.5801  0.2454
   10SAPS    C2 1218   2.834   4.353   6.723  0.6009 -0.2556 -0.0943
   10SAPS    HS 1219   2.935   4.347   6.677  0.9811 -1.0329  0.8154
   10SAPS   O21 1220   2.784   4.228   6.772  0.0544  0.2145  0.8013
   10SAPS   C21 1221   2.883   4.138   6.796 -0.1696  0.6195 -1.2055
   10SAPS   O22 1222   2.999   4.157   6.790 -0.1140 -0.5083  0.7083
   10SAPS   C22 1223   2.828   4.000   6.841  0.7171  0.8915  0.7925
   10SAPS   H2R 1224   2.721   3.988   6.814  1.1520  0.4881 -0.8646
   10SAPS   H2S 1225   2.887   3.921   6.790 -0.2961  0.3052  0.4851
   10SAPS    C3 1226   2.825   4.448   6.851 -0.0143 -0.0841  0.1010
   10SAPS    HX 1227   2.721   4.439   6.888  0.4849  0.7749  1.8697
   10SAPS    HY 1228   2.846   4.550   6.811 -0.7264  0.2741  0.6279
   10SAPS   O31 1229   2.921   4.422   6.957 -0.0139  0.1787 -0.1385
   10SAPS   C31 1230   3.042   4.449   6.928 -0.1004  1.0786 -0.6443
   10SAPS   O32 1231   3.090   4.491   6.824  0.1348  0.6948 -0.2043
   10SAPS   C32 1232   3.132   4.411   7.053 -0.4270 -0.4519 -0.1972
   10SAPS   H2X 1233   3.217   4.350   7.018  1.3185  1.1926  0.9616
   10SAPS   H2Y 1234   3.074   4.349   7.124  0.4443  0.2834  1.1948
   10SAPS   C23 1235   2.846   3.962   6.991 -0.2019 -0.1365 -0.8912
   10SAPS   H3R 1236   2.807   4.051   7.045 -1.9092 -1.2224 -0.2285
   10SAPS   H3S 1237   2.954   3.949   7.011 -0.4248  1.0820  1.3781
   10SAPS   C24 1238   2.769   3.841   7.050  0.3417 -0.1684  0.3900
   10SAPS   H4R 1239   2.663   3.862   7.023  1.6444  4.4329 -2.2706
   10SAPS   H4S 1240   2.771   3.822   7.159 -0.0141 -1.5324  0.1779
   10SAPS   C25 1241   2.807   3.721   6.976  0.4222 -0.4601  0.3908
   10SAPS   H5R 1242   2.749   3.712   6.883 -0.8802  0.0512  1.1223
   10SAPS   C26 1243   2.880   3.620   7.017 -0.2747 -0.0347 -0.4770
   10SAPS   H6R 1244   2.882   3.531   6.953  0.0595 -0.0831 -0.4039
   10SAPS   C27 1245   2.962   3.618   7.146 -0.1330 -0.5575  0.1421
   10SAPS   H7R 1246   2.973   3.717   7.194  0.2992 -0.6259  0.1866
   10SAPS   H7S 1247   3.065   3.582   7.126 -0.2977 -0.2017 -1.4698
   10SAPS   C28 1248   2.901   3.521   7.241  0.1226 -0.1247  0.1355
   10SAPS   H8R 1249   2.879   3.431   7.182  0.5755 -0.3918  0.3707
   10SAPS   C29 1250   2.867   3.532   7.372  0.2431  0.1095  0.0772
   10SAPS   H9R 1251   2.823   3.446   7.426 -0.5067  0.9082  0.7557
   10SAPS  C210 1252   2.891   3.651   7.466 -0.3376  0.7707 -0.7001
   10SAPS  H10R 1253   2.823   3.639   7.554  1.2997  0.1909  0.5416
   10SAPS  H10S 1254   2.859   3.739   7.407 -0.9871  0.8152 -0.3046
   10SAPS  C211 1255   3.041   3.668   7.517  0.6458 -0.1489  0.3745
   10SAPS  H11R 1256   3.104   3.703   7.433 -1.2619 -0.8043 -1.4030
   10SAPS  C212 1257   3.092   3.658   7.647  0.5611 -0.5954  1.3793
   10SAPS  H12R 1258   3.195   3.694   7.663 -0.5824  3.6422  0.4166
   10SAPS  C213 1259   3.013   3.639   7.774  0.5169  0.1386 -1.0931
   10SAPS  H13R 1260   3.086   3.629   7.858  0.2976  0.6582 -0.8389
   10SAPS  H13S 1261   2.968   3.537   7.768 -1.5472  0.7626  1.7712
   10SAPS  C214 1262   2.900   3.741   7.799  0.2546 -0.5958  0.4026
   10SAPS  H14R 1263   2.812   3.732   7.735  0.5857 -2.2266  0.1324
   10SAPS  C215 1264   2.894   3.842   7.895  0.3802 -0.5624  0.3618
   10SAPS  H15R 1265   2.800   3.898   7.898 -1.2311 -2.8987 -1.9926
   10SAPS  C216 1266   2.990   3.875   8.005  0.0598  0.0158  0.5083
   10SAPS  H16R 1267   3.066   3.950   7.972 -2.0071  2.4532  0.9323
   10SAPS  H16S 1268   3.044   3.786   8.043 -1.2450  0.3405  3.3756
   10SAPS  C217 1269   2.933   3.936   8.138  0.5393  0.0410 -0.4212
   10SAPS  H17R 1270   2.844   3.879   8.173 -1.0650  1.4109 -2.0463
   10SAPS  H17S 1271   2.886   4.036   8.127 -1.3387 -0.5142  1.8301
   10SAPS  C218 1272   3.049   3.949   8.231 -0.0544 -0.4747 -0.1832
   10SAPS  H18R 1273   3.124   4.019   8.188 -1.3371  0.0026 -1.7120
   10SAPS  H18S 1274   3.097   3.852   8.258  2.0894  0.7838  0.8340
   10SAPS  C219 1275   2.994   3.997   8.368  0.1052 -0.2792 -0.0845
   10SAPS  H19R 1276   2.922   3.922   8.408 -2.0305  1.4973 -0.3568
   10SAPS  H19S 1277   2.933   4.086   8.341  0.3427 -0.4359 -1.1922
   10SAPS  C220 1278   3.091   4.052   8.471  0.0600  0.1491  0.3673
   10SAPS  H20R 1279   3.163   4.116   8.415 -0.3912 -0.3311 -0.7974
   10SAPS  H20S 1280   3.140   3.963   8.516 -1.1557 -0.2203  1.0127
   10SAPS  H20T 1281   3.029   4.099   8.550 -0.8045  0.6766 -0.5939
   10SAPS   C33 1282   3.187   4.534   7.127 -0.0592  0.2939  0.2821
   10SAPS   H3X 1283   3.233   4.604   7.054  0.1868  0.2106  0.3584
   10SAPS   H3Y 1284   3.265   4.502   7.199 -1.3670 -0.2961  1.4784
   10SAPS   C34 1285   3.093   4.603   7.225 -0.2756  0.2421  0.5836
   10SAPS   H4X 1286   3.014   4.659   7.171 -0.3348 -1.5655 -1.3271
   10SAPS   H4Y 1287   3.150   4.689   7.268  0.4191  0.2586 -0.3239
   10SAPS   C35 1288   3.033   4.525   7.342 -0.0633 -0.9115 -1.1510
   10SAPS   H5X 1289   3.117   4.493   7.408 -1.5308  0.1405  1.3546
   10SAPS   H5Y 1290   2.967   4.441   7.311 -3.8111  1.4009 -0.0749
   10SAPS   C36 1291   2.958   4.615   7.440 -0.4358  0.2504  0.3102
   10SAPS   H6X 1292   2.866   4.628   7.379  0.3196 -0.0819 -0.9282
   10SAPS   H6Y 1293   3.017   4.708   7.452 -1.0264  0.7415 -0.5281
   10SAPS   C37 1294   2.938   4.545   7.575 -0.0631  0.3875 -0.6601
   10SAPS   H7X 1295   2.909   4.438   7.568 -0.0658  0.3597 -0.2620
   10SAPS   H7Y 1296   2.858   4.600   7.630  0.1744  2.5161 -2.2700
   10SAPS   C38 1297   3.062   4.548   7.664  0.7356 -0.4167 -0.0218
   10SAPS   H8X 1298   3.094   4.654   7.666  0.5501 -0.3700  1.8701
   10SAPS   H8Y 1299   3.149   4.495   7.618  2.2722  1.1931  0.9374
   10SAPS   C39 1300   3.041   4.506   7.811 -0.8649  0.2785  0.5302
   10SAPS   H9X 1301   2.998   4.404   7.810 -0.6001  0.1617  0.8336
   10SAPS   H9Y 1302   2.966   4.580   7.843  0.5049  2.3504 -0.7631
   10SAPS  C310 1303   3.170   4.502   7.893  1.1854  0.0780 -0.1562
   10SAPS  H10X 1304   3.225   4.599   7.891  0.1519  0.6601 -1.1368
   10SAPS  H10Y 1305   3.227   4.420   7.844  1.6018  0.4485 -0.2940
   10SAPS  C311 1306   3.134   4.452   8.035  0.2673  0.7038 -0.0599
   10SAPS  H11X 1307   3.223   4.403   8.081 -1.3927 -2.4452  0.0734
   10SAPS  H11Y 1308   3.052   4.377   8.039 -0.9764  1.9637 -1.1413
   10SAPS  C312 1309   3.113   4.564   8.140 -0.7270  0.0431  0.8478
   10SAPS  H12X 1310   3.095   4.658   8.084  0.5728  0.1705  0.6112
   10SAPS  H12Y 1311   3.200   4.601   8.198  0.3170  1.4089 -1.4755
   10SAPS  C313 1312   3.010   4.540   8.239 -0.1070 -0.0953  0.2544
   10SAPS  H13X 1313   3.001   4.433   8.270 -2.4015 -0.2376 -0.6819
   10SAPS  H13Y 1314   2.909   4.550   8.193 -0.2515  1.0626  0.7916
   10SAPS  C314 1315   3.030   4.626   8.366  0.0692  0.0248 -0.7170
   10SAPS  H14X 1316   3.040   4.733   8.336  0.8659 -0.4573 -2.3278
   10SAPS  H14Y 1317   3.124   4.597   8.416  0.2161  1.9491  0.2240
   10SAPS  C315 1318   2.912   4.629   8.469 -0.7256  0.5864  0.2773
   10SAPS  H15X 1319   2.889   4.531   8.516  1.0274  0.5760  1.1726
   10SAPS  H15Y 1320   2.823   4.641   8.404 -1.2359 -1.0957  0.6133
   10SAPS  C316 1321   2.913   4.741   8.563 -0.1829  0.3137  0.7878
   10SAPS  H16X 1322   2.813   4.740   8.611  0.6393 -2.3293  2.6457
   10SAPS  H16Y 1323   2.922   4.842   8.517  0.7767 -0.9741 -2.1058
   10SAPS  C317 1324   3.008   4.732   8.675  0.1996 -0.5254 -0.2205
   10SAPS  H17X 1325   3.109   4.765   8.642  0.4009  0.6345  1.4207
   10SAPS  H17Y 1326   3.024   4.632   8.719 -1.4306 -0.1772  1.2646
   10SAPS  C318 1327   2.967   4.820   8.789  0.6546 -0.2906  0.5084
   10SAPS  H18X 1328   2.877   4.774   8.836  0.5844 -0.6308  0.0534
   10SAPS  H18Y 1329   2.951   4.926   8.760 -0.4699 -0.9270 -1.3271
   10SAPS  H18Z 1330   3.045   4.815   8.868  2.4582 -2.7458 -1.2584
   11SAPS     N 1331   3.029   0.954   6.080 -0.4443 -0.2586 -0.0892
   11SAPS   HN1 1332   2.938   0.955   6.031  0.9743 -0.1920 -2.8869
   11SAPS   HN2 1333   3.024   0.872   6.144  0.8959  0.9143  1.6222
   11SAPS   HN3 1334   3.049   1.041   6.134  0.8479  0.6729 -1.9778
   11SAPS   C12 1335   3.149   0.928   5.992  0.3826  0.5544 -0.1378
   11SAPS  H12A 1336   3.237   0.912   6.053  0.2147 -0.5972 -0.1599
   11SAPS   C13 1337   3.139   0.801   5.908 -1.0237 -0.1197 -0.4276
   11SAPS  O13A 1338   3.023   0.750   5.894  0.1020 -0.2698 -0.5487
   11SAPS  O13B 1339   3.240   0.755   5.847  0.1734  0.6499 -0.4781
   11SAPS   C11 1340   3.172   1.054   5.912 -0.1996  0.0243 -0.4297
   11SAPS  H11A 1341   3.090   1.088   5.844  0.2750  1.1950 -0.4255
   11SAPS  H11B 1342   3.263   1.027   5.854  1.0458  0.9122  1.0604
   11SAPS     P 1343   3.270   1.293   5.938 -0.0788 -0.0405  0.0952
   11SAPS   O13 1344   3.416   1.280   5.954  0.7031  0.2085  0.4104
   11SAPS   O14 1345   3.213   1.323   5.805  0.4767 -0.4808  0.1269
   11SAPS   O12 1346   3.204   1.161   5.998 -0.2341 -0.1868 -0.1636
   11SAPS   O11 1347   3.221   1.409   6.031  0.3876  0.8531  0.0952
   11SAPS    C1 1348   3.113   1.413   6.122  0.1385  0.2167  0.4734
   11SAPS    HA 1349   3.033   1.483   6.087 -1.2707 -1.8222 -0.6574
   11SAPS    HB 1350   3.064   1.313   6.123  0.9466 -0.1854  1.8085
   11SAPS    C2 1351   3.163   1.447   6.263  0.2931 -0.0692  0.5467
   11SAPS    HS 1352   3.068   1.446   6.322  0.6719 -2.2722  1.2085
   11SAPS   O21 1353   3.242   1.569   6.264 -0.2521 -1.1907  0.0063
   11SAPS   C21 1354   3.166   1.677   6.273 -0.3059  0.5294  0.2533
   11SAPS   O22 1355   3.044   1.669   6.243 -0.3730 -0.6828 -1.1708
   11SAPS   C22 1356   3.240   1.808   6.316 -0.5403  0.1912 -0.3131
   11SAPS   H2R 1357   3.345   1.776   6.335  0.2406  2.5258 -0.3655
   11SAPS   H2S 1358   3.252   1.877   6.230  3.1514  0.0109 -0.1220
   11SAPS    C3 1359   3.268   1.343   6.315  0.0501 -0.3485  0.0127
   11SAPS    HX 1360   3.358   1.343   6.251 -0.1773  1.6900 -0.3904
   11SAPS    HY 1361   3.235   1.237   6.306  1.8739 -0.9880  0.5232
   11SAPS   O31 1362   3.316   1.370   6.449 -0.4682  0.3240 -0.3538
   11SAPS   C31 1363   3.222   1.349   6.545  0.2317 -0.4829  0.6452
   11SAPS   O32 1364   3.109   1.306   6.530  0.0164  0.4580  0.4370
   11SAPS   C32 1365   3.281   1.382   6.681  0.1812 -0.7899  0.4977
   11SAPS   H2X 1366   3.257   1.489   6.697  0.6123 -0.6852  0.4535
   11SAPS   H2Y 1367   3.391   1.368   6.675  0.1314 -0.8331 -0.6267
   11SAPS   C23 1368   3.174   1.870   6.434  0.2882  0.5474 -0.1474
   11SAPS   H3R 1369   3.067   1.876   6.407 -0.0256  3.2025  1.2959
   11SAPS   H3S 1370   3.213   1.974   6.442  2.0359  0.0067 -0.9781
   11SAPS   C24 1371   3.194   1.803   6.570 -0.1205 -0.1127  0.2687
   11SAPS   H4R 1372   3.131   1.712   6.571 -2.5684  1.4093 -2.0761
   11SAPS   H4S 1373   3.152   1.873   6.646 -0.4958  0.0162 -0.0555
   11SAPS   C25 1374   3.343   1.781   6.604 -0.1764 -0.6919 -0.8050
   11SAPS   H5R 1375   3.387   1.704   6.538  0.8623 -1.0113  0.2205
   11SAPS   C26 1376   3.416   1.822   6.708  0.6023 -0.6830 -1.0158
   11SAPS   H6R 1377   3.523   1.796   6.705  1.1936  1.5306 -1.2400
   11SAPS   C27 1378   3.373   1.898   6.836 -0.1202  0.2791 -0.1342
   11SAPS   H7R 1379   3.446   1.890   6.920  2.2997 -0.2054 -2.1680
   11SAPS   H7S 1380   3.281   1.847   6.871  0.4454 -1.7412 -1.4526
   11SAPS   C28 1381   3.327   2.041   6.802  0.0059 -0.1337  0.6039
   11SAPS   H8R 1382   3.291   2.049   6.699  2.0346  0.5153 -0.1104
   11SAPS   C29 1383   3.316   2.148   6.878 -0.7547 -0.3691 -0.9236
   11SAPS   H9R 1384   3.282   2.245   6.840  0.9838  0.8414  0.4426
   11SAPS  C210 1385   3.355   2.137   7.025 -0.0994 -0.6535  0.2402
   11SAPS  H10R 1386   3.466   2.144   7.024 -0.1565  1.4471  1.7441
   11SAPS  H10S 1387   3.336   2.033   7.057 -0.0432 -0.9179 -0.5682
   11SAPS  C211 1388   3.290   2.249   7.100  0.7418 -0.1445  0.6346
   11SAPS  H11R 1389   3.188   2.268   7.062  0.1117 -5.1479 -0.9832
   11SAPS  C212 1390   3.334   2.302   7.211 -1.2524 -0.1396 -0.9450
   11SAPS  H12R 1391   3.275   2.374   7.270  0.7912 -0.2532  1.3911
   11SAPS  C213 1392   3.463   2.272   7.290 -0.2670  0.0876 -0.5153
   11SAPS  H13R 1393   3.481   2.354   7.362 -1.7137 -1.7655  2.1085
   11SAPS  H13S 1394   3.550   2.264   7.221  0.7371 -2.0697  0.9065
   11SAPS  C214 1395   3.461   2.138   7.351  0.3332  0.4422 -0.1052
   11SAPS  H14R 1396   3.449   2.055   7.281  2.1923  0.9003 -1.0379
   11SAPS  C215 1397   3.484   2.119   7.483 -0.2389  0.4285  0.0952
   11SAPS  H15R 1398   3.487   2.015   7.520 -0.8626 -1.2335 -3.9771
   11SAPS  C216 1399   3.506   2.217   7.597 -0.1035  0.0543  0.3231
   11SAPS  H16R 1400   3.455   2.314   7.582  3.8043  2.2170 -0.4304
   11SAPS  H16S 1401   3.613   2.244   7.587  0.1745 -0.9476  0.5269
   11SAPS  C217 1402   3.482   2.188   7.752 -0.6104 -0.3551 -0.0314
   11SAPS  H17R 1403   3.518   2.085   7.773  0.1758 -0.0785 -0.0042
   11SAPS  H17S 1404   3.373   2.191   7.772 -1.0648 -1.9285 -1.9078
   11SAPS  C218 1405   3.550   2.296   7.854 -0.4021 -0.1897 -0.1349
   11SAPS  H18R 1406   3.528   2.400   7.822  0.5473  0.7578  2.0818
   11SAPS  H18S 1407   3.660   2.282   7.854 -0.1295  1.7343 -0.8675
   11SAPS  C219 1408   3.519   2.274   8.002 -0.0042 -0.2013 -0.1053
   11SAPS  H19R 1409   3.561   2.173   8.022 -0.0665 -0.3767 -0.8357
   11SAPS  H19S 1410   3.409   2.261   8.014  0.0009  0.0415  0.2326
   11SAPS  C220 1411   3.573   2.373   8.105  0.8427  0.0176  0.5757
   11SAPS  H20R 1412   3.684   2.383   8.100  0.5408  3.9134 -1.1518
   11SAPS  H20S 1413   3.528   2.353   8.205 -0.4432 -0.6953 -0.1328
   11SAPS  H20T 1414   3.552   2.479   8.083  0.7881 -0.3956 -1.5522
   11SAPS   C33 1415   3.214   1.305   6.802  0.0353  0.1830  0.0029
   11SAPS   H3X 1416   3.109   1.279   6.778 -0.6048  1.4377  1.3201
   11SAPS   H3Y 1417   3.200   1.379   6.883 -0.0301  1.4861 -1.1643
   11SAPS   C34 1418   3.287   1.183   6.850 -0.4402  0.1623  0.4810
   11SAPS   H4X 1419   3.387   1.217   6.884  1.6416 -2.0340 -2.7934
   11SAPS   H4Y 1420   3.308   1.110   6.769  1.5892  1.9949 -0.7547
   11SAPS   C35 1421   3.213   1.101   6.958 -0.3295  0.2690  0.3038
   11SAPS   H5X 1422   3.114   1.083   6.910  0.0404  2.2590 -1.3561
   11SAPS   H5Y 1423   3.209   1.161   7.051 -1.6535  0.0130  0.4251
   11SAPS   C36 1424   3.286   0.972   7.006  0.3593  0.3172  0.3034
   11SAPS   H6X 1425   3.384   1.001   7.049  1.4767 -1.6727 -0.7699
   11SAPS   H6Y 1426   3.310   0.908   6.918 -0.9173  2.6522 -1.9094
   11SAPS   C37 1427   3.187   0.888   7.084  0.3010 -0.1813 -0.4827
   11SAPS   H7X 1428   3.234   0.790   7.109 -1.5722 -0.3176  3.3022
   11SAPS   H7Y 1429   3.101   0.860   7.019  0.0485  0.1390 -0.2907
   11SAPS   C38 1430   3.146   0.949   7.216  0.0950 -0.1282  0.0027
   11SAPS   H8X 1431   3.086   1.040   7.198  1.8450  1.3363  1.1950
   11SAPS   H8Y 1432   3.230   0.986   7.278 -0.1625  1.4839 -0.5775
   11SAPS   C39 1433   3.056   0.852   7.303 -0.1530 -0.9612  0.1087
   11SAPS   H9X 1434   3.130   0.771   7.323  0.4766 -0.3071  0.4902
   11SAPS   H9Y 1435   2.976   0.798   7.248 -1.2040 -0.4578  1.1283
   11SAPS  C310 1436   2.994   0.907   7.432 -0.2781  0.3990  0.9049
   11SAPS  H10X 1437   2.919   0.982   7.400 -1.2122 -1.0173 -0.3581
   11SAPS  H10Y 1438   3.073   0.948   7.498 -2.1153  1.7638  2.3816
   11SAPS  C311 1439   2.905   0.810   7.506  0.0221 -0.0677 -0.2450
   11SAPS  H11X 1440   2.831   0.753   7.446 -1.3563  1.7974 -0.4038
   11SAPS  H11Y 1441   2.845   0.880   7.567 -0.0665  0.3922 -0.8515
   11SAPS  C312 1442   2.994   0.724   7.596  0.2722  0.2553  0.0716
   11SAPS  H12X 1443   3.032   0.794   7.674  0.4823  0.0547  0.1487
   11SAPS  H12Y 1444   3.079   0.670   7.550  3.7081  0.3477  5.4808
   11SAPS  C313 1445   2.930   0.598   7.665  1.3198 -0.1180  0.7601
   11SAPS  H13X 1446   2.873   0.544   7.587 -0.8544  1.1370  1.3772
   11SAPS  H13Y 1447   2.855   0.633   7.740  1.0942  0.1021  0.4345
   11SAPS  C314 1448   3.026   0.500   7.746 -0.6732 -0.5179  0.0135
   11SAPS  H14X 1449   3.112   0.474   7.681  1.0806  1.4438  1.4266
   11SAPS  H14Y 1450   2.970   0.409   7.775 -2.0276  0.3003  0.0890
   11SAPS  C315 1451   3.074   0.574   7.876  0.2520  0.1774 -0.4424
   11SAPS  H15X 1452   2.981   0.592   7.935  0.1290  0.4923 -0.7326
   11SAPS  H15Y 1453   3.116   0.673   7.849 -0.2393  0.5887  0.2719
   11SAPS  C316 1454   3.188   0.493   7.952  0.4770  0.3644 -0.1663
   11SAPS  H16X 1455   3.204   0.549   8.047 -4.4138  0.6569  0.7224
   11SAPS  H16Y 1456   3.284   0.498   7.895  1.5338 -0.1404  1.5116
   11SAPS  C317 1457   3.151   0.352   7.988 -0.1695 -0.4666  0.3730
   11SAPS  H17X 1458   3.249   0.312   8.020  0.4121  0.9867  0.4698
   11SAPS  H17Y 1459   3.113   0.289   7.905  1.3722  1.2503 -1.7355
   11SAPS  C318 1460   3.047   0.338   8.095 -0.4118  0.0404 -0.5715
   11SAPS  H18X 1461   3.091   0.373   8.191  2.1163 -2.5865 -0.6546
   11SAPS  H18Y 1462   3.015   0.233   8.111  2.0057 -0.7000 -0.1433
   11SAPS  H18Z 1463   2.952   0.389   8.066 -1.1713 -1.2269 -0.3647
   12SAPS     N 1464   2.735   3.161   6.175 -0.1310 -0.1261  0.0482
   12SAPS   HN1 1465   2.707   3.253   6.215 -0.2764 -1.8530  4.5219
   12SAPS   HN2 1466   2.679   3.087   6.222  0.0251  0.0079  0.4454
   12SAPS   HN3 1467   2.835   3.140   6.193 -0.7242 -2.8777  0.5275
   12SAPS   C12 1468   2.703   3.154   6.033  0.1919  0.4579 -0.6646
   12SAPS  H12A 1469   2.599   3.184   6.036  0.6706  2.1397  2.0108
   12SAPS   C13 1470   2.772   3.250   5.941 -0.3881 -0.0964  0.2404
   12SAPS  O13A 1471   2.860   3.330   5.980 -0.6537  0.0188 -0.2426
   12SAPS  O13B 1472   2.741   3.246   5.817  0.3015 -0.1977  0.6046
   12SAPS   C11 1473   2.719   3.010   5.983  0.4028  1.0789  0.0468
   12SAPS  H11A 1474   2.687   3.009   5.876  1.0814  2.8890 -0.2071
   12SAPS  H11B 1475   2.654   2.935   6.033 -0.0497  1.9619  0.8090
   12SAPS     P 1476   2.911   2.823   6.019  0.2502 -0.1631 -0.0053
   12SAPS   O13 1477   2.803   2.726   6.002 -0.4400  0.5015  0.0863
   12SAPS   O14 1478   3.032   2.794   5.941  0.0431  0.5379 -0.4905
   12SAPS   O12 1479   2.858   2.969   5.980  0.2289  0.0292 -0.7936
   12SAPS   O11 1480   2.946   2.838   6.170 -0.2333 -0.6903  0.7892
   12SAPS    C1 1481   3.066   2.774   6.210 -0.2917 -0.7196 -0.1977
   12SAPS    HA 1482   3.157   2.825   6.171 -0.4002 -2.2838 -2.7693
   12SAPS    HB 1483   3.073   2.787   6.320 -0.1452  1.2989 -0.4143
   12SAPS    C2 1484   3.086   2.620   6.190 -0.1849  0.2410 -0.8747
   12SAPS    HS 1485   3.054   2.586   6.089 -1.6759  0.4863 -0.5021
   12SAPS   O21 1486   2.996   2.553   6.278  0.2403  0.1460 -0.3842
   12SAPS   C21 1487   2.967   2.420   6.274 -0.0048 -0.1996  1.0392
   12SAPS   O22 1488   2.980   2.342   6.180 -0.3047 -0.6747 -0.3726
   12SAPS   C22 1489   2.899   2.379   6.411  1.2421 -0.1592 -0.0099
   12SAPS   H2R 1490   2.963   2.404   6.499  0.4875  0.3703  0.4018
   12SAPS   H2S 1491   2.804   2.436   6.417  0.5568 -0.7820 -3.2432
   12SAPS    C3 1492   3.229   2.575   6.211 -0.0287 -0.1305 -0.5390
   12SAPS    HX 1493   3.299   2.618   6.136  0.0826  2.3719  0.8973
   12SAPS    HY 1494   3.237   2.464   6.200  2.6870  0.0064 -0.6960
   12SAPS   O31 1495   3.267   2.615   6.342 -0.5380 -0.0171 -0.1945
   12SAPS   C31 1496   3.285   2.526   6.431  0.4072 -0.0758 -0.0483
   12SAPS   O32 1497   3.263   2.404   6.416  0.7955  0.0096 -0.1451
   12SAPS   C32 1498   3.316   2.596   6.555 -0.2594  0.1273  0.4368
   12SAPS   H2X 1499   3.256   2.687   6.577 -1.6979 -1.0482  1.6040
   12SAPS   H2Y 1500   3.419   2.639   6.550  0.1361 -0.8628 -0.1376
   12SAPS   C23 1501   2.873   2.222   6.409 -0.0806 -0.3242  0.7276
   12SAPS   H3R 1502   2.958   2.162   6.370 -0.6083 -0.3994 -0.3464
   12SAPS   H3S 1503   2.788   2.209   6.338  0.4023  0.8949 -0.1146
   12SAPS   C24 1504   2.842   2.165   6.549 -0.0833 -0.3041  0.4791
   12SAPS   H4R 1505   2.802   2.063   6.531  1.1943 -0.7658  0.1350
   12SAPS   H4S 1506   2.768   2.239   6.587  1.1953 -0.3805  3.3466
   12SAPS   C25 1507   2.958   2.156   6.642 -0.6732  0.1940  0.2930
   12SAPS   H5R 1508   3.056   2.133   6.598  1.6114 -0.9101  5.2666
   12SAPS   C26 1509   2.957   2.218   6.764  0.2150  0.4249 -0.3310
   12SAPS   H6R 1510   3.041   2.206   6.834 -1.9301  0.1272  2.3663
   12SAPS   C27 1511   2.834   2.291   6.824 -0.0115 -0.0008 -0.6210
   12SAPS   H7R 1512   2.840   2.283   6.934  0.9204  0.3210 -0.6372
   12SAPS   H7S 1513   2.741   2.243   6.788 -0.6354  1.2166 -0.6861
   12SAPS   C28 1514   2.823   2.430   6.780 -0.4736 -0.5658  0.3578
   12SAPS   H8R 1515   2.772   2.444   6.684  0.4568 -0.1590 -0.0968
   12SAPS   C29 1516   2.867   2.542   6.846 -0.0851 -0.0590 -0.0135
   12SAPS   H9R 1517   2.827   2.642   6.825  0.2135 -0.0631 -0.6211
   12SAPS  C210 1518   2.925   2.527   6.984 -0.5857  0.0916  0.3469
   12SAPS  H10R 1519   2.967   2.627   7.010  0.0628 -0.0430 -0.1354
   12SAPS  H10S 1520   3.020   2.468   6.984 -0.1530  0.7516 -0.4384
   12SAPS  C211 1521   2.823   2.484   7.093  0.1736  0.2736 -0.2081
   12SAPS  H11R 1522   2.718   2.465   7.066  0.3753 -0.2942 -0.6083
   12SAPS  C212 1523   2.848   2.477   7.223  0.1408 -0.1376 -0.0802
   12SAPS  H12R 1524   2.766   2.449   7.291  1.1434 -2.4097  0.2752
   12SAPS  C213 1525   2.984   2.509   7.285 -0.4116 -0.3688 -0.2696
   12SAPS  H13R 1526   3.060   2.521   7.205 -1.5017 -0.2804 -1.3191
   12SAPS  H13S 1527   3.013   2.420   7.344 -0.6371 -0.0990  0.2508
   12SAPS  C214 1528   2.997   2.626   7.374  0.8081 -0.6467 -0.5996
   12SAPS  H14R 1529   2.928   2.708   7.351  1.4267 -0.0582 -0.4135
   12SAPS  C215 1530   3.092   2.637   7.461  0.0147 -0.2431  0.3872
   12SAPS  H15R 1531   3.093   2.723   7.530 -1.7819 -1.0257  1.4740
   12SAPS  C216 1532   3.206   2.546   7.492 -0.1293  0.3551 -0.7248
   12SAPS  H16R 1533   3.301   2.595   7.463  1.0895 -2.2007 -1.3793
   12SAPS  H16S 1534   3.198   2.448   7.439 -0.2380 -0.4628  0.7399
   12SAPS  C217 1535   3.207   2.501   7.643 -0.4099  0.4746 -0.2690
   12SAPS  H17R 1536   3.213   2.582   7.718  0.1341 -0.3704  0.6207
   12SAPS  H17S 1537   3.300   2.446   7.668 -0.8262  0.1051  0.5086
   12SAPS  C218 1538   3.088   2.415   7.671 -0.3110  0.0261 -0.1593
   12SAPS  H18R 1539   3.081   2.330   7.600 -0.6097 -0.9425  1.0054
   12SAPS  H18S 1540   2.993   2.472   7.659 -1.0020 -1.2385 -0.9053
   12SAPS  C219 1541   3.074   2.365   7.816 -0.3541 -0.2269 -0.5382
   12SAPS  H19R 1542   3.142   2.278   7.830  0.1319 -0.1282 -2.0914
   12SAPS  H19S 1543   2.975   2.315   7.824  0.7367 -2.2153  1.7210
   12SAPS  C220 1544   3.097   2.473   7.928 -0.9296  0.1771  0.8366
   12SAPS  H20R 1545   3.208   2.477   7.931 -0.4959 -1.0159 -4.0018
   12SAPS  H20S 1546   3.072   2.446   8.032  1.2476  1.2571  1.6904
   12SAPS  H20T 1547   3.057   2.574   7.904 -0.4306  0.2927  0.4617
   12SAPS   C33 1548   3.301   2.505   6.677  0.2370 -0.0335 -0.4285
   12SAPS   H3X 1549   3.353   2.408   6.661 -0.2227 -0.4251  0.3744
   12SAPS   H3Y 1550   3.192   2.487   6.687  0.3423  0.7087  4.7937
   12SAPS   C34 1551   3.356   2.560   6.814 -0.0853 -0.0105  0.5333
   12SAPS   H4X 1552   3.461   2.591   6.799 -0.1872 -0.4701 -1.5521
   12SAPS   H4Y 1553   3.354   2.483   6.893 -0.5172 -0.7368 -0.1717
   12SAPS   C35 1554   3.283   2.680   6.871  0.1497 -0.1300  1.2018
   12SAPS   H5X 1555   3.174   2.664   6.852  0.5987 -2.8575  0.4742
   12SAPS   H5Y 1556   3.309   2.772   6.815  0.2030 -0.3280  0.8954
   12SAPS   C36 1557   3.301   2.690   7.025 -0.2613  0.7424 -0.3655
   12SAPS   H6X 1558   3.277   2.588   7.062 -0.5199  0.6913 -0.6632
   12SAPS   H6Y 1559   3.237   2.766   7.074  1.6159  1.5305  0.9733
   12SAPS   C37 1560   3.439   2.732   7.064 -0.5871 -0.6431 -0.4749
   12SAPS   H7X 1561   3.441   2.843   7.060  1.3992 -0.6470 -0.8914
   12SAPS   H7Y 1562   3.519   2.695   6.996  0.6098  1.9243 -0.5942
   12SAPS   C38 1563   3.453   2.696   7.212  0.5898 -0.2959  0.6316
   12SAPS   H8X 1564   3.444   2.586   7.227  3.1124 -0.5372  0.8647
   12SAPS   H8Y 1565   3.367   2.738   7.267 -0.0570 -0.4381 -0.2511
   12SAPS   C39 1566   3.568   2.753   7.292 -0.1762  0.0274  0.1528
   12SAPS   H9X 1567   3.556   2.862   7.311 -0.3063  0.5260 -2.4453
   12SAPS   H9Y 1568   3.666   2.736   7.242 -0.5092 -1.2743 -0.0817
   12SAPS  C310 1569   3.566   2.686   7.435 -0.2495  0.1553  0.8525
   12SAPS  H10X 1570   3.555   2.575   7.429  1.5635 -0.0021 -0.3673
   12SAPS  H10Y 1571   3.470   2.716   7.481 -0.6619  0.7052 -0.3298
   12SAPS  C311 1572   3.685   2.728   7.528  0.4862 -0.1561  0.5084
   12SAPS  H11X 1573   3.679   2.838   7.539 -0.2760  0.1715 -2.3070
   12SAPS  H11Y 1574   3.777   2.704   7.471  0.5537  0.6442  0.2681
   12SAPS  C312 1575   3.701   2.650   7.658  0.3573  0.0118 -0.2542
   12SAPS  H12X 1576   3.810   2.668   7.675  0.5907 -1.0014 -0.5934
   12SAPS  H12Y 1577   3.676   2.543   7.637 -0.8779 -0.0577  1.3950
   12SAPS  C313 1578   3.617   2.710   7.769 -0.1591  0.5440 -0.4421
   12SAPS  H13X 1579   3.511   2.678   7.776  0.4906 -1.8646 -0.9283
   12SAPS  H13Y 1580   3.607   2.821   7.765 -0.9467  0.4539 -1.1798
   12SAPS  C314 1581   3.669   2.686   7.911 -0.6535  0.7371 -0.4960
   12SAPS  H14X 1582   3.772   2.726   7.917 -0.3830  0.0628 -0.5137
   12SAPS  H14Y 1583   3.676   2.577   7.931  3.3444  1.1032  1.0204
   12SAPS  C315 1584   3.582   2.760   8.018 -0.1105  0.3318  0.2472
   12SAPS  H15X 1585   3.474   2.743   8.002  0.2886 -0.8317 -1.6291
   12SAPS  H15Y 1586   3.593   2.868   7.993 -1.9778  0.5175  0.0735
   12SAPS  C316 1587   3.634   2.748   8.159 -1.0820 -0.3146  0.3098
   12SAPS  H16X 1588   3.737   2.791   8.156 -1.0216 -0.4217  0.8893
   12SAPS  H16Y 1589   3.650   2.648   8.204 -0.4086  0.1321  1.0807
   12SAPS  C317 1590   3.543   2.831   8.257 -0.3920  0.1420 -0.3007
   12SAPS  H17X 1591   3.583   2.815   8.359 -3.5452  1.5486  1.3042
   12SAPS  H17Y 1592   3.435   2.805   8.268 -0.3709 -0.3124 -1.0642
   12SAPS  C318 1593   3.553   2.983   8.234  0.4510  0.3269 -0.3493
   12SAPS  H18X 1594   3.466   3.036   8.279 -1.1018 -0.7483 -1.9304
   12SAPS  H18Y 1595   3.539   3.011   8.128 -2.4861  0.3364 -0.0388
   12SAPS  H18Z 1596   3.653   3.018   8.267  0.4075  0.1707 -0.0412
   13SAPS     N 1597   4.966   4.574   6.068 -0.6993  0.1372 -0.0651
   13SAPS   HN1 1598   4.958   4.532   5.973 -1.4833  0.1826 -0.0201
   13SAPS   HN2 1599   5.024   4.514   6.131 -1.7791  1.0842  1.9145
   13SAPS   HN3 1600   4.874   4.577   6.115  0.4019  0.7831  2.1856
   13SAPS   C12 1601   5.003   4.714   6.055  0.3816  0.2907  0.3227
   13SAPS  H12A 1602   5.110   4.714   6.068  0.1292 -0.7170  3.2411
   13SAPS   C13 1603   4.962   4.792   5.924 -0.4923  0.1398 -0.0205
   13SAPS  O13A 1604   4.917   4.720   5.828  0.4894 -0.1244 -0.3565
   13SAPS  O13B 1605   5.011   4.903   5.896 -0.1623 -0.3962 -0.0536
   13SAPS   C11 1606   4.953   4.798   6.176 -0.1496 -0.2828  0.2297
   13SAPS  H11A 1607   4.843   4.813   6.167  0.2206  2.2215 -0.8393
   13SAPS  H11B 1608   4.999   4.898   6.162  0.5627 -0.5335  0.7354
   13SAPS     P 1609   4.901   4.710   6.421  0.1733 -0.1705 -0.2109
   13SAPS   O13 1610   4.818   4.594   6.395  0.1333  0.0433 -0.2296
   13SAPS   O14 1611   4.983   4.716   6.541 -0.5114  0.3419 -0.4198
   13SAPS   O12 1612   4.994   4.736   6.299  0.2533 -0.5778  0.0934
   13SAPS   O11 1613   4.803   4.825   6.426 -0.2902  0.2029  0.2566
   13SAPS    C1 1614   4.825   4.965   6.411 -0.3967 -0.0688  0.8772
   13SAPS    HA 1615   4.932   4.988   6.431  0.2122 -2.5684  0.8388
   13SAPS    HB 1616   4.795   5.000   6.310  1.0008 -0.0326  0.4458
   13SAPS    C2 1617   4.737   5.034   6.511 -0.0016  0.2707 -0.4570
   13SAPS    HS 1618   4.637   4.987   6.512  0.0142  0.2263  1.0564
   13SAPS   O21 1619   4.734   5.174   6.483  0.4565 -0.4563 -0.6497
   13SAPS   C21 1620   4.629   5.235   6.526 -0.1729 -0.2946 -0.4790
   13SAPS   O22 1621   4.524   5.188   6.563 -0.0564 -0.2188 -0.8657
   13SAPS   C22 1622   4.654   5.389   6.537 -0.5421 -0.3750  0.4307
   13SAPS   H2R 1623   4.716   5.420   6.450 -2.2848  3.3995  0.3444
   13SAPS   H2S 1624   4.558   5.444   6.531 -0.4440 -0.3171 -1.0072
   13SAPS    C3 1625   4.796   5.013   6.655  0.5137  0.4297  0.3592
   13SAPS    HX 1626   4.888   5.075   6.659  1.5909 -1.0249 -0.5162
   13SAPS    HY 1627   4.835   4.909   6.667  0.8523  0.5078 -0.0372
   13SAPS   O31 1628   4.699   5.040   6.767 -0.1381 -0.5122  0.0386
   13SAPS   C31 1629   4.610   4.946   6.789  0.4218 -0.1295 -0.2708
   13SAPS   O32 1630   4.613   4.842   6.729 -0.6405  0.3056  0.3115
   13SAPS   C32 1631   4.496   4.989   6.874 -0.6995 -0.0920 -0.3652
   13SAPS   H2X 1632   4.414   4.987   6.799  0.6045  1.7675 -1.9315
   13SAPS   H2Y 1633   4.507   5.096   6.901  2.2308 -0.3833 -0.0688
   13SAPS   C23 1634   4.750   5.434   6.655  0.0842  0.8947  0.5193
   13SAPS   H3R 1635   4.802   5.530   6.631 -0.6108  1.3233  0.7057
   13SAPS   H3S 1636   4.833   5.360   6.662  0.4934  1.3914  1.0353
   13SAPS   C24 1637   4.672   5.457   6.786 -0.2534 -0.1455  0.0560
   13SAPS   H4R 1638   4.747   5.453   6.868 -0.3706  0.8953  0.2185
   13SAPS   H4S 1639   4.621   5.361   6.807  1.5560 -1.3042 -0.5537
   13SAPS   C25 1640   4.566   5.559   6.796 -0.1866  0.0543  0.1297
   13SAPS   H5R 1641   4.493   5.545   6.715  0.1451 -2.6045  0.2095
   13SAPS   C26 1642   4.565   5.664   6.882 -0.3637  0.1628  0.0948
   13SAPS   H6R 1643   4.478   5.731   6.885  0.8503  1.7823  2.1296
   13SAPS   C27 1644   4.668   5.690   6.985  0.2501 -0.0339  0.6481
   13SAPS   H7R 1645   4.655   5.793   7.026 -0.6155 -0.8318  2.5248
   13SAPS   H7S 1646   4.771   5.684   6.943 -0.1617  0.2650 -0.4277
   13SAPS   C28 1647   4.661   5.598   7.102 -0.5263 -0.1163  0.2626
   13SAPS   H8R 1648   4.731   5.515   7.094  1.0547  1.3190 -2.2621
   13SAPS   C29 1649   4.592   5.612   7.219  0.7909  0.3379  0.3351
   13SAPS   H9R 1650   4.594   5.535   7.297  0.7335  2.0561  2.1209
   13SAPS  C210 1651   4.502   5.731   7.244 -0.3222 -0.0668  0.3540
   13SAPS  H10R 1652   4.479   5.774   7.144  0.6502  1.8162  0.9006
   13SAPS  H10S 1653   4.558   5.808   7.301 -1.5719 -0.4031  2.1017
   13SAPS  C211 1654   4.382   5.664   7.313 -0.9569  0.0463  0.1355
   13SAPS  H11R 1655   4.315   5.624   7.236  0.5807 -1.8070 -0.3179
   13SAPS  C212 1656   4.382   5.649   7.452  0.7283 -0.1107  0.3881
   13SAPS  H12R 1657   4.301   5.589   7.497  0.4746  0.8385  1.2451
   13SAPS  C213 1658   4.470   5.719   7.546  0.3413  0.6467 -0.0331
   13SAPS  H13R 1659   4.460   5.829   7.554 -0.0447  0.5657  0.6765
   13SAPS  H13S 1660   4.570   5.703   7.499  0.6001 -0.8846  0.9622
   13SAPS  C214 1661   4.482   5.649   7.681  0.2610  0.4418 -0.4666
   13SAPS  H14R 1662   4.427   5.554   7.692  2.0535 -0.4476  1.6888
   13SAPS  C215 1663   4.545   5.689   7.794 -0.5984  0.2087  0.8120
   13SAPS  H15R 1664   4.559   5.621   7.879 -1.8119  1.0632  1.7220
   13SAPS  C216 1665   4.613   5.818   7.819  0.0302  0.0078 -0.1542
   13SAPS  H16R 1666   4.597   5.847   7.925 -2.9128  3.3479 -1.2909
   13SAPS  H16S 1667   4.555   5.896   7.765 -0.4281  0.5114  1.0328
   13SAPS  C217 1668   4.766   5.824   7.792 -0.1458  0.0250  0.0274
   13SAPS  H17R 1669   4.794   5.926   7.757 -0.5136 -0.1230 -0.7273
   13SAPS  H17S 1670   4.801   5.764   7.705  2.3344 -0.0295  0.9757
   13SAPS  C218 1671   4.857   5.768   7.905 -0.0885 -0.2307 -0.0937
   13SAPS  H18R 1672   4.967   5.772   7.886  0.6876  1.4833  3.8120
   13SAPS  H18S 1673   4.839   5.660   7.924 -0.6447 -0.2882 -0.8985
   13SAPS  C219 1674   4.843   5.844   8.042 -0.1754  0.2227 -0.4597
   13SAPS  H19R 1675   4.756   5.801   8.094 -0.3044  0.6399 -0.3195
   13SAPS  H19S 1676   4.836   5.954   8.025 -0.3282  0.4057  0.6779
   13SAPS  C220 1677   4.964   5.819   8.140 -0.2536  0.5086  0.1112
   13SAPS  H20R 1678   4.952   5.879   8.233 -2.0082 -0.2603  0.4280
   13SAPS  H20S 1679   5.058   5.839   8.085 -1.5605 -2.1738 -3.4576
   13SAPS  H20T 1680   4.963   5.709   8.161  3.0130  0.1352 -1.0880
   13SAPS   C33 1681   4.461   4.902   6.997 -0.1043 -0.5051  1.0598
   13SAPS   H3X 1682   4.477   4.795   6.972  0.0557 -0.3538  0.4869
   13SAPS   H3Y 1683   4.351   4.912   7.006 -0.1707  0.0015 -0.0489
   13SAPS   C34 1684   4.538   4.947   7.120  0.2163 -0.5272  0.4895
   13SAPS   H4X 1685   4.515   5.056   7.122  0.0513 -0.3712 -3.2979
   13SAPS   H4Y 1686   4.645   4.953   7.091  0.2843 -1.5384  0.4905
   13SAPS   C35 1687   4.507   4.861   7.243 -1.2966 -0.1653  0.1328
   13SAPS   H5X 1688   4.547   4.758   7.233  1.0918  0.8211 -1.3928
   13SAPS   H5Y 1689   4.397   4.854   7.256 -1.1904 -0.7891  0.7411
   13SAPS   C36 1690   4.569   4.915   7.373  0.0422 -1.0816 -0.5224
   13SAPS   H6X 1691   4.560   5.025   7.373  1.8662 -0.9094 -0.3826
   13SAPS   H6Y 1692   4.679   4.901   7.383  0.9133  4.1350  0.0023
   13SAPS   C37 1693   4.508   4.838   7.489  0.5611 -1.0172 -0.0942
   13SAPS   H7X 1694   4.530   4.731   7.472  0.3182 -1.3319  1.4268
   13SAPS   H7Y 1695   4.400   4.848   7.466  0.8567  0.8729 -0.8721
   13SAPS   C38 1696   4.551   4.883   7.630 -0.2874  0.1454  0.2230
   13SAPS   H8X 1697   4.534   4.992   7.645  0.1427  0.4688 -1.4896
   13SAPS   H8Y 1698   4.661   4.869   7.636 -0.4094 -0.4514  1.5627
   13SAPS   C39 1699   4.474   4.824   7.751  0.2280 -0.4584 -0.3879
   13SAPS   H9X 1700   4.416   4.740   7.708  0.2483 -0.9173  0.4631
   13SAPS   H9Y 1701   4.403   4.893   7.802  0.9125  0.8178 -1.1141
   13SAPS  C310 1702   4.557   4.760   7.865 -0.0320 -0.2025  0.4311
   13SAPS  H10X 1703   4.633   4.701   7.809  0.4836  1.2277 -0.4268
   13SAPS  H10Y 1704   4.494   4.703   7.937 -0.9512 -1.2522 -1.1594
   13SAPS  C311 1705   4.623   4.865   7.950 -0.2441 -0.7691 -1.0612
   13SAPS  H11X 1706   4.541   4.925   7.994 -0.1127 -0.4636 -1.2352
   13SAPS  H11Y 1707   4.684   4.931   7.885 -2.2516  3.9802  1.4029
   13SAPS  C312 1708   4.714   4.824   8.062 -0.1927  0.2086 -0.1597
   13SAPS  H12X 1709   4.777   4.906   8.101 -0.0068 -0.3573  0.7629
   13SAPS  H12Y 1710   4.783   4.758   8.005  0.9476  1.4362 -0.2608
   13SAPS  C313 1711   4.625   4.754   8.171 -0.6493 -0.5722  0.6378
   13SAPS  H13X 1712   4.535   4.705   8.128 -0.4984  0.9530 -1.5916
   13SAPS  H13Y 1713   4.591   4.832   8.242 -1.8662  1.4460 -1.9697
   13SAPS  C314 1714   4.719   4.648   8.228  0.1483  0.4509  0.2624
   13SAPS  H14X 1715   4.797   4.691   8.294  2.2560  0.7660 -2.2673
   13SAPS  H14Y 1716   4.760   4.566   8.164  1.4912  1.6746 -0.5003
   13SAPS  C315 1717   4.647   4.568   8.339  0.1470 -0.3186  0.0219
   13SAPS  H15X 1718   4.547   4.536   8.304  0.9340 -2.9672 -0.0075
   13SAPS  H15Y 1719   4.635   4.624   8.435 -0.8928 -2.0014  0.9215
   13SAPS  C316 1720   4.727   4.451   8.390 -0.2161 -0.5438  0.2953
   13SAPS  H16X 1721   4.769   4.406   8.298  3.1550 -0.6831  1.7680
   13SAPS  H16Y 1722   4.671   4.369   8.440 -1.8939  0.4449  0.1374
   13SAPS  C317 1723   4.842   4.489   8.468 -0.2754 -0.1607 -0.4864
   13SAPS  H17X 1724   4.815   4.543   8.561  1.0457  0.8802 -0.6753
   13SAPS  H17Y 1725   4.905   4.558   8.408 -0.7164 -0.0278 -0.8014
   13SAPS  C318 1726   4.938   4.373   8.494 -0.0795 -0.1229 -0.0800
   13SAPS  H18X 1727   4.892   4.292   8.553  0.1220 -0.0911  0.1225
   13SAPS  H18Y 1728   5.031   4.404   8.546 -0.8971 -0.5634  1.6918
   13SAPS  H18Z 1729   4.968   4.327   8.397 -2.2849 -1.1226 -0.3330
   14SAPS     N 1730   4.797   0.760   5.544  0.1918  0.4164 -0.0776
   14SAPS   HN1 1731   4.777   0.665   5.505 -0.9010  1.8942 -3.5168
   14SAPS   HN2 1732   4.841   0.811   5.464 -0.1851 -0.6351 -0.9880
   14SAPS   HN3 1733   4.861   0.749   5.625  0.3037 -0.3715 -0.2579
   14SAPS   C12 1734   4.672   0.824   5.596 -0.2489  0.1544  0.1759
   14SAPS  H12A 1735   4.670   0.924   5.555  0.4327 -0.0706 -0.4191
   14SAPS   C13 1736   4.543   0.769   5.530  0.1730  0.1415  0.9862
   14SAPS  O13A 1737   4.544   0.680   5.437 -0.5639  0.2230 -0.0207
   14SAPS  O13B 1738   4.433   0.801   5.583  0.1667  0.1944 -0.1251
   14SAPS   C11 1739   4.649   0.806   5.747 -0.6362 -0.4103  0.4419
   14SAPS  H11A 1740   4.628   0.699   5.769  2.0212 -1.0120  0.2969
   14SAPS  H11B 1741   4.554   0.859   5.770 -1.0529 -0.3823 -1.2074
   14SAPS     P 1742   4.795   0.989   5.864 -0.1445  0.0084  0.3833
   14SAPS   O13 1743   4.940   1.023   5.843  0.3005 -0.0883 -0.1503
   14SAPS   O14 1744   4.711   1.076   5.782 -0.2039 -0.3068 -0.0736
   14SAPS   O12 1745   4.760   0.842   5.831 -0.8251 -0.0601  0.5360
   14SAPS   O11 1746   4.758   1.005   6.014  0.4439 -0.6974  0.1406
   14SAPS    C1 1747   4.671   0.917   6.079 -0.3488 -0.1311 -0.7060
   14SAPS    HA 1748   4.571   0.925   6.031  0.3962  2.5715 -2.0375
   14SAPS    HB 1749   4.703   0.812   6.061 -0.8036  0.0617 -2.9654
   14SAPS    C2 1750   4.663   0.952   6.229  0.5907  0.0629 -0.7143
   14SAPS    HS 1751   4.577   1.021   6.245 -0.6838 -1.6748  0.2719
   14SAPS   O21 1752   4.781   1.003   6.283 -0.4295  0.1468 -0.8422
   14SAPS   C21 1753   4.769   1.111   6.361  0.0711  0.2100  0.4166
   14SAPS   O22 1754   4.693   1.204   6.336  0.2521 -0.1320 -1.3813
   14SAPS   C22 1755   4.870   1.103   6.476  0.7805 -0.1807  0.3845
   14SAPS   H2R 1756   4.855   1.007   6.531 -0.2687  0.1316  0.6532
   14SAPS   H2S 1757   4.969   1.092   6.426  0.7823  1.0921  0.0804
   14SAPS    C3 1758   4.628   0.821   6.313  0.3461 -0.2398 -0.3985
   14SAPS    HX 1759   4.714   0.755   6.288  0.5018 -0.0790 -0.2882
   14SAPS    HY 1760   4.539   0.776   6.264  0.5993  0.0619 -1.1572
   14SAPS   O31 1761   4.614   0.855   6.456  0.1363 -0.4327 -0.2070
   14SAPS   C31 1762   4.493   0.838   6.509 -0.1016 -0.1212 -0.4642
   14SAPS   O32 1763   4.394   0.793   6.453 -0.2242  0.2741  0.6074
   14SAPS   C32 1764   4.492   0.891   6.656  0.2500 -0.4610 -0.3951
   14SAPS   H2X 1765   4.453   0.991   6.629  1.8883 -0.0732 -1.4783
   14SAPS   H2Y 1766   4.595   0.903   6.697  0.7250 -2.0233 -1.0456
   14SAPS   C23 1767   4.869   1.216   6.582  0.4764  0.6123 -0.0621
   14SAPS   H3R 1768   4.858   1.312   6.528 -3.2414  0.0898 -0.5192
   14SAPS   H3S 1769   4.964   1.200   6.638  0.2700  2.5649  0.9495
   14SAPS   C24 1770   4.760   1.214   6.693 -0.3218 -0.0004 -0.3251
   14SAPS   H4R 1771   4.791   1.290   6.769  0.7092  0.4186 -1.1344
   14SAPS   H4S 1772   4.768   1.110   6.732  1.8906  0.3088  0.1734
   14SAPS   C25 1773   4.621   1.237   6.647  0.4511 -0.8229  0.1208
   14SAPS   H5R 1774   4.596   1.245   6.540 -3.1276  1.8172  0.9607
   14SAPS   C26 1775   4.518   1.266   6.732 -0.2280  0.3498  0.1036
   14SAPS   H6R 1776   4.414   1.282   6.702  0.2479  1.9495 -0.7785
   14SAPS   C27 1777   4.532   1.265   6.879  0.0904  0.0878  0.0064
   14SAPS   H7R 1778   4.587   1.357   6.908  0.7575  0.1010 -1.2333
   14SAPS   H7S 1779   4.588   1.173   6.905  0.1752  0.2405  0.3634
   14SAPS   C28 1780   4.397   1.248   6.953  0.0817 -0.6311 -1.1097
   14SAPS   H8R 1781   4.309   1.227   6.892 -1.1014 -0.6509  0.5246
   14SAPS   C29 1782   4.375   1.279   7.083  0.2095  0.1488 -0.5042
   14SAPS   H9R 1783   4.277   1.256   7.129 -0.2710 -0.0254 -1.5860
   14SAPS  C210 1784   4.483   1.328   7.182  0.3118  0.4316  0.6356
   14SAPS  H10R 1785   4.442   1.401   7.254  2.3236  2.6905 -0.3647
   14SAPS  H10S 1786   4.563   1.379   7.125  0.7470 -0.1903  0.6812
   14SAPS  C211 1787   4.556   1.204   7.243  0.0641  0.0107 -0.3542
   14SAPS  H11R 1788   4.614   1.134   7.183 -0.3694 -1.9646  1.4263
   14SAPS  C212 1789   4.548   1.173   7.375  0.6514  0.8771  0.4183
   14SAPS  H12R 1790   4.611   1.089   7.408  1.2035 -0.6984 -3.9911
   14SAPS  C213 1791   4.471   1.247   7.474  0.1749 -0.2047  0.3804
   14SAPS  H13R 1792   4.485   1.357   7.466  0.4276  0.1904  4.1978
   14SAPS  H13S 1793   4.509   1.210   7.572 -0.9984 -1.0415  0.5472
   14SAPS  C214 1794   4.328   1.199   7.471  0.7818 -0.5874  0.1797
   14SAPS  H14R 1795   4.293   1.157   7.375  1.0227 -1.8568  0.6251
   14SAPS  C215 1796   4.236   1.192   7.572  0.0101 -0.2164 -0.2172
   14SAPS  H15R 1797   4.140   1.139   7.561 -0.8726  1.5559 -1.7212
   14SAPS  C216 1798   4.270   1.235   7.711  0.7571 -0.8143  0.0442
   14SAPS  H16R 1799   4.175   1.252   7.766  0.5919 -0.3323 -0.3847
   14SAPS  H16S 1800   4.329   1.329   7.717 -2.8867  1.6299  1.0003
   14SAPS  C217 1801   4.352   1.125   7.782  0.7274 -0.5080 -0.7937
   14SAPS  H17R 1802   4.450   1.109   7.732  1.2336  0.6198 -0.2176
   14SAPS  H17S 1803   4.283   1.041   7.759  0.5425  0.2392 -3.1780
   14SAPS  C218 1804   4.372   1.153   7.929  0.1967 -0.3167 -0.1430
   14SAPS  H18R 1805   4.278   1.169   7.986  0.8181 -0.3002  0.9241
   14SAPS  H18S 1806   4.424   1.251   7.937 -0.9536  0.4610 -1.8480
   14SAPS  C219 1807   4.439   1.037   8.004  0.6596 -0.0685 -0.0937
   14SAPS  H19R 1808   4.384   0.942   7.994  0.1188 -0.0666  2.1801
   14SAPS  H19S 1809   4.429   1.057   8.113  0.9136 -3.0674  0.5617
   14SAPS  C220 1810   4.580   1.013   7.957 -0.0914  0.2609 -1.2761
   14SAPS  H20R 1811   4.643   1.104   7.951 -2.5607  2.0845 -1.3096
   14SAPS  H20S 1812   4.570   0.951   7.866 -3.1885 -0.5228 -0.5316
   14SAPS  H20T 1813   4.629   0.940   8.025 -0.6844  0.3981 -0.6804
   14SAPS   C33 1814   4.386   0.830   6.750  0.3271  0.0592 -0.0441
   14SAPS   H3X 1815   4.418   0.724   6.763  0.4025  0.0318 -0.4558
   14SAPS   H3Y 1816   4.288   0.837   6.699  1.0921  0.1909 -1.5486
   14SAPS   C34 1817   4.364   0.914   6.879  0.1357  0.2956  0.0991
   14SAPS   H4X 1818   4.333   1.015   6.844  1.2216 -0.1677 -2.4323
   14SAPS   H4Y 1819   4.464   0.935   6.924  0.6977 -1.0569 -0.4549
   14SAPS   C35 1820   4.252   0.858   6.965  0.1085  0.0764 -0.1667
   14SAPS   H5X 1821   4.280   0.752   6.986  1.3270  0.1982 -1.0540
   14SAPS   H5Y 1822   4.155   0.863   6.911 -2.2840  0.1474  3.7522
   14SAPS   C36 1823   4.219   0.915   7.104  0.0607  0.1685  0.5772
   14SAPS   H6X 1824   4.215   1.025   7.088 -1.5829 -0.3157 -4.1637
   14SAPS   H6Y 1825   4.305   0.886   7.167 -1.0107 -1.4627  1.3418
   14SAPS   C37 1826   4.084   0.865   7.162 -1.1344 -0.5204  0.2016
   14SAPS   H7X 1827   4.100   0.755   7.168  1.6954 -0.1731  0.4667
   14SAPS   H7Y 1828   3.999   0.886   7.094 -0.3873 -1.2686 -1.0033
   14SAPS   C38 1829   4.061   0.916   7.306  0.4456 -0.6052  0.2548
   14SAPS   H8X 1830   3.969   0.978   7.312  0.6016 -0.2910 -0.4491
   14SAPS   H8Y 1831   4.139   0.988   7.339 -1.8767  1.6108  1.2213
   14SAPS   C39 1832   4.042   0.804   7.408 -0.5500 -0.3414 -0.0575
   14SAPS   H9X 1833   4.142   0.756   7.404 -0.0695  0.6663 -0.4140
   14SAPS   H9Y 1834   3.968   0.728   7.374 -0.2109 -2.4271  3.3880
   14SAPS  C310 1835   4.023   0.849   7.552  0.3773 -1.0006 -0.2690
   14SAPS  H10X 1836   4.109   0.913   7.581  0.9565 -1.4429 -0.9795
   14SAPS  H10Y 1837   4.032   0.755   7.610 -2.0124 -0.5171  0.9916
   14SAPS  C311 1838   3.896   0.915   7.585  0.1859  0.4708  0.7288
   14SAPS  H11X 1839   3.816   0.839   7.573  3.4810 -3.5506  1.9671
   14SAPS  H11Y 1840   3.886   1.002   7.516 -0.6392  0.1656  0.4465
   14SAPS  C312 1841   3.884   0.975   7.718 -0.0053 -0.6979 -0.7777
   14SAPS  H12X 1842   3.802   1.050   7.730 -1.7671 -2.4139 -1.4989
   14SAPS  H12Y 1843   3.978   1.027   7.743  0.7263 -2.0574 -0.6012
   14SAPS  C313 1844   3.879   0.878   7.830 -0.0515  0.3361  0.2810
   14SAPS  H13X 1845   3.958   0.800   7.817 -1.6577 -1.0104 -2.3955
   14SAPS  H13Y 1846   3.785   0.823   7.807 -1.2383  2.3365  0.1955
   14SAPS  C314 1847   3.881   0.935   7.971 -0.1516 -0.7960  0.6699
   14SAPS  H14X 1848   3.882   0.860   8.053  0.3423  0.3291  1.7327
   14SAPS  H14Y 1849   3.788   0.986   8.003  0.7579 -0.6725  3.4304
   14SAPS  C315 1850   3.990   1.044   7.998 -0.4754 -0.2281 -0.1558
   14SAPS  H15X 1851   3.963   1.136   7.942 -2.0805 -0.6825 -0.1720
   14SAPS  H15Y 1852   4.080   1.010   7.942 -1.8705  0.6467 -3.1074
   14SAPS  C316 1853   4.027   1.072   8.142 -0.1370  0.4836  0.2723
   14SAPS  H16X 1854   3.942   1.103   8.205 -2.0764  0.2494 -2.0993
   14SAPS  H16Y 1855   4.088   1.164   8.155 -0.5149  0.5440  1.7683
   14SAPS  C317 1856   4.091   0.946   8.201 -0.0849  0.1267  0.5437
   14SAPS  H17X 1857   4.163   0.895   8.134  1.4746  0.7143  1.7089
   14SAPS  H17Y 1858   4.013   0.868   8.212 -1.1674  1.0536 -0.3472
   14SAPS  C318 1859   4.165   0.958   8.333 -0.0444  0.0780  0.2893
   14SAPS  H18X 1860   4.194   0.860   8.377  0.4611  0.5162  0.9534
   14SAPS  H18Y 1861   4.092   1.003   8.405 -0.5483 -0.4400  0.1068
   14SAPS  H18Z 1862   4.246   1.033   8.318 -1.2693  1.0632 -1.7853
   15SAPS     N 1863   5.188   0.263   5.793  0.4518 -0.3053  0.3098
   15SAPS   HN1 1864   5.168   0.179   5.735  0.2302 -0.9341  1.2708
   15SAPS   HN2 1865   5.247   0.225   5.871 -3.5212 -2.8821  2.4221
   15SAPS   HN3 1866   5.097   0.289   5.835 -0.5206  1.3247 -2.5355
   15SAPS   C12 1867   5.240   0.378   5.709 -0.0887 -1.0684 -0.7095
   15SAPS  H12A 1868   5.328   0.355   5.651  0.7417 -0.0538  0.0937
   15SAPS   C13 1869   5.132   0.439   5.616 -0.1698 -0.3112 -0.1112
   15SAPS  O13A 1870   5.023   0.372   5.600 -0.5923 -0.1464 -0.4652
   15SAPS  O13B 1871   5.155   0.552   5.563 -0.0019 -1.0961 -0.0428
   15SAPS   C11 1872   5.308   0.486   5.803 -0.2288  0.2599  0.1163
   15SAPS  H11A 1873   5.250   0.519   5.891  1.5507  0.7807  1.1374
   15SAPS  H11B 1874   5.326   0.583   5.753 -0.8874  0.1651 -0.3204
   15SAPS     P 1875   5.455   0.382   5.992  0.0792 -0.3003  0.0482
   15SAPS   O13 1876   5.374   0.263   6.000 -0.4291  0.0650  0.3420
   15SAPS   O14 1877   5.603   0.367   6.016  0.2732 -0.7038  0.0194
   15SAPS   O12 1878   5.437   0.444   5.850 -0.1116  0.4287  0.5174
   15SAPS   O11 1879   5.400   0.488   6.090 -0.3666 -0.1994 -0.3590
   15SAPS    C1 1880   5.477   0.551   6.196 -0.2531 -0.0320  0.0257
   15SAPS    HA 1881   5.583   0.574   6.171 -0.2274  1.5114  1.3715
   15SAPS    HB 1882   5.435   0.651   6.220 -2.5305 -1.2914  1.6561
   15SAPS    C2 1883   5.481   0.464   6.331  0.9200 -0.0741 -0.2915
   15SAPS    HS 1884   5.525   0.368   6.296 -0.1824 -0.6793 -0.0396
   15SAPS   O21 1885   5.342   0.446   6.375  0.9866 -0.3048 -0.0081
   15SAPS   C21 1886   5.339   0.338   6.458  0.3671  0.0133  0.2713
   15SAPS   O22 1887   5.436   0.267   6.478 -0.3600  0.6025 -0.1280
   15SAPS   C22 1888   5.217   0.324   6.540  0.6169  0.1134 -0.1702
   15SAPS   H2R 1889   5.130   0.315   6.471  2.6918 -1.5971 -2.7587
   15SAPS   H2S 1890   5.221   0.224   6.588 -0.1973 -0.1139 -0.5528
   15SAPS    C3 1891   5.572   0.533   6.438  0.0642 -0.1546  0.9495
   15SAPS    HX 1892   5.666   0.539   6.378 -0.6395 -0.8822 -0.2636
   15SAPS    HY 1893   5.563   0.471   6.530 -0.7306  2.5104  2.7985
   15SAPS   O31 1894   5.525   0.663   6.481 -0.1469 -0.1644  0.6018
   15SAPS   C31 1895   5.589   0.773   6.424 -0.6617 -0.2100  0.3740
   15SAPS   O32 1896   5.661   0.766   6.323  0.3534 -0.6825  0.1405
   15SAPS   C32 1897   5.561   0.896   6.508 -1.1288  0.5864  0.3081
   15SAPS   H2X 1898   5.644   0.962   6.474  0.5430 -1.5654 -0.0023
   15SAPS   H2Y 1899   5.594   0.864   6.609 -1.3724  1.1644  0.5737
   15SAPS   C23 1900   5.197   0.444   6.638  0.1299 -0.4477 -0.0625
   15SAPS   H3R 1901   5.224   0.542   6.592  0.6009 -1.1728 -1.4117
   15SAPS   H3S 1902   5.265   0.429   6.724  0.1646 -0.6137 -0.1189
   15SAPS   C24 1903   5.058   0.460   6.709 -0.1353 -0.1434  0.0440
   15SAPS   H4R 1904   4.996   0.491   6.621  2.1888  0.5589 -1.4299
   15SAPS   H4S 1905   5.061   0.545   6.779 -0.9867  0.2971 -0.4350
   15SAPS   C25 1906   4.997   0.335   6.761  0.0641 -0.0041  0.4544
   15SAPS   H5R 1907   4.969   0.255   6.691 -0.9119  1.4371 -0.8622
   15SAPS   C26 1908   4.964   0.308   6.889 -0.1474 -0.2007 -0.7979
   15SAPS   H6R 1909   4.917   0.209   6.898  0.2911 -0.5249 -1.8936
   15SAPS   C27 1910   4.980   0.396   7.013  0.6970  0.4194  0.2975
   15SAPS   H7R 1911   4.916   0.354   7.093 -0.1411 -3.1959 -2.0227
   15SAPS   H7S 1912   4.925   0.492   7.003 -0.9573 -0.3145  1.7704
   15SAPS   C28 1913   5.122   0.435   7.053 -0.2879 -1.0365 -0.3303
   15SAPS   H8R 1914   5.199   0.377   7.000 -1.5031 -2.5356 -0.5373
   15SAPS   C29 1915   5.154   0.513   7.154  0.0155  0.1656 -0.0579
   15SAPS   H9R 1916   5.259   0.547   7.163 -0.0638  0.9260 -1.5839
   15SAPS  C210 1917   5.061   0.568   7.253 -0.3114 -0.0755  0.0703
   15SAPS  H10R 1918   4.966   0.597   7.203  0.6757  1.6767 -0.9025
   15SAPS  H10S 1919   5.108   0.654   7.307  0.9908 -1.3863  1.0919
   15SAPS  C211 1920   5.026   0.474   7.357  0.4717  0.5955  0.4948
   15SAPS  H11R 1921   5.040   0.367   7.337  0.7522 -0.0552  3.7557
   15SAPS  C212 1922   4.973   0.512   7.471  0.1621  0.3608 -0.3414
   15SAPS  H12R 1923   4.958   0.441   7.554 -1.7023  0.1069 -0.8442
   15SAPS  C213 1924   4.946   0.656   7.506  0.3663 -0.0162  0.0013
   15SAPS  H13R 1925   4.920   0.713   7.414  2.9537  1.4551  0.0816
   15SAPS  H13S 1926   5.041   0.698   7.543  0.2162 -0.9103  1.4583
   15SAPS  C214 1927   4.836   0.679   7.611  0.2487  0.1153  0.1719
   15SAPS  H14R 1928   4.730   0.681   7.582  0.7037  0.8952 -1.5837
   15SAPS  C215 1929   4.863   0.695   7.741  0.6899 -0.1538  0.1773
   15SAPS  H15R 1930   4.776   0.716   7.805 -0.4500 -0.8348 -1.0935
   15SAPS  C216 1931   4.987   0.697   7.817 -0.4486  0.4005 -0.1438
   15SAPS  H16R 1932   5.071   0.715   7.746 -1.1698 -0.7725 -1.3356
   15SAPS  H16S 1933   5.009   0.594   7.851 -1.3573 -0.2267 -1.3552
   15SAPS  C217 1934   5.008   0.798   7.929 -0.7261 -0.0111  0.3884
   15SAPS  H17R 1935   4.979   0.900   7.895 -1.3536 -0.4274 -0.3496
   15SAPS  H17S 1936   5.119   0.801   7.939 -0.6880 -0.4999  0.1412
   15SAPS  C218 1937   4.937   0.769   8.059 -0.0181 -0.4119  0.1495
   15SAPS  H18R 1938   4.944   0.661   8.086  0.0292 -0.0951  1.5034
   15SAPS  H18S 1939   4.828   0.794   8.060  0.0849  0.0929  1.6283
   15SAPS  C219 1940   4.987   0.843   8.178 -0.0253  0.1633 -0.9132
   15SAPS  H19R 1941   4.954   0.793   8.272  3.1342  1.6319  1.1733
   15SAPS  H19S 1942   4.945   0.945   8.176  0.4370  0.3719 -0.4188
   15SAPS  C220 1943   5.143   0.858   8.184 -0.0581  0.1807  0.0951
   15SAPS  H20R 1944   5.178   0.753   8.178 -2.9157 -0.9705  1.4328
   15SAPS  H20S 1945   5.172   0.897   8.283 -0.0689  2.5640 -0.7714
   15SAPS  H20T 1946   5.175   0.924   8.100 -2.4963  0.1925 -0.9103
   15SAPS   C33 1947   5.422   0.959   6.516 -0.0010  0.1935 -0.9551
   15SAPS   H3X 1948   5.387   0.964   6.411 -0.8435 -1.1864 -0.7713
   15SAPS   H3Y 1949   5.429   1.052   6.576  0.3880 -0.2429 -0.3149
   15SAPS   C34 1950   5.331   0.862   6.604  1.1668  0.0406  0.2766
   15SAPS   H4X 1951   5.403   0.841   6.686 -0.2019 -2.8558  0.8873
   15SAPS   H4Y 1952   5.310   0.772   6.543  1.9733  0.4979 -0.7004
   15SAPS   C35 1953   5.193   0.929   6.640 -0.2317  0.2346  0.2663
   15SAPS   H5X 1954   5.134   0.940   6.546 -2.4987 -0.7936  1.5027
   15SAPS   H5Y 1955   5.212   1.035   6.667  3.2219 -0.8416  2.7557
   15SAPS   C36 1956   5.114   0.855   6.749 -0.7827 -0.1558  0.2302
   15SAPS   H6X 1957   5.119   0.746   6.726  0.1809 -0.3001  1.0346
   15SAPS   H6Y 1958   5.005   0.874   6.749 -0.9222 -0.8380  1.6438
   15SAPS   C37 1959   5.163   0.891   6.885 -0.4666 -0.2715  0.9854
   15SAPS   H7X 1960   5.207   0.993   6.877  1.5264 -1.1799 -0.1683
   15SAPS   H7Y 1961   5.251   0.827   6.905 -0.3276 -0.1675  0.7033
   15SAPS   C38 1962   5.061   0.881   6.995  0.2850 -0.4996 -0.4051
   15SAPS   H8X 1963   5.021   0.777   7.000 -0.2341 -0.3996 -1.9086
   15SAPS   H8Y 1964   4.974   0.947   6.973  0.4448  1.2500  3.3702
   15SAPS   C39 1965   5.107   0.939   7.130 -0.6421 -0.4323  0.0359
   15SAPS   H9X 1966   5.138   1.041   7.100  0.8936 -1.0325 -0.4734
   15SAPS   H9Y 1967   5.199   0.884   7.161  0.3508  1.8694  1.5115
   15SAPS  C310 1968   4.996   0.936   7.233 -0.5143 -0.2153  0.2319
   15SAPS  H10X 1969   4.970   0.834   7.270  0.3737  0.2177  2.2274
   15SAPS  H10Y 1970   4.902   0.972   7.187 -2.0097 -3.7342  0.1972
   15SAPS  C311 1971   5.036   1.027   7.344  0.3316 -0.0272 -0.2478
   15SAPS  H11X 1972   5.054   1.127   7.299 -1.4323 -0.3234 -1.7051
   15SAPS  H11Y 1973   5.125   0.986   7.398 -1.2253 -1.4239  1.3890
   15SAPS  C312 1974   4.931   1.059   7.444 -0.1293  0.1878 -1.0349
   15SAPS  H12X 1975   4.887   0.968   7.490  2.7640 -0.1606  1.3074
   15SAPS  H12Y 1976   4.842   1.112   7.405 -2.2019 -1.4669  1.0947
   15SAPS  C313 1977   4.979   1.130   7.573 -0.0133 -0.0593 -0.3360
   15SAPS  H13X 1978   5.015   1.229   7.539  1.9510 -0.9398 -0.9400
   15SAPS  H13Y 1979   5.063   1.084   7.630  0.0244 -0.7673 -0.9497
   15SAPS  C314 1980   4.866   1.170   7.679  0.4443  0.5275 -0.2478
   15SAPS  H14X 1981   4.825   1.076   7.721  3.3601 -0.6126  0.2828
   15SAPS  H14Y 1982   4.796   1.222   7.609  0.5611  0.8934 -0.0983
   15SAPS  C315 1983   4.916   1.266   7.794 -0.0816  1.1195  0.0308
   15SAPS  H15X 1984   4.966   1.348   7.737 -1.4531  0.9791 -1.4707
   15SAPS  H15Y 1985   4.987   1.216   7.862  1.2034 -1.0584 -2.7199
   15SAPS  C316 1986   4.810   1.331   7.883  0.4618 -0.3464 -0.0695
   15SAPS  H16X 1987   4.867   1.368   7.970  0.1280 -0.1640  0.0704
   15SAPS  H16Y 1988   4.738   1.264   7.933  0.0783 -0.4898 -0.8011
   15SAPS  C317 1989   4.731   1.449   7.822 -0.1234 -0.1131  0.5198
   15SAPS  H17X 1990   4.670   1.416   7.735  1.7620  0.1190 -0.9640
   15SAPS  H17Y 1991   4.803   1.521   7.778 -0.8197 -0.5680 -1.4908
   15SAPS  C318 1992   4.655   1.538   7.925 -0.2657 -0.4310  0.5496
   15SAPS  H18X 1993   4.724   1.562   8.008  2.0912 -3.5178 -0.3484
   15SAPS  H18Y 1994   4.574   1.473   7.965 -2.3542  2.1626  0.8204
   15SAPS  H18Z 1995   4.608   1.627   7.877  0.9849  0.0287  0.1149
   16SAPS     N 1996   0.133   0.213   6.383 -0.1050  0.4218  0.1670
   16SAPS   HN1 1997   0.178   0.231   6.291  0.2942  0.7313  0.4211
   16SAPS   HN2 1998   0.092   0.307   6.399  0.5694  0.9110 -0.8292
   16SAPS   HN3 1999   0.202   0.195   6.458 -0.1106  0.4640  0.1820
   16SAPS   C12 2000   0.044   0.090   6.370 -0.2382  0.4161  0.7048
   16SAPS  H12A 2001  -0.031   0.105   6.294  1.3306  3.0951 -0.4409
   16SAPS   C13 2002   0.128  -0.036   6.346 -0.0634 -0.0517 -0.2758
   16SAPS  O13A 2003   0.257  -0.026   6.330 -0.1080  0.0411 -0.2788
   16SAPS  O13B 2004   0.073  -0.141   6.312  0.3013  0.0700  0.3702
   16SAPS   C11 2005  -0.043   0.069   6.498 -0.7317  0.1640 -0.0441
   16SAPS  H11A 2006   0.012   0.040   6.591 -0.3476  0.8065 -0.0645
   16SAPS  H11B 2007  -0.104  -0.019   6.470  0.3349 -0.4874 -0.3383
   16SAPS     P 2008  -0.265   0.192   6.457 -0.0649  0.3724 -0.1947
   16SAPS   O13 2009  -0.255   0.246   6.318  0.0892  0.2278 -0.4419
   16SAPS   O14 2010  -0.328   0.060   6.462 -0.0928 -0.2661 -0.3812
   16SAPS   O12 2011  -0.130   0.181   6.529  0.1982  0.4845 -0.5123
   16SAPS   O11 2012  -0.347   0.294   6.540  0.0129 -0.1289 -0.4420
   16SAPS    C1 2013  -0.378   0.281   6.679  0.3482  0.3291  0.0930
   16SAPS    HA 2014  -0.482   0.243   6.687  0.1265  0.9799  0.4470
   16SAPS    HB 2015  -0.299   0.219   6.726  1.5487  1.5617 -0.2057
   16SAPS    C2 2016  -0.357   0.419   6.764  0.1395 -0.0054 -0.7901
   16SAPS    HS 2017  -0.263   0.463   6.724  0.7691 -0.5072  0.0992
   16SAPS   O21 2018  -0.351   0.386   6.905 -0.2171 -0.5623 -0.2609
   16SAPS   C21 2019  -0.252   0.432   6.972  0.7416  0.5925  0.1409
   16SAPS   O22 2020  -0.178   0.524   6.948 -0.5485 -0.2311  0.2510
   16SAPS   C22 2021  -0.250   0.348   7.107  0.5983 -0.1418 -0.4961
   16SAPS   H2R 2022  -0.354   0.333   7.143  0.5775  2.4782  0.7772
   16SAPS   H2S 2023  -0.209   0.246   7.090  2.2638  0.5775 -1.0436
   16SAPS    C3 2024  -0.471   0.521   6.745 -0.3295 -0.6575  0.7568
   16SAPS    HX 2025  -0.482   0.528   6.635  2.1279 -0.6646  0.4488
   16SAPS    HY 2026  -0.441   0.624   6.774  0.8163 -1.7745  4.0087
   16SAPS   O31 2027  -0.601   0.486   6.804 -0.6121 -0.9585  0.1150
   16SAPS   C31 2028  -0.626   0.537   6.921  0.1809  0.0312 -0.2027
   16SAPS   O32 2029  -0.551   0.606   6.985  0.1601  0.1943  0.6975
   16SAPS   C32 2030  -0.764   0.495   6.961  0.0802 -0.4984  0.6102
   16SAPS   H2X 2031  -0.794   0.392   6.933 -1.5220  0.6296 -2.1893
   16SAPS   H2Y 2032  -0.845   0.562   6.924  0.7841  0.1413  0.1986
   16SAPS   C23 2033  -0.168   0.400   7.222  0.5643 -0.3431  0.0983
   16SAPS   H3R 2034  -0.059   0.405   7.200  0.9905 -0.1484  2.0789
   16SAPS   H3S 2035  -0.172   0.319   7.298  3.0478 -0.3829  0.2849
   16SAPS   C24 2036  -0.204   0.530   7.285  1.2294  0.0342  0.3240
   16SAPS   H4R 2037  -0.170   0.608   7.214 -1.6665  0.7354 -0.4322
   16SAPS   H4S 2038  -0.145   0.547   7.378 -1.4824  0.7609  2.0536
   16SAPS   C25 2039  -0.347   0.552   7.314 -0.0101  0.3339 -0.4997
   16SAPS   H5R 2040  -0.413   0.566   7.227 -0.1580  1.1435 -0.2650
   16SAPS   C26 2041  -0.407   0.539   7.438  0.0776  0.1452  0.4683
   16SAPS   H6R 2042  -0.505   0.590   7.441 -0.9514 -1.5495 -1.4085
   16SAPS   C27 2043  -0.336   0.522   7.565 -0.8028 -0.1519 -0.5740
   16SAPS   H7R 2044  -0.311   0.624   7.599 -1.5841 -0.4982  1.1595
   16SAPS   H7S 2045  -0.243   0.463   7.556 -0.5939  0.0611  0.1229
   16SAPS   C28 2046  -0.420   0.443   7.657 -0.4043 -0.2210  0.1242
   16SAPS   H8R 2047  -0.437   0.337   7.636  1.9006 -0.2417 -2.2827
   16SAPS   C29 2048  -0.470   0.496   7.772  0.5943 -0.0840  0.4452
   16SAPS   H9R 2049  -0.520   0.421   7.835 -0.5422  0.6994  0.4978
   16SAPS  C210 2050  -0.467   0.643   7.809 -0.3121  1.0221  0.6929
   16SAPS  H10R 2051  -0.565   0.656   7.860 -1.1805 -1.4682 -0.1441
   16SAPS  H10S 2052  -0.477   0.712   7.722  0.6009 -1.3062 -1.4128
   16SAPS  C211 2053  -0.357   0.690   7.896 -0.5730 -0.1142  0.1422
   16SAPS  H11R 2054  -0.288   0.610   7.927 -1.3054 -0.4857  0.8574
   16SAPS  C212 2055  -0.332   0.815   7.938  0.0439  0.2196  0.0069
   16SAPS  H12R 2056  -0.268   0.829   8.026  1.4264 -4.1998 -0.0436
   16SAPS  C213 2057  -0.411   0.936   7.897  0.0386 -0.1431  0.6393
   16SAPS  H13R 2058  -0.495   0.909   7.830 -1.5342  1.1524  1.9768
   16SAPS  H13S 2059  -0.354   1.016   7.846 -0.0419  0.0403  0.8341
   16SAPS  C214 2060  -0.471   1.012   8.018  0.0211 -0.3905 -0.5838
   16SAPS  H14R 2061  -0.578   0.988   8.027  0.0281 -0.2596 -0.1411
   16SAPS  C215 2062  -0.414   1.109   8.097 -1.0636 -0.0915  0.0134
   16SAPS  H15R 2063  -0.474   1.163   8.172 -0.5443  0.3473  0.1160
   16SAPS  C216 2064  -0.270   1.149   8.087 -0.8087 -0.3974 -0.0214
   16SAPS  H16R 2065  -0.266   1.242   8.028  1.9386  0.1121  0.8068
   16SAPS  H16S 2066  -0.200   1.079   8.036 -0.8834 -1.1993  0.9274
   16SAPS  C217 2067  -0.201   1.196   8.215  0.3183  0.0640 -0.4181
   16SAPS  H17R 2068  -0.249   1.293   8.238 -1.7771 -0.3759 -2.5202
   16SAPS  H17S 2069  -0.098   1.234   8.200 -0.9206  3.0926 -2.1729
   16SAPS  C218 2070  -0.193   1.095   8.330  0.3430  1.0580 -0.3686
   16SAPS  H18R 2071  -0.126   1.010   8.306 -0.9518  0.4202 -1.8813
   16SAPS  H18S 2072  -0.293   1.061   8.361  0.1003  2.6351  0.6994
   16SAPS  C219 2073  -0.127   1.147   8.461  0.4238  0.0366 -0.1460
   16SAPS  H19R 2074  -0.195   1.224   8.502 -2.5700 -1.3433 -2.2328
   16SAPS  H19S 2075  -0.035   1.199   8.427  0.2090  2.6912  2.8704
   16SAPS  C220 2076  -0.085   1.040   8.561 -0.3065  0.2216 -0.8566
   16SAPS  H20R 2077  -0.177   1.010   8.616 -0.0236 -1.9314 -1.4508
   16SAPS  H20S 2078  -0.015   1.088   8.632 -0.8913 -0.5985  0.3100
   16SAPS  H20T 2079  -0.040   0.954   8.506 -1.2697 -0.3353 -0.7970
   16SAPS   C33 2080  -0.779   0.480   7.116  0.6948 -0.1169  0.4905
   16SAPS   H3X 2081  -0.755   0.579   7.161 -1.8916 -0.6830  3.4532
   16SAPS   H3Y 2082  -0.707   0.404   7.153  0.5334 -0.3409  0.3505
   16SAPS   C34 2083  -0.917   0.428   7.157  0.2799 -0.1587 -0.0389
   16SAPS   H4X 2084  -0.940   0.334   7.103  1.3091 -1.0979  1.1072
   16SAPS   H4Y 2085  -0.998   0.499   7.129  0.0590 -0.2793  0.2865
   16SAPS   C35 2086  -0.937   0.413   7.308 -0.1542  0.5897  1.0165
   16SAPS   H5X 2087  -0.870   0.332   7.344 -1.0927  0.6453  2.9835
   16SAPS   H5Y 2088  -1.034   0.367   7.336  0.5257 -2.6296 -1.2877
   16SAPS   C36 2089  -0.907   0.545   7.391  0.4069  0.5589  0.1181
   16SAPS   H6X 2090  -0.996   0.602   7.357  0.0219 -0.2905 -0.3275
   16SAPS   H6Y 2091  -0.812   0.598   7.367 -0.8593  2.4574 -1.0156
   16SAPS   C37 2092  -0.922   0.521   7.540 -0.3649  0.0363  0.0422
   16SAPS   H7X 2093  -0.850   0.439   7.561  2.0058  1.7133 -1.1121
   16SAPS   H7Y 2094  -1.018   0.481   7.579  0.4019  0.3007  2.3811
   16SAPS   C38 2095  -0.878   0.649   7.600 -0.0702  0.0477 -0.4324
   16SAPS   H8X 2096  -0.951   0.731   7.581 -1.0714 -0.5179  0.8384
   16SAPS   H8Y 2097  -0.781   0.675   7.552 -0.1164  1.2167  0.0628
   16SAPS   C39 2098  -0.857   0.638   7.753  0.2226  0.8628  0.2604
   16SAPS   H9X 2099  -0.760   0.590   7.777 -0.8622 -0.3404  2.5094
   16SAPS   H9Y 2100  -0.930   0.569   7.801  0.7336 -0.8937 -1.3502
   16SAPS  C310 2101  -0.867   0.775   7.833  0.2023  0.8745  0.2138
   16SAPS  H10X 2102  -0.957   0.832   7.800  1.1798  2.2626 -0.1243
   16SAPS  H10Y 2103  -0.773   0.830   7.817  1.1666  0.3307  3.3128
   16SAPS  C311 2104  -0.875   0.747   7.987  0.6432  0.0167  0.6986
   16SAPS  H11X 2105  -0.799   0.670   8.011 -0.6951 -1.2027  1.2024
   16SAPS  H11Y 2106  -0.972   0.693   7.994  0.0372  0.7577 -1.2002
   16SAPS  C312 2107  -0.877   0.872   8.070  0.6732 -0.7247  0.7300
   16SAPS  H12X 2108  -0.961   0.942   8.053  1.0815 -0.4822 -0.3423
   16SAPS  H12Y 2109  -0.792   0.938   8.043 -1.3623  1.0251 -1.9200
   16SAPS  C313 2110  -0.866   0.841   8.222  0.0667  0.1391 -0.3400
   16SAPS  H13X 2111  -0.803   0.753   8.252 -0.0052  0.0670 -0.4018
   16SAPS  H13Y 2112  -0.967   0.826   8.265  1.5223 -0.3068  3.2798
   16SAPS  C314 2113  -0.807   0.965   8.298  0.5930 -0.6393  0.0289
   16SAPS  H14X 2114  -0.873   1.048   8.267 -0.2352 -0.8317  1.2069
   16SAPS  H14Y 2115  -0.710   0.989   8.251 -0.7314  1.3266 -1.9115
   16SAPS  C315 2116  -0.781   0.952   8.450 -0.2152  0.1700  0.3754
   16SAPS  H15X 2117  -0.711   0.867   8.464  0.3718  0.5336 -0.2631
   16SAPS  H15Y 2118  -0.879   0.933   8.499 -0.3134  2.1439  1.0173
   16SAPS  C316 2119  -0.710   1.079   8.496 -0.0386  0.0866 -0.6142
   16SAPS  H16X 2120  -0.772   1.166   8.465  1.0636  1.7526  1.5901
   16SAPS  H16Y 2121  -0.607   1.080   8.455 -0.2047 -2.3465 -1.2328
   16SAPS  C317 2122  -0.696   1.082   8.654 -0.0528 -0.3273  0.5277
   16SAPS  H17X 2123  -0.793   1.109   8.702 -0.2310  2.0352 -1.0299
   16SAPS  H17Y 2124  -0.629   1.168   8.670  0.6308  0.1758 -3.8456
   16SAPS  C318 2125  -0.630   0.963   8.726 -0.8584 -0.0545  0.5234
   16SAPS  H18X 2126  -0.584   0.989   8.824 -1.5665  1.1686  0.5510
   16SAPS  H18Y 2127  -0.543   0.929   8.664 -1.1338  1.1884 -0.5884
   16SAPS  H18Z 2128  -0.692   0.871   8.730 -0.3170 -0.4504  0.1057
   17SAPC     N 2129   4.634   5.714  10.820 -0.4296 -0.1822 -0.0873
   17SAPC   C12 2130   4.781   5.710  10.856  0.2971 -0.3998 -0.7892
   17SAPC  H12A 2131   4.786   5.703  10.964 -0.8769 -0.6978 -0.7375
   17SAPC  H12B 2132   4.823   5.806  10.831 -0.0553 -0.1979 -0.6249
   17SAPC   C13 2133   4.616   5.687  10.671  0.5960  0.2422 -0.4677
   17SAPC  H13A 2134   4.630   5.775  10.609  0.5114  0.4802 -0.1528
   17SAPC  H13B 2135   4.666   5.598  10.636 -0.0406 -0.2350 -0.1861
   17SAPC  H13C 2136   4.509   5.671  10.663 -0.3694  3.5350  3.0013
   17SAPC   C14 2137   4.573   5.596  10.881 -0.2545  0.3488 -0.4306
   17SAPC  H14A 2138   4.473   5.580  10.844  1.2160 -0.2586 -4.8212
   17SAPC  H14B 2139   4.631   5.510  10.847 -2.6791 -1.8172  0.5663
   17SAPC  H14C 2140   4.575   5.598  10.989 -3.1825 -1.8288 -0.2063
   17SAPC   C15 2141   4.566   5.846  10.863  0.4113  0.5372 -0.3681
   17SAPC  H15A 2142   4.602   5.932  10.808  1.5499  1.0447  1.0910
   17SAPC  H15B 2143   4.461   5.846  10.836  0.5572 -3.1834 -1.4291
   17SAPC  H15C 2144   4.580   5.868  10.968 -0.0614  0.7634 -0.3495
   17SAPC   C11 2145   4.882   5.609  10.794 -0.8927 -0.2485  0.3908
   17SAPC  H11A 2146   4.841   5.507  10.809  2.1340 -1.7480 -0.6639
   17SAPC  H11B 2147   4.980   5.615  10.846  1.2238  0.0384 -3.2686
   17SAPC     P 2148   4.979   5.739  10.586 -0.3169 -0.2430 -0.1115
   17SAPC   O13 2149   4.935   5.862  10.654  0.0177 -0.4843 -0.2284
   17SAPC   O14 2150   5.124   5.715  10.563  0.7314 -0.7818  0.1441
   17SAPC   O12 2151   4.910   5.619  10.653 -0.0784  0.0629  0.6573
   17SAPC   O11 2152   4.901   5.734  10.446 -0.1956  0.2019  0.8536
   17SAPC    C1 2153   4.850   5.613  10.390 -0.1521  0.4933 -0.3077
   17SAPC    HA 2154   4.931   5.537  10.391 -0.3749  0.2517  1.3202
   17SAPC    HB 2155   4.768   5.580  10.457  2.7613 -0.8318  2.9286
   17SAPC    C2 2156   4.795   5.634  10.248  0.0290  0.0982 -0.4268
   17SAPC    HS 2157   4.756   5.542  10.199  2.1515 -2.5314  2.4792
   17SAPC   O21 2158   4.888   5.710  10.170 -0.1446 -0.3815 -0.0382
   17SAPC   C21 2159   4.992   5.627  10.136 -0.2174 -0.9297 -0.8801
   17SAPC   O22 2160   4.986   5.507  10.146  0.5070 -0.5920  0.2293
   17SAPC   C22 2161   5.101   5.710  10.089 -0.0930 -0.0454  0.3244
   17SAPC   H2R 2162   5.080   5.740   9.984  1.8487  2.1501  0.4875
   17SAPC   H2S 2163   5.111   5.805  10.144  1.2079 -0.3621  0.6648
   17SAPC    C3 2164   4.668   5.728  10.255 -0.8321 -0.7007 -0.5084
   17SAPC    HX 2165   4.627   5.741  10.152 -2.0922 -0.2855  0.0315
   17SAPC    HY 2166   4.708   5.825  10.290  2.0689 -2.1807  0.5569
   17SAPC   O31 2167   4.568   5.671  10.331 -0.2480 -0.3206 -0.1737
   17SAPC   C31 2168   4.504   5.568  10.279  0.2707  0.4242 -0.0410
   17SAPC   O32 2169   4.513   5.520  10.167 -0.1902  0.0233 -0.3795
   17SAPC   C32 2170   4.421   5.501  10.396 -0.3550  0.4433  0.3536
   17SAPC   H2X 2171   4.331   5.566  10.403 -0.3678  0.3849  0.7904
   17SAPC   H2Y 2172   4.475   5.506  10.493 -0.6897  0.6989  0.5313
   17SAPC   C23 2173   5.231   5.636  10.092 -0.3264 -0.5614  0.0939
   17SAPC   H3R 2174   5.217   5.541  10.036 -1.3694  0.1891 -0.9682
   17SAPC   H3S 2175   5.262   5.608  10.195  0.1914 -0.2177  0.0330
   17SAPC   C24 2176   5.340   5.714  10.016 -0.6930  0.4023 -0.3404
   17SAPC   H4R 2177   5.303   5.757   9.920 -1.5253  1.1837  0.3176
   17SAPC   H4S 2178   5.421   5.644   9.986  2.1117  2.9220  0.8585
   17SAPC   C25 2179   5.397   5.821  10.108 -0.0778  0.2414  0.3116
   17SAPC   H5R 2180   5.408   5.790  10.213  1.4053 -0.3454  0.0100
   17SAPC   C26 2181   5.440   5.940  10.057 -0.6064 -0.1326 -0.1852
   17SAPC   H6R 2182   5.492   6.007  10.127  0.8781 -0.1310 -1.2437
   17SAPC   C27 2183   5.436   5.971   9.908 -0.1365  0.1001  0.5722
   17SAPC   H7R 2184   5.479   5.882   9.858  0.2976  0.1536  0.8500
   17SAPC   H7S 2185   5.506   6.056   9.893  0.9806 -0.8330  0.3842
   17SAPC   C28 2186   5.302   6.019   9.846  0.1265 -0.0055  0.2556
   17SAPC   H8R 2187   5.246   6.080   9.919 -1.4513  1.2003 -1.8432
   17SAPC   C29 2188   5.255   5.995   9.725  0.0294 -0.0398  0.4551
   17SAPC   H9R 2189   5.159   6.044   9.701  0.2776 -0.3503 -1.3519
   17SAPC  C210 2190   5.312   5.925   9.614  0.4831  0.0942 -0.1812
   17SAPC  H10R 2191   5.256   5.831   9.596 -1.2278  0.4237  2.8224
   17SAPC  H10S 2192   5.412   5.886   9.643  0.0828 -0.6042  0.2863
   17SAPC  C211 2193   5.319   6.013   9.494  0.3941 -0.1454 -0.4681
   17SAPC  H11R 2194   5.403   6.084   9.489  0.7387 -0.6310 -1.9211
   17SAPC  C212 2195   5.224   6.023   9.396 -0.3803  0.2867 -0.2880
   17SAPC  H12R 2196   5.257   6.086   9.312  1.0485  1.6540  1.2117
   17SAPC  C213 2197   5.093   5.946   9.383 -0.0834 -0.0106 -0.0287
   17SAPC  H13R 2198   5.025   5.976   9.465 -1.9802 -0.3270 -1.4245
   17SAPC  H13S 2199   5.115   5.838   9.399 -1.6362 -0.4397 -0.6082
   17SAPC  C214 2200   5.018   5.947   9.250 -0.4840  0.9893  0.0753
   17SAPC  H14R 2201   4.954   6.033   9.227 -3.0455 -1.0272 -0.8959
   17SAPC  C215 2202   5.029   5.865   9.144  0.7955 -0.1694  0.0037
   17SAPC  H15R 2203   4.952   5.871   9.066  1.6758  1.0395 -0.8073
   17SAPC  C216 2204   5.123   5.743   9.144 -0.1552 -0.3487  0.3729
   17SAPC  H16R 2205   5.064   5.651   9.163  0.0192 -0.5980 -0.2582
   17SAPC  H16S 2206   5.203   5.751   9.220  1.3236  0.2581 -1.1701
   17SAPC  C217 2207   5.211   5.714   9.017 -0.5088  0.0829 -0.1832
   17SAPC  H17R 2208   5.286   5.634   9.031  1.2580  1.4076 -1.5797
   17SAPC  H17S 2209   5.258   5.810   8.989 -0.5638 -0.3514 -1.8830
   17SAPC  C218 2210   5.127   5.665   8.898  0.9436 -0.0488  0.2076
   17SAPC  H18R 2211   5.070   5.757   8.874  1.4236  1.2579  3.5301
   17SAPC  H18S 2212   5.058   5.583   8.927  1.8248 -1.7334 -2.1735
   17SAPC  C219 2213   5.196   5.617   8.776 -0.5276 -0.2614 -0.4013
   17SAPC  H19R 2214   5.248   5.523   8.803 -1.0704  0.0057  1.8115
   17SAPC  H19S 2215   5.273   5.693   8.753  0.3520  0.4756  4.0947
   17SAPC  C220 2216   5.097   5.587   8.661  0.6322 -0.6184  0.3866
   17SAPC  H20R 2217   5.053   5.682   8.622 -0.7794 -0.7548  1.5570
   17SAPC  H20S 2218   5.010   5.529   8.699  1.7242 -2.0164  0.8319
   17SAPC  H20T 2219   5.134   5.529   8.574  0.7117 -0.2879  0.1964
   17SAPC   C33 2220   4.381   5.346  10.378 -0.7532  0.5619  0.7625
   17SAPC   H3X 2221   4.330   5.301  10.466 -4.2878  0.6733 -1.0583
   17SAPC   H3Y 2222   4.481   5.303  10.355 -0.6155  0.9372  0.6454
   17SAPC   C34 2223   4.282   5.323  10.264 -0.0575 -0.7532  0.0076
   17SAPC   H4X 2224   4.295   5.398  10.183  1.7710 -1.2391 -0.1938
   17SAPC   H4Y 2225   4.178   5.346  10.297  0.0410  1.4203 -1.0161
   17SAPC   C35 2226   4.285   5.191  10.192  0.4561 -0.4254 -0.0422
   17SAPC   H5X 2227   4.231   5.114  10.252  1.6848 -1.3408 -0.0586
   17SAPC   H5Y 2228   4.392   5.160  10.192  0.1216 -1.6879  0.9592
   17SAPC   C36 2229   4.226   5.195  10.050  0.2486  0.2536 -0.6509
   17SAPC   H6X 2230   4.137   5.260  10.042 -0.1820 -0.3632 -0.9543
   17SAPC   H6Y 2231   4.194   5.094  10.017  2.0226 -0.9017  0.9343
   17SAPC   C37 2232   4.335   5.238   9.944  0.5260 -0.3731  0.4359
   17SAPC   H7X 2233   4.403   5.151   9.937 -0.5566 -1.1824 -0.3074
   17SAPC   H7Y 2234   4.404   5.320   9.973  1.2912 -1.1503  0.8777
   17SAPC   C38 2235   4.266   5.255   9.802  0.2024 -0.3324 -0.1720
   17SAPC   H8X 2236   4.214   5.353   9.797  0.9973  0.0503 -1.5572
   17SAPC   H8Y 2237   4.201   5.167   9.780  0.7551 -0.5938 -0.8127
   17SAPC   C39 2238   4.367   5.244   9.693 -0.2936 -0.2327  0.3033
   17SAPC   H9X 2239   4.443   5.163   9.698  1.0481  0.7782 -1.9112
   17SAPC   H9Y 2240   4.426   5.338   9.684  1.1579 -0.6614  3.8088
   17SAPC  C310 2241   4.284   5.231   9.561  0.8290 -0.1928 -0.0239
   17SAPC  H10X 2242   4.209   5.312   9.550 -0.4469 -1.3469 -0.0686
   17SAPC  H10Y 2243   4.233   5.133   9.573 -0.0830  0.3555  0.6038
   17SAPC  C311 2244   4.374   5.215   9.432 -0.0584  0.3935  0.3648
   17SAPC  H11X 2245   4.442   5.130   9.455 -0.1176  0.5467  1.1413
   17SAPC  H11Y 2246   4.428   5.310   9.412 -0.4504  0.7132  0.8057
   17SAPC  C312 2247   4.300   5.179   9.300  0.5135 -0.1263 -0.8226
   17SAPC  H12X 2248   4.205   5.236   9.305 -1.1367 -2.8183 -0.0391
   17SAPC  H12Y 2249   4.262   5.075   9.307 -1.2530  0.6015  1.5616
   17SAPC  C313 2250   4.370   5.213   9.166  0.5535  0.0296  0.9076
   17SAPC  H13X 2251   4.475   5.179   9.174  1.2243  0.9135 -2.4395
   17SAPC  H13Y 2252   4.383   5.322   9.149  3.3506 -0.6762 -2.7689
   17SAPC  C314 2253   4.303   5.150   9.043  0.3484 -0.2708 -0.0527
   17SAPC  H14X 2254   4.316   5.210   8.950  0.8770 -0.4068 -0.0681
   17SAPC  H14Y 2255   4.200   5.140   9.083  0.5520  0.6134  0.7369
   17SAPC  C315 2256   4.353   5.012   9.025  0.4673 -0.2596 -0.0329
   17SAPC  H15X 2257   4.309   4.939   9.096  0.0752  0.0147  0.0053
   17SAPC  H15Y 2258   4.464   5.004   9.036  0.4290 -0.0653  0.5056
   17SAPC  C316 2259   4.315   4.973   8.883 -0.1606  0.3471  0.4960
   17SAPC  H16X 2260   4.340   4.866   8.868 -0.8010  0.2550  0.0512
   17SAPC  H16Y 2261   4.376   5.040   8.819 -1.7200  0.9014 -0.4648
   17SAPC  C317 2262   4.171   4.993   8.841 -0.2905  0.3717  0.3746
   17SAPC  H17X 2263   4.169   4.977   8.731 -0.8298  1.6257  0.1780
   17SAPC  H17Y 2264   4.132   5.097   8.847 -1.5126  0.0180 -0.8513
   17SAPC  C318 2265   4.067   4.914   8.922  0.9286  0.0119  0.1094
   17SAPC  H18X 2266   3.965   4.935   8.883 -0.1231 -1.9482  1.5804
   17SAPC  H18Y 2267   4.081   4.803   8.924 -1.3165 -0.3393 -0.5346
   17SAPC  H18Z 2268   4.073   4.930   9.031  2.7123 -1.1467  0.2351
   18SAPC     N 2269   6.358   4.921  11.102 -0.2723 -0.3009  0.4694
   18SAPC   C12 2270   6.290   4.813  11.016 -0.5661  0.2874  0.7417
   18SAPC  H12A 2271   6.294   4.843  10.913 -1.4509 -1.6275  0.0974
   18SAPC  H12B 2272   6.186   4.807  11.046 -0.9417 -2.1858 -0.7782
   18SAPC   C13 2273   6.344   4.896  11.251  0.2374  0.6213  0.4198
   18SAPC  H13A 2274   6.346   4.792  11.280  1.4818  0.1707 -1.1224
   18SAPC  H13B 2275   6.420   4.950  11.306  2.2365 -0.7333 -0.8598
   18SAPC  H13C 2276   6.250   4.923  11.295 -0.7897 -2.0196  0.0147
   18SAPC   C14 2277   6.505   4.925  11.075 -0.8383 -0.7715 -0.3472
   18SAPC  H14A 2278   6.561   4.842  11.114  1.5792  0.2496 -1.4310
   18SAPC  H14B 2279   6.518   4.935  10.968 -0.5213 -1.0094 -0.3343
   18SAPC  H14C 2280   6.554   5.012  11.116  0.0081 -1.4632  0.1391
   18SAPC   C15 2281   6.292   5.063  11.077 -0.0707  1.0020  0.3682
   18SAPC  H15A 2282   6.188   5.036  11.089  0.2867 -0.9916 -0.5088
   18SAPC  H15B 2283   6.323   5.142  11.144  1.6374  0.7470 -0.0676
   18SAPC  H15C 2284   6.307   5.095  10.975  0.2678 -0.8084 -0.1885
   18SAPC   C11 2285   6.338   4.658  11.025  0.4105  0.3045 -0.1650
   18SAPC  H11A 2286   6.263   4.601  10.966  0.1399 -0.0852  0.5493
   18SAPC  H11B 2287   6.337   4.642  11.135 -1.9924  0.6788 -0.0794
   18SAPC     P 2288   6.483   4.637  10.808 -0.1421  0.2288  0.1798
   18SAPC   O13 2289   6.464   4.781  10.776  0.1230  0.5451 -0.4921
   18SAPC   O14 2290   6.616   4.576  10.780  0.2561  0.4573  0.1332
   18SAPC   O12 2291   6.470   4.643  10.961 -0.4616  0.3109 -0.3484
   18SAPC   O11 2292   6.358   4.553  10.756 -1.0990 -0.2115 -0.4606
   18SAPC    C1 2293   6.302   4.559  10.627  0.6537  0.1153 -0.0457
   18SAPC    HA 2294   6.215   4.490  10.631 -0.4153  1.4716  3.2782
   18SAPC    HB 2295   6.266   4.660  10.599 -0.6237 -0.6779 -1.4168
   18SAPC    C2 2296   6.398   4.518  10.513  0.2795  0.2259 -0.4111
   18SAPC    HS 2297   6.447   4.422  10.540  0.0352  0.3311  0.4295
   18SAPC   O21 2298   6.493   4.622  10.488 -0.5655  0.1838  0.5875
   18SAPC   C21 2299   6.615   4.578  10.445 -0.5400 -0.3698  0.5867
   18SAPC   O22 2300   6.647   4.458  10.449 -0.9064  0.1557 -0.5517
   18SAPC   C22 2301   6.707   4.688  10.395  0.0199  0.4782 -0.2212
   18SAPC   H2R 2302   6.760   4.737  10.479 -0.7341  1.1584 -0.1240
   18SAPC   H2S 2303   6.779   4.632  10.332 -1.0581  0.0384 -1.1099
   18SAPC    C3 2304   6.318   4.476  10.385  0.1732 -0.2509  0.4340
   18SAPC    HX 2305   6.286   4.575  10.346  2.0130  0.7019  1.1854
   18SAPC    HY 2306   6.225   4.424  10.417 -1.1771  0.2032 -2.4193
   18SAPC   O31 2307   6.397   4.401  10.286 -0.4172 -0.1042  0.0479
   18SAPC   C31 2308   6.332   4.348  10.180 -0.8332 -0.6775 -0.6343
   18SAPC   O32 2309   6.211   4.336  10.169  0.1932 -0.2091  0.3886
   18SAPC   C32 2310   6.438   4.326  10.070 -0.1093 -0.4184  0.2612
   18SAPC   H2X 2311   6.520   4.263  10.108  1.3417  1.4170  0.3329
   18SAPC   H2Y 2312   6.485   4.423  10.041  1.9864 -0.9817  1.5620
   18SAPC   C23 2313   6.629   4.800  10.322  0.5644 -0.1409 -0.0060
   18SAPC   H3R 2314   6.700   4.875  10.281 -0.7813  1.6501  0.7858
   18SAPC   H3S 2315   6.567   4.849  10.401  0.3032  0.7944 -0.7752
   18SAPC   C24 2316   6.529   4.756  10.209 -0.2234  0.3458  0.5624
   18SAPC   H4R 2317   6.451   4.835  10.203 -0.8311 -0.3657 -1.5270
   18SAPC   H4S 2318   6.474   4.664  10.240 -3.5708  1.8376 -0.4615
   18SAPC   C25 2319   6.607   4.740  10.073  0.4635 -0.4812 -0.4355
   18SAPC   H5R 2320   6.653   4.641  10.061  0.4800 -0.3609 -1.5234
   18SAPC   C26 2321   6.575   4.824   9.971 -0.3687 -0.2897  0.4389
   18SAPC   H6R 2322   6.622   4.813   9.872  0.2290  2.2178  0.3830
   18SAPC   C27 2323   6.482   4.945   9.980  0.1505 -0.6494  0.7096
   18SAPC   H7R 2324   6.503   5.006  10.070  1.4244 -0.3404  0.2228
   18SAPC   H7S 2325   6.380   4.901   9.976 -0.6241  1.1068 -0.0095
   18SAPC   C28 2326   6.497   5.040   9.863  0.1814 -0.4770  0.0471
   18SAPC   H8R 2327   6.601   5.057   9.832  0.1111  0.8421  0.4760
   18SAPC   C29 2328   6.398   5.111   9.799 -0.5803  0.0805  0.4848
   18SAPC   H9R 2329   6.417   5.188   9.723 -1.2656  1.3483  1.5584
   18SAPC  C210 2330   6.257   5.105   9.844 -1.2032 -0.6773  0.4142
   18SAPC  H10R 2331   6.253   5.177   9.928 -1.1498 -0.1112 -0.0649
   18SAPC  H10S 2332   6.226   5.008   9.888 -1.3009 -0.9753 -0.2928
   18SAPC  C211 2333   6.158   5.144   9.737 -0.8521  0.1691 -0.0281
   18SAPC  H11R 2334   6.198   5.151   9.635 -1.0575  2.8309 -0.0053
   18SAPC  C212 2335   6.031   5.174   9.750  0.4547 -0.7984 -0.3955
   18SAPC  H12R 2336   5.978   5.205   9.659  1.9916  0.6895 -0.8456
   18SAPC  C213 2337   5.952   5.167   9.876 -0.3694  0.1565  0.3857
   18SAPC  H13R 2338   5.897   5.262   9.888  0.6175  0.8842 -0.6429
   18SAPC  H13S 2339   6.025   5.177   9.960  1.8761  1.0261 -1.5413
   18SAPC  C214 2340   5.864   5.040   9.884 -0.6002 -0.5463 -0.2897
   18SAPC  H14R 2341   5.892   4.968   9.963  0.4109 -0.7077 -0.7803
   18SAPC  C215 2342   5.746   5.021   9.820 -1.0197 -1.1018  0.1676
   18SAPC  H15R 2343   5.687   4.935   9.856  0.0739 -2.0205 -0.1693
   18SAPC  C216 2344   5.676   5.124   9.729  0.4163 -0.4124  0.2701
   18SAPC  H16R 2345   5.706   5.104   9.624  0.3155 -1.2206  0.3873
   18SAPC  H16S 2346   5.706   5.228   9.754 -2.9211  0.6243  0.4859
   18SAPC  C217 2347   5.520   5.111   9.724  0.4321  0.1825  0.5161
   18SAPC  H17R 2348   5.483   5.012   9.688 -1.4587  0.4582  1.5254
   18SAPC  H17S 2349   5.504   5.192   9.650 -0.6227 -0.6513 -0.2176
   18SAPC  C218 2350   5.466   5.136   9.866  0.2768  0.6151 -0.0587
   18SAPC  H18R 2351   5.523   5.219   9.914 -0.8450  1.8646 -0.8119
   18SAPC  H18S 2352   5.472   5.046   9.930 -0.1068  0.1485 -0.6639
   18SAPC  C219 2353   5.318   5.184   9.873  0.0836  0.6902  1.1077
   18SAPC  H19R 2354   5.247   5.112   9.828 -2.4589  1.6312  3.2894
   18SAPC  H19S 2355   5.304   5.286   9.830 -1.3219  0.3001  0.5857
   18SAPC  C220 2356   5.274   5.194  10.021  0.1418 -0.5105 -0.1229
   18SAPC  H20R 2357   5.164   5.198  10.029  0.1811 -0.2010  0.2678
   18SAPC  H20S 2358   5.319   5.285  10.065  1.1302 -0.2782 -1.5195
   18SAPC  H20T 2359   5.291   5.103  10.082  0.6243  0.3680  1.0864
   18SAPC   C33 2360   6.369   4.284   9.937  0.0587 -0.1619 -0.4514
   18SAPC   H3X 2361   6.328   4.379   9.895  1.2505 -0.9881 -3.8279
   18SAPC   H3Y 2362   6.282   4.216   9.946 -1.8963  2.4027  1.7447
   18SAPC   C34 2363   6.472   4.225   9.841 -0.3915  0.1105  0.4274
   18SAPC   H4X 2364   6.518   4.130   9.875 -1.1954 -0.9133 -1.1944
   18SAPC   H4Y 2365   6.546   4.305   9.824 -0.5419  0.4236  1.2318
   18SAPC   C35 2366   6.405   4.208   9.701  0.4467 -0.0625  0.4776
   18SAPC   H5X 2367   6.384   4.314   9.677  1.6643  1.1228  3.9712
   18SAPC   H5Y 2368   6.309   4.153   9.710 -0.9676  1.9107 -1.7389
   18SAPC   C36 2369   6.484   4.148   9.584  0.8936  0.0489 -1.2255
   18SAPC   H6X 2370   6.584   4.196   9.581  1.2501 -0.6703 -1.0458
   18SAPC   H6Y 2371   6.436   4.175   9.487 -1.3921  0.2248 -0.1194
   18SAPC   C37 2372   6.500   3.998   9.600 -0.4687  0.2751  0.0317
   18SAPC   H7X 2373   6.410   3.948   9.560 -0.4504 -0.5860  1.0318
   18SAPC   H7Y 2374   6.503   3.971   9.708  2.2461  3.1527  0.8341
   18SAPC   C38 2375   6.640   3.948   9.546 -0.3108 -0.1865  0.5579
   18SAPC   H8X 2376   6.683   3.872   9.615 -1.9830 -1.9363 -0.2373
   18SAPC   H8Y 2377   6.712   4.031   9.558  0.7654 -1.2776  2.0851
   18SAPC   C39 2378   6.626   3.899   9.402  0.0124  0.4440 -0.4997
   18SAPC   H9X 2379   6.575   3.973   9.337 -1.3511 -1.2104 -1.3512
   18SAPC   H9Y 2380   6.562   3.811   9.385 -1.6391  1.4792  0.0757
   18SAPC  C310 2381   6.758   3.869   9.338  0.0210  0.6025  0.1284
   18SAPC  H10X 2382   6.817   3.807   9.409  0.5208  1.0859  0.1438
   18SAPC  H10Y 2383   6.806   3.967   9.316 -0.0978  1.1439  2.0963
   18SAPC  C311 2384   6.746   3.778   9.219 -0.3152 -0.2970 -0.4318
   18SAPC  H11X 2385   6.717   3.679   9.259 -1.7923  0.4929  0.5526
   18SAPC  H11Y 2386   6.849   3.765   9.179 -0.7446  0.4481 -1.8345
   18SAPC  C312 2387   6.648   3.828   9.115 -0.8930 -0.8987  0.8745
   18SAPC  H12X 2388   6.665   3.937   9.104  3.1225 -1.4563  0.3119
   18SAPC  H12Y 2389   6.545   3.813   9.155 -0.3486 -1.0089  2.3147
   18SAPC  C313 2390   6.683   3.764   8.976 -0.5385 -0.5113  0.1013
   18SAPC  H13X 2391   6.791   3.781   8.958 -0.9946  0.7782 -1.7017
   18SAPC  H13Y 2392   6.623   3.820   8.901  1.4922  3.2973  1.0622
   18SAPC  C314 2393   6.668   3.613   8.958 -0.4159 -0.6229 -1.3337
   18SAPC  H14X 2394   6.565   3.587   8.992  0.8627 -1.9217  1.9443
   18SAPC  H14Y 2395   6.739   3.556   9.021 -1.0845 -2.2122 -1.9706
   18SAPC  C315 2396   6.689   3.570   8.819  0.2087 -0.1383  0.0547
   18SAPC  H15X 2397   6.797   3.581   8.796  0.0611 -1.5150 -1.4280
   18SAPC  H15Y 2398   6.639   3.644   8.753  2.5141  2.6983  1.2378
   18SAPC  C316 2399   6.652   3.418   8.788  0.0034 -0.3050 -0.1132
   18SAPC  H16X 2400   6.546   3.394   8.810  0.1769 -0.1737  0.9387
   18SAPC  H16Y 2401   6.722   3.369   8.860  0.8325 -0.9809 -1.3444
   18SAPC  C317 2402   6.700   3.389   8.649 -0.1527 -0.2988 -0.3855
   18SAPC  H17X 2403   6.805   3.418   8.629 -0.3422 -0.7221 -2.0963
   18SAPC  H17Y 2404   6.650   3.453   8.573 -1.2558  1.5539  1.7781
   18SAPC  C318 2405   6.694   3.244   8.621  0.1467 -0.0806 -0.2680
   18SAPC  H18X 2406   6.624   3.216   8.540 -0.5936 -0.8098  0.6036
   18SAPC  H18Y 2407   6.688   3.182   8.713  0.3291 -1.1090 -0.9305
   18SAPC  H18Z 2408   6.788   3.208   8.575 -0.7916 -4.3944  0.7946
   19SAPC     N 2409   3.439   0.494  10.725  0.1707  0.4728  0.3572
   19SAPC   C12 2410   3.491   0.555  10.598 -0.4581 -0.1329  0.5287
   19SAPC  H12A 2411   3.473   0.661  10.606  0.4627  0.1635 -0.9292
   19SAPC  H12B 2412   3.427   0.530  10.514  0.8497  3.0949 -1.6562
   19SAPC   C13 2413   3.300   0.547  10.749  0.0392  0.1039 -0.1524
   19SAPC  H13A 2414   3.285   0.642  10.700  1.8438  0.5861  0.1644
   19SAPC  H13B 2415   3.234   0.472  10.708  0.9921 -1.0464  0.3422
   19SAPC  H13C 2416   3.282   0.557  10.854 -0.3080  2.1865 -0.3799
   19SAPC   C14 2417   3.444   0.342  10.721  0.3543 -0.3836 -0.4043
   19SAPC  H14A 2418   3.547   0.316  10.706  1.0367  2.9460 -2.4834
   19SAPC  H14B 2419   3.408   0.305  10.815  0.4002 -1.5225 -0.8181
   19SAPC  H14C 2420   3.396   0.296  10.635  0.8436 -1.6656 -0.0120
   19SAPC   C15 2421   3.530   0.535  10.843  0.1076  0.3391 -0.4842
   19SAPC  H15A 2422   3.515   0.461  10.920 -3.1000 -0.0164 -1.3122
   19SAPC  H15B 2423   3.637   0.539  10.829  0.3463  2.5324  1.3258
   19SAPC  H15C 2424   3.492   0.628  10.882 -0.0241 -0.4620  1.4063
   19SAPC   C11 2425   3.643   0.531  10.559 -0.2259 -0.5080  0.4438
   19SAPC  H11A 2426   3.697   0.579  10.644 -0.0276  1.3129 -0.6494
   19SAPC  H11B 2427   3.667   0.587  10.465  0.8843 -2.5315 -0.5366
   19SAPC     P 2428   3.818   0.362  10.497 -0.2916  0.0229 -0.3587
   19SAPC   O13 2429   3.903   0.473  10.452  0.7452  0.2626  0.5503
   19SAPC   O14 2430   3.874   0.290  10.618 -0.0776  0.2769 -0.1780
   19SAPC   O12 2431   3.671   0.398  10.541  0.2361  0.6186  0.4791
   19SAPC   O11 2432   3.799   0.272  10.372 -0.2787  0.9997  0.5055
   19SAPC    C1 2433   3.666   0.213  10.343 -0.5197  0.0709  0.2155
   19SAPC    HA 2434   3.688   0.112  10.304  0.4001  0.7587 -1.1125
   19SAPC    HB 2435   3.605   0.198  10.434  0.3054  0.3723  0.8348
   19SAPC    C2 2436   3.584   0.285  10.228  0.1317 -0.4320 -0.4052
   19SAPC    HS 2437   3.501   0.223  10.189 -1.9342  2.6646 -1.3616
   19SAPC   O21 2438   3.678   0.315  10.124  0.6529 -0.0128 -0.0219
   19SAPC   C21 2439   3.728   0.205  10.063  0.0091 -0.7290 -0.1936
   19SAPC   O22 2440   3.700   0.087  10.076 -1.2575 -0.2880 -0.3775
   19SAPC   C22 2441   3.839   0.252   9.966  0.5690 -0.0234  0.6053
   19SAPC   H2R 2442   3.791   0.332   9.905  0.7334  0.9747  1.7461
   19SAPC   H2S 2443   3.927   0.290  10.022  1.2149  0.9719 -1.0187
   19SAPC    C3 2444   3.519   0.415  10.276 -0.3911  0.3282 -0.3105
   19SAPC    HX 2445   3.602   0.488  10.290  0.9711 -1.1787 -0.2248
   19SAPC    HY 2446   3.477   0.390  10.376  0.0962  0.8607  0.0378
   19SAPC   O31 2447   3.418   0.456  10.183  0.1500  0.2156 -0.2816
   19SAPC   C31 2448   3.368   0.581  10.217 -0.5187  0.5346 -0.0731
   19SAPC   O32 2449   3.388   0.638  10.317 -0.0211 -0.3252  0.4383
   19SAPC   C32 2450   3.289   0.644  10.097 -0.1704 -0.0997  0.4227
   19SAPC   H2X 2451   3.360   0.708  10.041 -0.7072 -0.4259 -0.6642
   19SAPC   H2Y 2452   3.208   0.708  10.137  0.4683  0.6236  0.5884
   19SAPC   C23 2453   3.897   0.143   9.881  0.1809 -0.0118 -0.2500
   19SAPC   H3R 2454   3.813   0.079   9.847 -0.5023  0.9091 -0.3197
   19SAPC   H3S 2455   3.963   0.082   9.947 -1.3163 -2.8033 -1.1485
   19SAPC   C24 2456   3.976   0.188   9.758 -0.2973  0.1780  0.7958
   19SAPC   H4R 2457   4.071   0.239   9.785 -0.4772 -0.4520  2.7668
   19SAPC   H4S 2458   3.925   0.274   9.709  0.0737  0.2508  0.5276
   19SAPC   C25 2459   4.001   0.069   9.661 -0.1942  0.0530  0.0649
   19SAPC   H5R 2460   4.031  -0.027   9.705  0.6995  0.5308  0.5051
   19SAPC   C26 2461   3.985   0.066   9.526 -0.0974 -0.0391 -0.4830
   19SAPC   H6R 2462   4.014  -0.025   9.472 -0.6028 -1.0147  0.8148
   19SAPC   C27 2463   3.931   0.174   9.435 -0.4694  0.0932  0.5325
   19SAPC   H7R 2464   3.911   0.276   9.475  0.7088  0.2388  0.7915
   19SAPC   H7S 2465   3.835   0.137   9.396 -0.7833 -0.9760  2.2310
   19SAPC   C28 2466   4.026   0.199   9.320 -0.7421  0.4474  0.5261
   19SAPC   H8R 2467   4.136   0.210   9.326 -0.7232  1.8263 -1.3520
   19SAPC   C29 2468   3.992   0.200   9.192  0.7982 -0.2018  0.1521
   19SAPC   H9R 2469   4.070   0.227   9.120 -0.6573 -0.9966 -1.8235
   19SAPC  C210 2470   3.846   0.179   9.135 -0.1092 -0.0770 -0.1915
   19SAPC  H10R 2471   3.809   0.268   9.081  1.2537  2.3509  2.5829
   19SAPC  H10S 2472   3.771   0.166   9.216 -0.1113 -2.1728 -0.4842
   19SAPC  C211 2473   3.840   0.066   9.039 -0.3705  0.1370 -0.5158
   19SAPC  H11R 2474   3.812  -0.026   9.093 -1.5892  1.9804  2.1709
   19SAPC  C212 2475   3.845   0.063   8.904 -0.1628 -0.1064 -1.0043
   19SAPC  H12R 2476   3.831  -0.038   8.863  0.9592 -1.3789  1.4974
   19SAPC  C213 2477   3.867   0.181   8.811 -0.2124 -0.0942  0.0988
   19SAPC  H13R 2478   3.898   0.270   8.869  2.3637 -1.7105  1.3659
   19SAPC  H13S 2479   3.766   0.211   8.774 -0.5408  0.2182  1.2294
   19SAPC  C214 2480   3.959   0.146   8.695  1.0115 -0.6987 -0.3112
   19SAPC  H14R 2481   3.987   0.040   8.681 -0.4281 -0.7227 -4.4670
   19SAPC  C215 2482   3.992   0.231   8.600  0.3069  0.1272 -0.1069
   19SAPC  H15R 2483   4.055   0.188   8.520  0.6772 -0.8467  0.6841
   19SAPC  C216 2484   3.946   0.375   8.586  0.0085  0.3010  0.4086
   19SAPC  H16R 2485   4.028   0.448   8.603 -1.1003  1.4042  1.1405
   19SAPC  H16S 2486   3.878   0.403   8.669  1.7811  0.1941  1.9927
   19SAPC  C217 2487   3.878   0.397   8.448 -0.7942 -0.1190  0.1987
   19SAPC  H17R 2488   3.829   0.497   8.451 -1.6517 -0.5202 -0.1562
   19SAPC  H17S 2489   3.796   0.324   8.428 -0.1872 -0.9988  0.8502
   19SAPC  C218 2490   3.993   0.414   8.348 -0.6993 -0.2566 -0.0296
   19SAPC  H18R 2491   4.045   0.320   8.319 -2.2629 -0.8926 -0.9173
   19SAPC  H18S 2492   4.061   0.484   8.400 -0.2794 -2.4999  2.6773
   19SAPC  C219 2493   3.951   0.481   8.221  0.7150 -0.0495 -0.5863
   19SAPC  H19R 2494   4.022   0.450   8.142  0.9882 -1.1729  0.0874
   19SAPC  H19S 2495   3.953   0.592   8.231 -1.8223  0.0019  0.2480
   19SAPC  C220 2496   3.809   0.450   8.165 -0.3103  0.1439  0.5205
   19SAPC  H20R 2497   3.735   0.497   8.235  0.1378 -0.6296  1.5413
   19SAPC  H20S 2498   3.790   0.341   8.177 -0.9241 -0.0827 -1.9692
   19SAPC  H20T 2499   3.791   0.473   8.058 -0.3365 -0.8067  0.3136
   19SAPC   C33 2500   3.241   0.541   9.993  0.5649  0.3991 -0.0719
   19SAPC   H3X 2501   3.159   0.474  10.026 -0.3281  1.0442 -0.9468
   19SAPC   H3Y 2502   3.326   0.471   9.974  0.1510 -0.8163  2.1178
   19SAPC   C34 2503   3.195   0.598   9.859 -0.3731  0.7152 -0.0601
   19SAPC   H4X 2504   3.261   0.667   9.802 -1.1974  1.5293 -0.0641
   19SAPC   H4Y 2505   3.102   0.659   9.864 -0.7651  0.0774  0.5105
   19SAPC   C35 2506   3.169   0.481   9.767  1.1388  0.2191  0.4527
   19SAPC   H5X 2507   3.102   0.411   9.822 -1.1699  1.4638 -0.6511
   19SAPC   H5Y 2508   3.259   0.421   9.740  1.8007  0.0593  2.8446
   19SAPC   C36 2509   3.089   0.530   9.642  0.9755 -0.2762  0.6985
   19SAPC   H6X 2510   3.172   0.557   9.574 -1.0085 -1.8919 -2.5904
   19SAPC   H6Y 2511   3.017   0.611   9.667  0.7942  0.5167 -2.0641
   19SAPC   C37 2512   3.005   0.419   9.568 -0.7785 -0.2318 -0.0426
   19SAPC   H7X 2513   2.930   0.384   9.642  0.3765  1.2150  1.9039
   19SAPC   H7Y 2514   3.070   0.334   9.540  1.4226  1.8099 -1.5198
   19SAPC   C38 2515   2.954   0.468   9.432  0.2614  0.9370 -0.1241
   19SAPC   H8X 2516   2.914   0.569   9.453 -2.2910 -0.0170 -0.1002
   19SAPC   H8Y 2517   2.865   0.408   9.405  0.8972 -0.0922  0.0191
   19SAPC   C39 2518   3.062   0.454   9.324 -0.1378  0.3108  0.3474
   19SAPC   H9X 2519   3.088   0.346   9.328  0.4870  0.5030  2.5947
   19SAPC   H9Y 2520   3.158   0.501   9.356 -0.1807  1.1348 -0.6859
   19SAPC  C310 2521   3.024   0.509   9.189 -0.1890  0.3359  0.1337
   19SAPC  H10X 2522   2.987   0.612   9.208 -0.5526  0.6398 -1.9767
   19SAPC  H10Y 2523   2.939   0.455   9.142 -0.3046  1.7361 -1.3480
   19SAPC  C311 2524   3.142   0.503   9.096  0.5937 -0.0755 -0.1654
   19SAPC  H11X 2525   3.175   0.399   9.117 -1.8620 -0.2573  3.9029
   19SAPC  H11Y 2526   3.214   0.576   9.139 -0.1898  0.8869 -0.4618
   19SAPC  C312 2527   3.110   0.532   8.947 -0.2205  0.0717  0.4214
   19SAPC  H12X 2528   3.064   0.633   8.943  2.3620  1.2830 -0.7962
   19SAPC  H12Y 2529   3.031   0.461   8.913  0.0030 -1.3647  2.7304
   19SAPC  C313 2530   3.220   0.517   8.841 -0.1119 -1.0025  0.2205
   19SAPC  H13X 2531   3.248   0.409   8.836 -1.3391 -1.3040 -0.4887
   19SAPC  H13Y 2532   3.312   0.561   8.885 -0.8451  0.5541  0.2374
   19SAPC  C314 2533   3.190   0.582   8.708 -0.6278  0.1737  0.2439
   19SAPC  H14X 2534   3.163   0.689   8.720  1.0378  0.5550  0.9554
   19SAPC  H14Y 2535   3.109   0.534   8.649 -1.6439  2.2807 -0.1507
   19SAPC  C315 2536   3.321   0.555   8.629  1.1805 -0.2350  0.2792
   19SAPC  H15X 2537   3.334   0.444   8.630  1.5216 -0.2302 -1.3942
   19SAPC  H15Y 2538   3.406   0.607   8.679  1.0282  1.3359 -1.0295
   19SAPC  C316 2539   3.310   0.614   8.485 -0.2239 -0.2970  0.0729
   19SAPC  H16X 2540   3.312   0.725   8.488 -1.4447 -0.2773  0.5513
   19SAPC  H16Y 2541   3.206   0.597   8.449 -0.3054 -2.3441  1.1171
   19SAPC  C317 2542   3.410   0.564   8.380 -0.2427 -0.6429 -0.4778
   19SAPC  H17X 2543   3.512   0.556   8.424  0.2205  0.7044 -1.2510
   19SAPC  H17Y 2544   3.419   0.639   8.299 -0.5920  0.0153  0.0768
   19SAPC  C318 2545   3.361   0.429   8.327 -0.1956 -0.1714  0.3303
   19SAPC  H18X 2546   3.439   0.393   8.256  0.7357  2.7823 -0.2795
   19SAPC  H18Y 2547   3.260   0.443   8.283 -0.9612 -0.7469  1.8168
   19SAPC  H18Z 2548   3.363   0.359   8.413  0.6162  1.4591  1.6857
   20SAPC     N 2549   3.455   4.282  11.084  0.0449  0.6634 -0.1982
   20SAPC   C12 2550   3.454   4.313  10.936 -0.2997 -0.0720  0.2654
   20SAPC  H12A 2551   3.453   4.418  10.914 -0.0446 -0.1011  0.1052
   20SAPC  H12B 2552   3.364   4.272  10.892  0.7591 -0.1739 -1.9524
   20SAPC   C13 2553   3.407   4.141  11.106 -0.4409 -0.4604 -0.3736
   20SAPC  H13A 2554   3.312   4.135  11.054 -0.3870 -1.6142 -0.3503
   20SAPC  H13B 2555   3.474   4.066  11.068  0.0542  0.5519 -1.5418
   20SAPC  H13C 2556   3.386   4.124  11.211  1.8992 -0.6833  0.1109
   20SAPC   C14 2557   3.585   4.305  11.150 -0.3871  0.3779  0.3988
   20SAPC  H14A 2558   3.657   4.285  11.073 -0.2803  0.0735  0.5751
   20SAPC  H14B 2559   3.599   4.404  11.193 -0.9472 -0.7290  3.3398
   20SAPC  H14C 2560   3.596   4.239  11.235  2.8323  0.2798  0.0361
   20SAPC   C15 2561   3.362   4.370  11.150 -1.0545  0.3011  0.2559
   20SAPC  H15A 2562   3.364   4.343  11.254 -0.1695  0.4550  0.2903
   20SAPC  H15B 2563   3.396   4.473  11.150  1.4146 -0.4477  0.3556
   20SAPC  H15C 2564   3.262   4.365  11.109 -1.0158 -1.5756  0.3244
   20SAPC   C11 2565   3.566   4.260  10.846 -0.3477  0.1521  0.0340
   20SAPC  H11A 2566   3.548   4.287  10.740  3.2525 -1.6153 -1.1894
   20SAPC  H11B 2567   3.566   4.149  10.843  0.1388  0.1612 -2.7124
   20SAPC     P 2568   3.768   4.430  10.839  0.1419  0.2771 -0.0348
   20SAPC   O13 2569   3.748   4.544  10.938  0.3168  0.3125  0.3399
   20SAPC   O14 2570   3.905   4.392  10.796 -0.1645  0.4951 -0.9398
   20SAPC   O12 2571   3.692   4.308  10.892 -0.2496  0.4243  0.5596
   20SAPC   O11 2572   3.691   4.475  10.712  0.4445 -0.3196 -0.0221
   20SAPC    C1 2573   3.748   4.517  10.587  0.0066 -1.0749 -0.3024
   20SAPC    HA 2574   3.680   4.587  10.535  3.7008  1.7067 -1.8669
   20SAPC    HB 2575   3.833   4.586  10.604 -2.8962  2.2500  2.2279
   20SAPC    C2 2576   3.771   4.402  10.483  0.5430 -0.2886 -0.6479
   20SAPC    HS 2577   3.856   4.344  10.524  0.7946 -0.8989 -1.9940
   20SAPC   O21 2578   3.789   4.463  10.357  0.0742 -0.2343  0.7298
   20SAPC   C21 2579   3.920   4.473  10.312 -0.1484 -0.2462  0.2900
   20SAPC   O22 2580   4.016   4.438  10.378 -0.1669  0.1534  0.2365
   20SAPC   C22 2581   3.921   4.536  10.173  0.1716 -0.4645 -0.8811
   20SAPC   H2R 2582   3.888   4.453  10.107 -0.5830 -0.6569 -0.2775
   20SAPC   H2S 2583   3.840   4.611  10.181  1.3209  0.6772  1.3644
   20SAPC    C3 2584   3.650   4.303  10.472 -0.1603  0.1652  0.1713
   20SAPC    HX 2585   3.555   4.361  10.474  0.0641  0.5295  1.6712
   20SAPC    HY 2586   3.641   4.242  10.565  2.0756  1.6864  1.4631
   20SAPC   O31 2587   3.657   4.226  10.353  0.5461  0.3786  0.0416
   20SAPC   C31 2588   3.741   4.119  10.365  0.1696 -0.4029 -0.2154
   20SAPC   O32 2589   3.816   4.101  10.457  0.7607 -0.4833 -0.3702
   20SAPC   C32 2590   3.706   4.016  10.261  0.1190  0.1006 -0.5451
   20SAPC   H2X 2591   3.596   4.025  10.245 -0.4201 -2.0800  1.5106
   20SAPC   H2Y 2592   3.726   3.914  10.300 -3.0353  0.1073  1.4373
   20SAPC   C23 2593   4.056   4.586  10.133  0.2870  0.1555  0.3732
   20SAPC   H3R 2594   4.124   4.608  10.218  0.6799 -1.0050  0.3661
   20SAPC   H3S 2595   4.033   4.678  10.073  1.1058 -0.0959 -0.3367
   20SAPC   C24 2596   4.117   4.477  10.040  0.0996  0.1514 -0.2817
   20SAPC   H4R 2597   4.056   4.456   9.949 -0.1177 -0.7383  0.0573
   20SAPC   H4S 2598   4.112   4.382  10.096  0.1701 -0.0174 -0.5569
   20SAPC   C25 2599   4.255   4.519   9.991 -0.3478  0.2068  0.0612
   20SAPC   H5R 2600   4.319   4.532  10.079 -1.5561  2.1889  0.7275
   20SAPC   C26 2601   4.299   4.537   9.864 -0.5678 -0.0577  0.5634
   20SAPC   H6R 2602   4.406   4.546   9.842 -0.4994  2.7269  1.6163
   20SAPC   C27 2603   4.215   4.523   9.742  0.9090  0.8244  0.5082
   20SAPC   H7R 2604   4.167   4.422   9.741 -1.6584  1.9623 -0.2452
   20SAPC   H7S 2605   4.284   4.533   9.655  1.0406  0.0413  0.5090
   20SAPC   C28 2606   4.104   4.621   9.729  0.2697 -0.1070 -0.3636
   20SAPC   H8R 2607   4.058   4.641   9.827  0.5248  0.5033 -0.3636
   20SAPC   C29 2608   4.054   4.672   9.615 -0.3275  0.4944 -0.4073
   20SAPC   H9R 2609   3.991   4.761   9.621 -0.4072  0.4349 -0.3616
   20SAPC  C210 2610   4.091   4.635   9.474 -0.2441 -0.2377  0.1559
   20SAPC  H10R 2611   4.001   4.659   9.412 -0.9058 -2.0854  0.3472
   20SAPC  H10S 2612   4.111   4.526   9.467 -0.6750 -0.3387  0.4223
   20SAPC  C211 2613   4.199   4.726   9.417 -0.7648 -0.8178  0.2587
   20SAPC  H11R 2614   4.217   4.819   9.474 -3.6333 -1.5245  2.5610
   20SAPC  C212 2615   4.273   4.699   9.306  0.1044  0.2517  0.0474
   20SAPC  H12R 2616   4.355   4.768   9.283 -0.7288  2.4550  3.1226
   20SAPC  C213 2617   4.242   4.579   9.223 -0.0379  0.5163  0.6628
   20SAPC  H13R 2618   4.244   4.485   9.282 -2.2978  0.6204  0.9731
   20SAPC  H13S 2619   4.332   4.567   9.159  0.5312 -0.3967  1.6054
   20SAPC  C214 2620   4.114   4.575   9.147  0.0055  0.3925 -0.6767
   20SAPC  H14R 2621   4.032   4.640   9.179 -0.1939 -0.1548 -0.0479
   20SAPC  C215 2622   4.094   4.499   9.040 -0.4571  0.5240  0.2195
   20SAPC  H15R 2623   4.006   4.494   8.974 -0.0623 -0.8643 -0.2307
   20SAPC  C216 2624   4.193   4.394   8.992  0.0268  0.6537 -0.2495
   20SAPC  H16R 2625   4.156   4.290   9.007  0.6454  0.5708  0.8342
   20SAPC  H16S 2626   4.288   4.391   9.050  0.8907 -2.0572 -1.6497
   20SAPC  C217 2627   4.241   4.417   8.844 -0.2307  0.0799 -0.2769
   20SAPC  H17R 2628   4.151   4.412   8.780  0.9336  0.5862 -2.0306
   20SAPC  H17S 2629   4.309   4.334   8.814  0.3207  0.2857  0.3588
   20SAPC  C218 2630   4.330   4.544   8.828  0.3544 -0.6002  0.1007
   20SAPC  H18R 2631   4.410   4.536   8.904  0.5189  0.5863  0.0655
   20SAPC  H18S 2632   4.268   4.636   8.836  2.1322  0.7333 -0.7692
   20SAPC  C219 2633   4.410   4.546   8.701  0.3559 -1.1089  0.3271
   20SAPC  H19R 2634   4.474   4.455   8.707  1.5497 -0.3137  0.1919
   20SAPC  H19S 2635   4.494   4.616   8.721 -1.3436  1.1227 -0.0713
   20SAPC  C220 2636   4.346   4.561   8.560 -0.1214  0.4825  0.0330
   20SAPC  H20R 2637   4.312   4.460   8.529  3.2044 -0.1485 -2.1176
   20SAPC  H20S 2638   4.428   4.589   8.491 -0.9607  1.1085 -0.7286
   20SAPC  H20T 2639   4.270   4.641   8.552  0.8350  1.4689  0.4674
   20SAPC   C33 2640   3.785   4.053  10.131 -0.5414  0.2891  0.2466
   20SAPC   H3X 2641   3.798   3.959  10.072 -1.3421  0.4204 -0.1477
   20SAPC   H3Y 2642   3.888   4.090  10.150  0.0962 -0.7725 -0.9120
   20SAPC   C34 2643   3.714   4.151  10.035  0.4531  0.3931  0.3404
   20SAPC   H4X 2644   3.694   4.242  10.096 -1.1743  0.6087 -0.4452
   20SAPC   H4Y 2645   3.614   4.107  10.012  1.1107 -0.9671  0.0366
   20SAPC   C35 2646   3.796   4.168   9.907 -0.4760 -0.8973 -0.2068
   20SAPC   H5X 2647   3.794   4.072   9.851 -0.0674  0.5168 -2.8111
   20SAPC   H5Y 2648   3.900   4.198   9.933  0.7048 -3.0777 -2.0730
   20SAPC   C36 2649   3.748   4.285   9.829  0.9026  0.0905 -0.1132
   20SAPC   H6X 2650   3.746   4.379   9.888 -2.4187 -1.2083  2.1540
   20SAPC   H6Y 2651   3.640   4.268   9.806  0.8392 -0.4732  0.5618
   20SAPC   C37 2652   3.819   4.299   9.691  0.0021 -0.2563 -0.0914
   20SAPC   H7X 2653   3.815   4.206   9.630  0.3705 -0.4486  0.1718
   20SAPC   H7Y 2654   3.926   4.321   9.710  0.0010 -1.3734  1.2985
   20SAPC   C38 2655   3.762   4.408   9.605  0.4085 -0.2918  0.1194
   20SAPC   H8X 2656   3.796   4.510   9.633  2.0008 -0.5142 -0.9127
   20SAPC   H8Y 2657   3.652   4.421   9.589  0.6310  1.0601 -0.4748
   20SAPC   C39 2658   3.820   4.399   9.460  1.0366 -0.0141 -0.1252
   20SAPC   H9X 2659   3.923   4.358   9.462  0.9870 -0.2816 -1.6983
   20SAPC   H9Y 2660   3.818   4.501   9.417 -0.7474  0.6777  1.4425
   20SAPC  C310 2661   3.742   4.306   9.366  0.4793 -0.0300  0.5385
   20SAPC  H10X 2662   3.639   4.348   9.362  0.6182  0.4504  1.7131
   20SAPC  H10Y 2663   3.733   4.203   9.407 -0.6125 -0.1658  0.0066
   20SAPC  C311 2664   3.811   4.277   9.236 -0.0672 -0.2263  0.0784
   20SAPC  H11X 2665   3.904   4.217   9.250  0.7670  0.6644 -1.4436
   20SAPC  H11Y 2666   3.846   4.375   9.198  0.7698  0.1840  1.8031
   20SAPC  C312 2667   3.718   4.208   9.142 -0.7298  0.1274 -0.3729
   20SAPC  H12X 2668   3.633   4.277   9.129  0.0440  1.3898  0.9656
   20SAPC  H12Y 2669   3.672   4.118   9.189 -1.9696  1.2307  0.6206
   20SAPC  C313 2670   3.778   4.184   9.006 -0.0365  0.7578 -0.0970
   20SAPC  H13X 2671   3.850   4.100   8.996  0.5437  1.4165 -1.6312
   20SAPC  H13Y 2672   3.845   4.268   8.977  0.7766  0.5661  1.1539
   20SAPC  C314 2673   3.674   4.190   8.888  0.1484 -0.2628 -0.9469
   20SAPC  H14X 2674   3.727   4.181   8.791  0.7658  0.2760 -0.6647
   20SAPC  H14Y 2675   3.610   4.281   8.885 -1.0047 -1.0229 -0.2208
   20SAPC  C315 2676   3.595   4.061   8.888  0.1288 -0.2212 -0.1067
   20SAPC  H15X 2677   3.540   4.058   8.985  2.5474 -0.4761  1.3293
   20SAPC  H15Y 2678   3.657   3.969   8.891  2.5959  1.3951  1.3937
   20SAPC  C316 2679   3.489   4.066   8.778  0.2039  0.0254 -0.0133
   20SAPC  H16X 2680   3.532   4.043   8.678 -0.5796  2.6942 -1.0508
   20SAPC  H16Y 2681   3.447   4.168   8.768 -0.0456 -0.1635 -0.9789
   20SAPC  C317 2682   3.381   3.963   8.805  0.1698  0.3188 -0.3891
   20SAPC  H17X 2683   3.301   3.975   8.729 -0.2668  0.9555  0.1636
   20SAPC  H17Y 2684   3.333   3.991   8.902 -0.0914  2.9300 -1.1901
   20SAPC  C318 2685   3.434   3.815   8.807 -0.4063 -0.1975 -0.2273
   20SAPC  H18X 2686   3.520   3.815   8.877  0.8929 -2.8043 -1.6368
   20SAPC  H18Y 2687   3.479   3.792   8.708 -0.9822  3.3458 -1.4638
   20SAPC  H18Z 2688   3.364   3.737   8.843 -0.4577 -0.0875 -0.0911
   21SAPC     N 2689   3.943   4.021  10.909 -0.4826  0.0943  0.0562
   21SAPC   C12 2690   3.993   3.879  10.941  0.1697 -0.7186  0.0590
   21SAPC  H12A 2691   3.953   3.861  11.039 -1.6173  1.6608 -0.1355
   21SAPC  H12B 2692   4.100   3.873  10.934  0.0164 -2.9389 -1.5309
   21SAPC   C13 2693   3.973   4.062  10.767 -0.2994 -0.3979  0.3785
   21SAPC  H13A 2694   4.079   4.046  10.752 -0.3247 -0.5416  0.3522
   21SAPC  H13B 2695   3.914   4.002  10.700  0.8125 -1.3364  0.2171
   21SAPC  H13C 2696   3.950   4.166  10.747 -1.6089 -0.5091  1.1729
   21SAPC   C14 2697   3.795   4.032  10.928 -0.3975 -0.7819 -0.6580
   21SAPC  H14A 2698   3.733   3.960  10.877  0.7768 -1.1080 -1.6584
   21SAPC  H14B 2699   3.767   4.033  11.032 -4.0593  2.7050 -1.4031
   21SAPC  H14C 2700   3.773   4.134  10.900  1.8134  0.3102  1.2867
   21SAPC   C15 2701   4.005   4.130  11.004 -0.2701  0.5158  0.7519
   21SAPC  H15A 2702   3.965   4.120  11.104 -0.9770  3.2465  0.8423
   21SAPC  H15B 2703   4.112   4.119  11.010 -0.3639  0.3984  2.8875
   21SAPC  H15C 2704   3.975   4.231  10.978 -1.0746  0.3527  1.0192
   21SAPC   C11 2705   3.943   3.767  10.848  0.2374  0.3698  0.3153
   21SAPC  H11A 2706   3.833   3.776  10.830 -0.1064  1.7146  2.6573
   21SAPC  H11B 2707   3.955   3.671  10.903 -0.2041 -0.3525 -0.8090
   21SAPC     P 2708   4.149   3.709  10.707  0.4697 -0.1894  0.4205
   21SAPC   O13 2709   4.240   3.777  10.806  0.6416  0.0556 -0.5303
   21SAPC   O14 2710   4.143   3.560  10.717  0.3171  0.6090  0.8929
   21SAPC   O12 2711   4.008   3.762  10.725  0.9625  0.4025  0.4269
   21SAPC   O11 2712   4.179   3.749  10.558 -0.3563 -0.1681  0.5402
   21SAPC    C1 2713   4.199   3.889  10.528  0.0382 -0.0384  0.6458
   21SAPC    HA 2714   4.180   3.961  10.610 -0.4665 -0.6129  1.0400
   21SAPC    HB 2715   4.299   3.899  10.480 -1.0934  0.9692 -1.6873
   21SAPC    C2 2716   4.117   3.947  10.407  0.5044  0.2953  0.6815
   21SAPC    HS 2717   4.008   3.955  10.428 -0.0109 -0.0232 -1.5588
   21SAPC   O21 2718   4.148   3.856  10.298 -0.0636 -0.8738 -0.3276
   21SAPC   C21 2719   4.050   3.764  10.270 -0.1011  0.2979  0.6635
   21SAPC   O22 2720   3.939   3.762  10.320  0.1254  0.6087 -0.2884
   21SAPC   C22 2721   4.105   3.676  10.156  0.0826  0.0591  0.3340
   21SAPC   H2R 2722   4.146   3.748  10.082 -0.9511  0.6613  0.3170
   21SAPC   H2S 2723   4.187   3.615  10.199 -1.2387 -0.6024  2.0664
   21SAPC    C3 2724   4.162   4.090  10.359 -1.0232  0.8342 -0.4907
   21SAPC    HX 2725   4.269   4.091  10.392 -0.6962  1.1275 -1.5375
   21SAPC    HY 2726   4.102   4.152  10.428 -1.0196 -0.0742  0.3509
   21SAPC   O31 2727   4.143   4.108  10.220 -0.2368 -0.4817 -0.4175
   21SAPC   C31 2728   4.256   4.125  10.152 -0.2634  0.6386  0.2953
   21SAPC   O32 2729   4.369   4.133  10.193 -0.0396 -0.1824  0.0921
   21SAPC   C32 2730   4.227   4.111  10.003  0.1749  0.4863 -0.3619
   21SAPC   H2X 2731   4.218   4.214   9.961  1.7786  0.9623  0.3686
   21SAPC   H2Y 2732   4.140   4.046   9.982  0.8525  0.1563 -2.4075
   21SAPC   C23 2733   4.005   3.580  10.084 -0.1418  0.1971  0.4078
   21SAPC   H3R 2734   3.974   3.515  10.169 -0.0730  3.3818  3.1097
   21SAPC   H3S 2735   4.064   3.510  10.021  0.1570 -0.1923  1.1009
   21SAPC   C24 2736   3.886   3.650  10.005 -0.1549  0.9358 -0.0896
   21SAPC   H4R 2737   3.823   3.701  10.081 -3.1300 -0.8812 -1.1697
   21SAPC   H4S 2738   3.818   3.572   9.966  0.6437  0.1227  0.1149
   21SAPC   C25 2739   3.932   3.746   9.899 -0.8567 -0.2912  0.0855
   21SAPC   H5R 2740   4.003   3.821   9.935 -0.2711  0.1860 -1.9602
   21SAPC   C26 2741   3.897   3.736   9.764 -0.0695 -0.2159 -0.2915
   21SAPC   H6R 2742   3.925   3.825   9.706  0.6253 -0.8323 -0.9249
   21SAPC   C27 2743   3.802   3.638   9.706  0.6088 -0.0201 -0.5796
   21SAPC   H7R 2744   3.753   3.674   9.613 -0.5970 -2.1691 -0.8433
   21SAPC   H7S 2745   3.713   3.611   9.767 -0.2392  0.2551 -1.6422
   21SAPC   C28 2746   3.869   3.507   9.668  0.5319 -0.7253  0.1575
   21SAPC   H8R 2747   3.971   3.495   9.707  1.6746 -1.3007 -2.7272
   21SAPC   C29 2748   3.818   3.395   9.610  0.1948 -0.1048 -0.1726
   21SAPC   H9R 2749   3.888   3.311   9.611  1.0115  0.5761  0.1380
   21SAPC  C210 2750   3.675   3.366   9.574  1.3068 -0.0611  0.2490
   21SAPC  H10R 2751   3.669   3.349   9.464  0.7968  0.5067  0.1841
   21SAPC  H10S 2752   3.614   3.456   9.595 -0.7718 -0.9696 -1.5662
   21SAPC  C211 2753   3.619   3.249   9.649 -0.6466 -0.1221 -0.0555
   21SAPC  H11R 2754   3.663   3.153   9.616 -0.7470  0.1551 -1.0352
   21SAPC  C212 2755   3.545   3.251   9.761  0.2211 -0.0347  0.4545
   21SAPC  H12R 2756   3.511   3.156   9.805  1.7632 -0.5787  0.5279
   21SAPC  C213 2757   3.505   3.382   9.824  0.4152  0.2592 -0.7129
   21SAPC  H13R 2758   3.466   3.437   9.736 -3.1340 -0.6768  0.1083
   21SAPC  H13S 2759   3.602   3.430   9.847 -0.9781  2.6122  0.5759
   21SAPC  C214 2760   3.394   3.385   9.925 -0.1519 -0.2647  0.7221
   21SAPC  H14R 2761   3.304   3.427   9.879 -1.4825 -2.6936  0.9343
   21SAPC  C215 2762   3.389   3.339  10.050  0.0633  0.1437 -0.8429
   21SAPC  H15R 2763   3.295   3.349  10.107  0.3399  1.1290 -0.5335
   21SAPC  C216 2764   3.493   3.257  10.122  0.0399  0.2796 -0.6551
   21SAPC  H16R 2765   3.577   3.221  10.059  0.4096  3.0537 -1.9010
   21SAPC  H16S 2766   3.441   3.167  10.160 -2.3655  0.6013 -2.8800
   21SAPC  C217 2767   3.551   3.327  10.240  0.0676 -0.5498 -0.0817
   21SAPC  H17R 2768   3.605   3.249  10.298  0.2731  0.1234  0.6637
   21SAPC  H17S 2769   3.468   3.367  10.302 -0.9229  0.0331 -1.7405
   21SAPC  C218 2770   3.650   3.442  10.198 -0.2311  0.5299  0.5949
   21SAPC  H18R 2771   3.597   3.520  10.140 -2.5342 -0.9213  0.6311
   21SAPC  H18S 2772   3.733   3.403  10.134 -0.3547 -0.4831  1.0298
   21SAPC  C219 2773   3.721   3.509  10.322  0.2098 -0.4280 -0.1131
   21SAPC  H19R 2774   3.640   3.564  10.374  0.2374  2.8176 -3.1588
   21SAPC  H19S 2775   3.797   3.578  10.281  0.0637  1.3698  2.4404
   21SAPC  C220 2776   3.806   3.410  10.409  0.7534 -0.2885  0.3827
   21SAPC  H20R 2777   3.841   3.462  10.501  1.3285 -0.3468  0.2004
   21SAPC  H20S 2778   3.893   3.373  10.351 -1.0122 -0.1134 -2.5773
   21SAPC  H20T 2779   3.750   3.319  10.439  0.1960 -0.6872 -1.7145
   21SAPC   C33 2780   4.346   4.051   9.929  0.3073 -0.4437  0.3771
   21SAPC   H3X 2781   4.371   3.954   9.977 -1.5797 -2.5066 -2.4367
   21SAPC   H3Y 2782   4.436   4.116   9.937  1.6331 -2.3305  1.5426
   21SAPC   C34 2783   4.306   4.024   9.784 -0.2570 -0.2425  0.0030
   21SAPC   H4X 2784   4.206   3.975   9.788 -0.7639  0.7824  0.3035
   21SAPC   H4Y 2785   4.368   3.941   9.743  0.0651  0.6726 -1.4496
   21SAPC   C35 2786   4.286   4.153   9.695  0.1352  0.1216  0.7520
   21SAPC   H5X 2787   4.378   4.214   9.686 -0.2488  0.4975 -0.9474
   21SAPC   H5Y 2788   4.198   4.214   9.726 -0.5004  0.4603 -1.5427
   21SAPC   C36 2789   4.273   4.110   9.548  0.1616 -0.7465 -0.3498
   21SAPC   H6X 2790   4.198   4.029   9.553 -3.3819  2.0146 -3.6462
   21SAPC   H6Y 2791   4.365   4.058   9.515  0.8521  1.5368 -2.2915
   21SAPC   C37 2792   4.248   4.225   9.455  0.7248 -0.0435 -0.0488
   21SAPC   H7X 2793   4.306   4.318   9.469  1.1593 -0.1425 -1.1407
   21SAPC   H7Y 2794   4.151   4.278   9.469 -0.1894 -1.8848  1.0286
   21SAPC   C38 2795   4.250   4.180   9.303 -0.0610 -0.2365  0.0391
   21SAPC   H8X 2796   4.355   4.160   9.272  0.3382  1.0272  0.5205
   21SAPC   H8Y 2797   4.205   4.265   9.249 -1.7619  0.6872  2.6964
   21SAPC   C39 2798   4.161   4.052   9.287 -0.1071 -0.1297  0.9381
   21SAPC   H9X 2799   4.069   4.081   9.343 -0.4913 -0.2334  0.3595
   21SAPC   H9Y 2800   4.221   3.968   9.329  1.5389  0.0309 -0.9901
   21SAPC  C310 2801   4.116   4.024   9.140 -0.4031 -0.1080 -0.0968
   21SAPC  H10X 2802   4.060   4.112   9.102  1.8719  0.4348 -2.5665
   21SAPC  H10Y 2803   4.040   3.943   9.141 -1.0090  0.4609  0.1501
   21SAPC  C311 2804   4.234   3.998   9.045 -0.3932 -0.4477  0.4889
   21SAPC  H11X 2805   4.312   3.941   9.099  2.1812  1.8936 -0.5120
   21SAPC  H11Y 2806   4.291   4.091   9.026  0.8829 -1.4469 -0.8364
   21SAPC  C312 2807   4.201   3.933   8.911  0.5088  0.6402 -0.0635
   21SAPC  H12X 2808   4.167   3.829   8.933 -0.7755  0.9582 -0.5121
   21SAPC  H12Y 2809   4.289   3.935   8.843  1.6401 -2.6425  1.0649
   21SAPC  C313 2810   4.099   4.010   8.820 -0.6870  0.7461 -0.0310
   21SAPC  H13X 2811   4.126   4.113   8.788  0.4308  0.2278 -0.8465
   21SAPC  H13Y 2812   3.997   4.018   8.863  0.4480  0.0112  3.0115
   21SAPC  C314 2813   4.077   3.942   8.685 -0.4415  0.0318 -0.3781
   21SAPC  H14X 2814   4.175   3.939   8.632 -0.6103  1.3201 -0.7914
   21SAPC  H14Y 2815   4.017   4.004   8.615 -1.3955 -1.4912 -0.9487
   21SAPC  C315 2816   4.013   3.803   8.690 -0.6328 -0.1393 -0.0481
   21SAPC  H15X 2817   3.911   3.812   8.735 -0.7852 -1.9100  0.0286
   21SAPC  H15Y 2818   4.079   3.745   8.758 -0.6656  0.2354  0.3108
   21SAPC  C316 2819   4.003   3.734   8.555  0.1486  0.5186 -0.9776
   21SAPC  H16X 2820   4.100   3.735   8.499  0.7949  1.1121  0.1077
   21SAPC  H16Y 2821   3.942   3.794   8.484  0.8413  0.1952 -1.8721
   21SAPC  C317 2822   3.951   3.591   8.553  0.3847 -0.1858  0.2860
   21SAPC  H17X 2823   4.024   3.519   8.597 -0.0329 -1.0700 -0.4242
   21SAPC  H17Y 2824   3.947   3.561   8.446 -0.0153 -0.3030  0.3330
   21SAPC  C318 2825   3.813   3.567   8.632  0.1812  0.2857  0.3609
   21SAPC  H18X 2826   3.733   3.617   8.574 -0.6880 -0.7714  0.6280
   21SAPC  H18Y 2827   3.813   3.596   8.740 -2.3011  0.9569  0.2215
   21SAPC  H18Z 2828   3.788   3.462   8.607 -1.3105  0.6003  0.4443
   22SAPC     N 2829   3.064   1.915  10.770  0.0686 -0.5892 -0.5055
   22SAPC   C12 2830   3.076   1.865  10.626  0.3770  0.5799 -0.1131
   22SAPC  H12A 2831   3.178   1.829  10.619  0.0474 -0.3481 -0.3726
   22SAPC  H12B 2832   3.065   1.942  10.552 -0.3907  0.7387  0.1602
   22SAPC   C13 2833   2.935   1.980  10.791  0.0167  0.9216 -0.3325
   22SAPC  H13A 2834   2.930   2.070  10.731 -0.4214  1.1786  0.0777
   22SAPC  H13B 2835   2.852   1.917  10.761 -0.8082  2.3237 -1.1460
   22SAPC  H13C 2836   2.920   2.006  10.895 -0.7775 -0.5096 -0.0506
   22SAPC   C14 2837   3.084   1.806  10.876  0.1017 -0.0087 -1.0556
   22SAPC  H14A 2838   3.058   1.849  10.971  1.0808  2.4012 -1.8093
   22SAPC  H14B 2839   3.007   1.732  10.860 -0.5711  0.6543 -0.9253
   22SAPC  H14C 2840   3.187   1.773  10.878  0.4124  0.9531 -0.8161
   22SAPC   C15 2841   3.165   2.026  10.788 -0.2910 -0.2709 -1.2314
   22SAPC  H15A 2842   3.138   2.075  10.881  0.0234 -3.0007  0.4213
   22SAPC  H15B 2843   3.260   1.979  10.804 -0.3428 -0.8850 -2.5972
   22SAPC  H15C 2844   3.168   2.098  10.708  0.3851 -1.4479 -2.2821
   22SAPC   C11 2845   2.983   1.744  10.595  0.2879  0.5605  0.4786
   22SAPC  H11A 2846   2.983   1.721  10.487 -1.7216 -1.6422  0.8666
   22SAPC  H11B 2847   2.878   1.762  10.625  0.2981 -0.8560  1.5206
   22SAPC     P 2848   3.169   1.560  10.616 -0.0296  0.1011 -0.1294
   22SAPC   O13 2849   3.280   1.653  10.640  0.1447  0.4712 -0.0914
   22SAPC   O14 2850   3.190   1.429  10.673  0.1118  0.4316  1.2481
   22SAPC   O12 2851   3.035   1.626  10.659 -0.4244 -0.2487 -0.2985
   22SAPC   O11 2852   3.161   1.538  10.458 -0.4607  0.4937 -0.6741
   22SAPC    C1 2853   3.106   1.418  10.399 -0.0760 -0.3998 -0.8082
   22SAPC    HA 2854   3.060   1.340  10.463  0.3660 -0.1324 -0.1570
   22SAPC    HB 2855   3.019   1.450  10.339  1.3721  0.7942 -2.3607
   22SAPC    C2 2856   3.194   1.351  10.296 -0.1512  0.1315 -0.2463
   22SAPC    HS 2857   3.274   1.293  10.348 -0.3709  0.7186  0.7672
   22SAPC   O21 2858   3.250   1.453  10.207 -0.0773 -0.2363 -0.3282
   22SAPC   C21 2859   3.358   1.405  10.142  0.2657 -0.1364  0.3402
   22SAPC   O22 2860   3.423   1.312  10.180 -0.1998  0.6797 -0.3609
   22SAPC   C22 2861   3.389   1.488  10.020  0.6247 -0.4962 -0.1208
   22SAPC   H2R 2862   3.294   1.467   9.966 -1.7458  0.9611  3.1484
   22SAPC   H2S 2863   3.392   1.596  10.046 -0.6295 -0.8834  1.8175
   22SAPC    C3 2864   3.113   1.259  10.202  0.0902  0.2594  0.2955
   22SAPC    HX 2865   3.068   1.330  10.129  0.1581 -1.0195 -1.0268
   22SAPC    HY 2866   3.028   1.218  10.261 -0.6756  1.0447 -0.2384
   22SAPC   O31 2867   3.183   1.145  10.138  0.2224 -0.1852 -0.0610
   22SAPC   C31 2868   3.201   1.149  10.003  0.0249 -0.2868 -0.0769
   22SAPC   O32 2869   3.153   1.231   9.929  0.6918  0.0128  0.2632
   22SAPC   C32 2870   3.295   1.038   9.964 -0.2560 -0.1833 -0.3368
   22SAPC   H2X 2871   3.311   0.977  10.056 -1.2420  1.0109  0.6669
   22SAPC   H2Y 2872   3.391   1.070   9.919  1.0525 -1.8772  1.0988
   22SAPC   C23 2873   3.514   1.442   9.939 -0.3336 -0.6778 -0.0298
   22SAPC   H3R 2874   3.517   1.331   9.939  1.7938 -0.6695  0.5952
   22SAPC   H3S 2875   3.611   1.471   9.985 -0.3257  1.9286 -1.4782
   22SAPC   C24 2876   3.502   1.472   9.787  0.2442 -0.2190  0.4074
   22SAPC   H4R 2877   3.604   1.458   9.745  0.5933  0.4289  1.0110
   22SAPC   H4S 2878   3.474   1.579   9.795 -2.3418 -0.8813  1.1529
   22SAPC   C25 2879   3.391   1.408   9.715  0.7625  0.0330 -0.5872
   22SAPC   H5R 2880   3.305   1.375   9.776 -0.2147  0.4034 -1.7196
   22SAPC   C26 2881   3.394   1.380   9.586 -0.0170  1.0197 -1.2934
   22SAPC   H6R 2882   3.304   1.331   9.544 -0.1816 -0.2809  0.4367
   22SAPC   C27 2883   3.507   1.403   9.489  0.3631  0.0764  0.2784
   22SAPC   H7R 2884   3.580   1.478   9.524  1.7765 -1.0471 -0.1765
   22SAPC   H7S 2885   3.463   1.447   9.397  1.0092  1.4642  0.6118
   22SAPC   C28 2886   3.611   1.291   9.469  0.3232 -0.2867  0.3414
   22SAPC   H8R 2887   3.652   1.239   9.557 -1.3659 -2.8782 -0.2730
   22SAPC   C29 2888   3.658   1.255   9.343 -0.7362 -0.3264  0.0530
   22SAPC   H9R 2889   3.740   1.181   9.344 -1.5597 -1.2641  0.2604
   22SAPC  C210 2890   3.618   1.301   9.211  0.4393 -0.0649  0.3556
   22SAPC  H10R 2891   3.699   1.273   9.140 -0.7740  0.5572 -1.3226
   22SAPC  H10S 2892   3.615   1.412   9.218  0.0594 -0.0819  0.4727
   22SAPC  C211 2893   3.484   1.267   9.150  0.2964  0.7388 -0.0046
   22SAPC  H11R 2894   3.424   1.200   9.212  0.1633  0.6675 -0.2096
   22SAPC  C212 2895   3.421   1.332   9.047 -0.3636  0.6073 -0.5291
   22SAPC  H12R 2896   3.325   1.293   9.011  1.1511 -1.3018 -2.7942
   22SAPC  C213 2897   3.480   1.444   8.965 -0.4465  0.5677 -0.2558
   22SAPC  H13R 2898   3.564   1.496   9.016 -2.4811  0.3344  3.6856
   22SAPC  H13S 2899   3.400   1.518   8.947  0.3446  1.0658 -1.9015
   22SAPC  C214 2900   3.537   1.388   8.844 -0.2107 -0.2561  0.4780
   22SAPC  H14R 2901   3.622   1.321   8.865  0.0198 -0.3532 -0.6976
   22SAPC  C215 2902   3.507   1.429   8.717 -0.5817 -0.2373  0.5091
   22SAPC  H15R 2903   3.567   1.372   8.644  1.4258  0.1688  1.7660
   22SAPC  C216 2904   3.406   1.537   8.677  0.1027  0.7119  1.1776
   22SAPC  H16R 2905   3.465   1.630   8.667 -0.7755  1.3842  2.1069
   22SAPC  H16S 2906   3.331   1.570   8.752 -0.0292  0.2724  1.2447
   22SAPC  C217 2907   3.316   1.502   8.558  0.8630  0.6938 -0.5574
   22SAPC  H17R 2908   3.249   1.415   8.575  3.0098 -1.1208 -0.9227
   22SAPC  H17S 2909   3.381   1.474   8.472 -0.0284  0.1889 -1.0772
   22SAPC  C218 2910   3.233   1.615   8.505 -0.9484 -0.3123 -0.8869
   22SAPC  H18R 2911   3.175   1.658   8.590 -1.3573  0.1752 -1.4125
   22SAPC  H18S 2912   3.171   1.573   8.423 -1.1379 -0.9700 -0.4153
   22SAPC  C219 2913   3.311   1.714   8.424 -0.2385 -0.2955 -0.6871
   22SAPC  H19R 2914   3.383   1.673   8.350  1.3545  0.8474  0.1716
   22SAPC  H19S 2915   3.370   1.776   8.495  1.3926 -0.4835 -1.8172
   22SAPC  C220 2916   3.213   1.818   8.364  0.6208 -0.6750  0.2909
   22SAPC  H20R 2917   3.152   1.768   8.286  0.7015 -0.1329 -0.1301
   22SAPC  H20S 2918   3.260   1.908   8.317 -1.6042  1.2307  1.5080
   22SAPC  H20T 2919   3.140   1.861   8.435  0.8176  1.5198 -0.7263
   22SAPC   C33 2920   3.231   0.938   9.865  0.1784 -0.3265  0.1835
   22SAPC   H3X 2921   3.149   0.875   9.906  1.2315 -1.9836 -0.1619
   22SAPC   H3Y 2922   3.312   0.865   9.841 -0.9179 -1.0807 -1.4222
   22SAPC   C34 2923   3.180   0.999   9.732 -0.3063 -0.0198  0.4717
   22SAPC   H4X 2924   3.255   1.066   9.686 -0.1568 -1.0272 -0.8074
   22SAPC   H4Y 2925   3.093   1.061   9.762 -0.0815 -0.2417  1.6559
   22SAPC   C35 2926   3.139   0.897   9.624  0.5125  0.5637 -0.2466
   22SAPC   H5X 2927   3.061   0.824   9.653 -1.8110  2.5882 -1.0119
   22SAPC   H5Y 2928   3.219   0.822   9.611 -0.8899 -1.2355  1.0565
   22SAPC   C36 2929   3.109   0.957   9.498 -0.7208 -0.4526  1.0061
   22SAPC   H6X 2930   3.201   1.008   9.462 -0.7957 -1.5401 -0.8332
   22SAPC   H6Y 2931   3.022   1.024   9.513 -2.6159 -2.5017 -0.1841
   22SAPC   C37 2932   3.067   0.860   9.386  0.2461  0.0105 -0.6454
   22SAPC   H7X 2933   2.983   0.806   9.436  1.1036 -2.4790 -1.7691
   22SAPC   H7Y 2934   3.149   0.788   9.370  0.0156  0.1299 -2.6048
   22SAPC   C38 2935   3.020   0.922   9.255  0.1478  0.7640  0.3030
   22SAPC   H8X 2936   2.956   1.010   9.279 -2.4177 -1.2541  1.3415
   22SAPC   H8Y 2937   2.948   0.852   9.207 -0.5135  0.1987  2.0305
   22SAPC   C39 2938   3.114   0.969   9.150  0.1426  0.5443  0.3202
   22SAPC   H9X 2939   3.179   0.885   9.115  0.7928  1.4148 -0.6450
   22SAPC   H9Y 2940   3.175   1.057   9.179 -2.2132  2.1188  0.7944
   22SAPC  C310 2941   3.027   1.009   9.028  0.5190 -1.3289  0.2347
   22SAPC  H10X 2942   2.944   1.066   9.076  0.6349 -0.8507 -0.1270
   22SAPC  H10Y 2943   2.994   0.914   8.981 -1.7649  0.1392 -1.3317
   22SAPC  C311 2944   3.109   1.095   8.920  0.3752 -0.3890  0.2871
   22SAPC  H11X 2945   3.165   1.171   8.979  2.6062 -2.3424  0.7929
   22SAPC  H11Y 2946   3.032   1.145   8.857  0.6418 -1.5070 -0.9684
   22SAPC  C312 2947   3.207   1.021   8.833  0.4804  1.0680 -0.5999
   22SAPC  H12X 2948   3.169   0.924   8.794  0.2467  0.8407  0.1934
   22SAPC  H12Y 2949   3.289   0.979   8.895 -0.6735 -0.1337  0.1554
   22SAPC  C313 2950   3.259   1.105   8.719 -0.0411 -0.0517 -0.2855
   22SAPC  H13X 2951   3.330   1.184   8.753 -0.5112  0.5315 -0.6453
   22SAPC  H13Y 2952   3.184   1.172   8.671 -1.7914 -1.4570  0.3827
   22SAPC  C314 2953   3.330   1.022   8.614 -0.1211  0.4401  0.2773
   22SAPC  H14X 2954   3.267   0.933   8.594 -1.8288  0.6893  3.8006
   22SAPC  H14Y 2955   3.424   0.988   8.663  1.3533  0.1188 -2.5510
   22SAPC  C315 2956   3.349   1.098   8.477  0.2446 -0.2804 -0.6376
   22SAPC  H15X 2957   3.397   1.196   8.498 -0.6242 -0.4142  2.5146
   22SAPC  H15Y 2958   3.250   1.131   8.440  0.4929 -0.8063 -1.8029
   22SAPC  C316 2959   3.411   1.020   8.361  0.2444 -0.1938 -1.2503
   22SAPC  H16X 2960   3.403   1.078   8.267  2.5223 -1.5268 -2.3773
   22SAPC  H16Y 2961   3.347   0.933   8.336 -0.0129 -0.8346  1.3024
   22SAPC  C317 2962   3.557   0.979   8.378  0.1497 -0.1046  0.3861
   22SAPC  H17X 2963   3.565   0.896   8.452  0.8553  0.6064  1.1162
   22SAPC  H17Y 2964   3.622   1.054   8.427  0.1393  0.2704 -0.1756
   22SAPC  C318 2965   3.629   0.931   8.247  0.6568  0.2774 -0.6485
   22SAPC  H18X 2966   3.732   0.895   8.267  0.3991  0.1702  0.5176
   22SAPC  H18Y 2967   3.642   1.015   8.175  0.1176  0.3283 -0.6947
   22SAPC  H18Z 2968   3.564   0.853   8.201 -2.5528  3.0929 -1.3361
   23SAPC     N 2969   4.780   2.724  10.676  0.8996  0.2915  0.1084
   23SAPC   C12 2970   4.726   2.782  10.546 -0.2881 -0.2615  0.6995
   23SAPC  H12A 2971   4.780   2.743  10.461 -1.3803 -1.4664  0.5288
   23SAPC  H12B 2972   4.743   2.888  10.534 -2.9242  0.1814  0.2124
   23SAPC   C13 2973   4.710   2.794  10.790 -0.1416 -0.0156  0.3868
   23SAPC  H13A 2974   4.733   2.899  10.782  0.2216  0.0254  1.6459
   23SAPC  H13B 2975   4.603   2.785  10.803 -0.0593  1.1580  2.4304
   23SAPC  H13C 2976   4.747   2.762  10.887 -1.8820 -0.7470  0.8463
   23SAPC   C14 2977   4.743   2.579  10.687 -0.4243 -0.4379 -0.3107
   23SAPC  H14A 2978   4.804   2.525  10.616  1.4927  0.6541  0.4561
   23SAPC  H14B 2979   4.767   2.541  10.785 -1.9497 -1.5769 -0.3368
   23SAPC  H14C 2980   4.637   2.565  10.670 -0.3551 -1.9134  0.2847
   23SAPC   C15 2981   4.922   2.739  10.701  0.7545  0.5430 -0.3062
   23SAPC  H15A 2982   4.963   2.660  10.762 -0.7430  0.9288  1.2787
   23SAPC  H15B 2983   4.983   2.737  10.611  1.7239 -0.3753  0.3522
   23SAPC  H15C 2984   4.938   2.837  10.743  0.5675  0.0719  0.9029
   23SAPC   C11 2985   4.574   2.766  10.521 -0.6316 -0.7796 -0.9504
   23SAPC  H11A 2986   4.546   2.661  10.545 -0.8009  0.1719  4.2817
   23SAPC  H11B 2987   4.553   2.797  10.417  1.1421  1.1763 -0.7792
   23SAPC     P 2988   4.484   3.006  10.594  0.6035 -0.1341  0.0874
   23SAPC   O13 2989   4.431   3.054  10.726 -0.4331 -0.6055  0.0593
   23SAPC   O14 2990   4.614   3.063  10.547  0.8502  0.8834  0.7702
   23SAPC   O12 2991   4.497   2.850  10.609  0.0299  0.1433 -0.3169
   23SAPC   O11 2992   4.365   3.011  10.488 -0.0978  0.0920 -0.6544
   23SAPC    C1 2993   4.233   2.966  10.523 -0.4495  0.4919  0.5051
   23SAPC    HA 2994   4.251   2.873  10.581  1.9632  0.3031 -0.4304
   23SAPC    HB 2995   4.173   3.034  10.586  0.6790  2.8558 -0.8386
   23SAPC    C2 2996   4.142   2.944  10.401 -0.1857 -0.4511  0.3784
   23SAPC    HS 2997   4.042   2.908  10.436 -0.8600  0.0740 -0.9412
   23SAPC   O21 2998   4.192   2.860  10.306 -0.5651 -0.2152 -0.1765
   23SAPC   C21 2999   4.191   2.726  10.337  0.1070 -0.3951 -0.0508
   23SAPC   O22 3000   4.150   2.689  10.445 -0.4605 -0.2572  0.3487
   23SAPC   C22 3001   4.256   2.635  10.227 -0.4815  0.2855  0.1092
   23SAPC   H2R 3002   4.187   2.620  10.141 -2.0328 -0.1063  1.3657
   23SAPC   H2S 3003   4.338   2.701  10.193 -0.2890  0.6237  1.2148
   23SAPC    C3 3004   4.111   3.083  10.343 -0.2806 -0.9560  0.0508
   23SAPC    HX 3005   4.202   3.123  10.294 -0.5155  0.1332  0.4648
   23SAPC    HY 3006   4.100   3.152  10.430  2.8779 -1.0802  0.6663
   23SAPC   O31 3007   3.994   3.099  10.259 -0.6615  0.2198  0.0961
   23SAPC   C31 3008   4.018   3.095  10.130  0.4267 -0.7455 -0.3382
   23SAPC   O32 3009   4.125   3.078  10.081  0.9170  0.2732  0.5691
   23SAPC   C32 3010   3.889   3.134  10.058  0.1688  0.9316 -0.0733
   23SAPC   H2X 3011   3.850   3.220  10.116 -1.2657 -0.5697  1.2897
   23SAPC   H2Y 3012   3.814   3.055  10.079  1.1233  0.4965  1.9809
   23SAPC   C23 3013   4.311   2.503  10.286 -0.3666  0.1588 -0.7247
   23SAPC   H3R 3014   4.227   2.462  10.346  0.7736 -0.6174  0.3969
   23SAPC   H3S 3015   4.401   2.508  10.352  0.8980  1.2549 -2.4181
   23SAPC   C24 3016   4.341   2.392  10.183  0.2446  0.0650  0.0612
   23SAPC   H4R 3017   4.440   2.419  10.140  0.5279  0.6783  1.0598
   23SAPC   H4S 3018   4.260   2.405  10.108 -1.7390 -1.5636  1.7996
   23SAPC   C25 3019   4.339   2.245  10.239  0.6197 -0.4843  0.1305
   23SAPC   H5R 3020   4.394   2.246  10.334 -0.1139  0.7132  0.5672
   23SAPC   C26 3021   4.282   2.129  10.196  0.5358 -0.7386  0.7561
   23SAPC   H6R 3022   4.295   2.034  10.251 -0.2595 -1.9780 -1.0816
   23SAPC   C27 3023   4.210   2.125  10.062 -0.3492 -0.0189 -0.0745
   23SAPC   H7R 3024   4.285   2.113   9.981 -1.4492  1.2098 -1.3434
   23SAPC   H7S 3025   4.153   2.217  10.036 -2.6259 -0.5578  2.5720
   23SAPC   C28 3026   4.131   2.001  10.052  0.8681 -0.1554  0.8000
   23SAPC   H8R 3027   4.094   1.954  10.144  0.7955  1.7182  1.7633
   23SAPC   C29 3028   4.095   1.945   9.930 -0.5914 -0.3151 -0.0923
   23SAPC   H9R 3029   4.029   1.858   9.937 -1.0083  0.1253  4.7482
   23SAPC  C210 3030   4.127   1.985   9.792 -0.0185 -0.3160 -0.3720
   23SAPC  H10R 3031   4.156   1.889   9.743  1.7719  0.0384 -0.0900
   23SAPC  H10S 3032   4.222   2.043   9.795  2.1676 -3.5658 -0.9320
   23SAPC  C211 3033   4.027   2.076   9.729 -0.3308  0.0164 -0.1829
   23SAPC  H11R 3034   3.934   2.097   9.783 -0.0842  1.5206 -0.2947
   23SAPC  C212 3035   4.034   2.124   9.602  0.3710  0.4300  0.4154
   23SAPC  H12R 3036   3.963   2.199   9.566  0.7139  0.0016 -1.2608
   23SAPC  C213 3037   4.152   2.079   9.517  0.1439 -0.5140  0.4280
   23SAPC  H13R 3038   4.154   1.970   9.496  0.0464 -0.5492  0.5989
   23SAPC  H13S 3039   4.248   2.105   9.565  1.7214 -1.1802 -2.1608
   23SAPC  C214 3040   4.145   2.157   9.384  0.3478 -0.1587 -0.3570
   23SAPC  H14R 3041   4.093   2.097   9.308 -0.9726 -0.9257  1.0781
   23SAPC  C215 3042   4.201   2.274   9.347  0.5120  0.1723  0.1348
   23SAPC  H15R 3043   4.178   2.318   9.249 -0.3507 -2.3571 -0.8914
   23SAPC  C216 3044   4.282   2.357   9.439  0.7202 -0.5368  0.1073
   23SAPC  H16R 3045   4.390   2.348   9.418  0.6266  0.5677 -0.9387
   23SAPC  H16S 3046   4.272   2.337   9.548 -0.4492 -2.1485 -0.2505
   23SAPC  C217 3047   4.265   2.511   9.407 -0.2329  0.6737  0.0890
   23SAPC  H17R 3048   4.167   2.545   9.449 -0.1045  1.1028  0.0454
   23SAPC  H17S 3049   4.268   2.532   9.298 -1.2497 -0.6169 -0.2221
   23SAPC  C218 3050   4.381   2.597   9.468  0.2505  0.6370 -0.1808
   23SAPC  H18R 3051   4.362   2.706   9.451  2.4626  1.2770  1.0400
   23SAPC  H18S 3052   4.474   2.578   9.410  0.1703  2.5747 -1.0289
   23SAPC  C219 3053   4.397   2.576   9.623 -1.2208  0.7598  0.2677
   23SAPC  H19R 3054   4.469   2.654   9.658 -1.5592  0.9550  0.5376
   23SAPC  H19S 3055   4.447   2.482   9.655 -1.0907  0.8268  0.2642
   23SAPC  C220 3056   4.275   2.593   9.715 -0.9430 -1.1892 -0.8553
   23SAPC  H20R 3057   4.227   2.691   9.696 -0.7422 -1.1209 -1.0108
   23SAPC  H20S 3058   4.301   2.570   9.821 -1.0758  0.1244 -0.5158
   23SAPC  H20T 3059   4.202   2.516   9.681 -2.7355 -0.1971  0.5834
   23SAPC   C33 3060   3.905   3.159   9.906  0.0696 -0.4342 -0.2114
   23SAPC   H3X 3061   4.001   3.211   9.887  1.0341 -2.1173 -0.2105
   23SAPC   H3Y 3062   3.825   3.218   9.857 -1.3761 -1.1750  1.1899
   23SAPC   C34 3063   3.922   3.028   9.829  0.3870  0.1297 -0.2589
   23SAPC   H4X 3064   3.817   2.995   9.815 -0.1079  1.4204  0.2119
   23SAPC   H4Y 3065   3.978   2.942   9.872  0.0550  0.1212  0.1655
   23SAPC   C35 3066   3.968   3.043   9.675  0.5938 -0.3032 -0.2134
   23SAPC   H5X 3067   4.077   3.065   9.671  0.9688 -2.1994 -1.3859
   23SAPC   H5Y 3068   3.906   3.126   9.636 -0.6992 -0.9861  0.3188
   23SAPC   C36 3069   3.932   2.914   9.605 -0.2352  0.4309  0.0734
   23SAPC   H6X 3070   3.822   2.903   9.596  0.0498 -2.3809 -1.3589
   23SAPC   H6Y 3071   3.960   2.825   9.666 -3.3099  0.9706  2.4653
   23SAPC   C37 3072   3.990   2.901   9.460  0.5310 -0.8939 -0.4774
   23SAPC   H7X 3073   4.099   2.884   9.475  0.8061  2.1648  2.0771
   23SAPC   H7Y 3074   3.971   2.998   9.409  0.2931 -1.5831 -1.7232
   23SAPC   C38 3075   3.930   2.803   9.359  0.2192 -0.7688 -0.5505
   23SAPC   H8X 3076   3.820   2.815   9.358  0.1373 -1.4421 -1.8613
   23SAPC   H8Y 3077   3.954   2.703   9.401  0.9869  0.6183  2.5538
   23SAPC   C39 3078   4.001   2.808   9.222 -0.1853 -0.4668  0.1978
   23SAPC   H9X 3079   4.112   2.804   9.232  0.2604  1.0378 -2.7713
   23SAPC   H9Y 3080   3.976   2.899   9.162  1.5404 -0.1696 -0.1467
   23SAPC  C310 3081   3.964   2.682   9.140  0.0438 -0.3648  0.1734
   23SAPC  H10X 3082   3.853   2.674   9.142  0.1312 -2.0136 -0.3037
   23SAPC  H10Y 3083   4.016   2.596   9.189  2.1161  0.4672 -0.4726
   23SAPC  C311 3084   4.019   2.687   8.994  0.7862 -0.4994 -0.0593
   23SAPC  H11X 3085   3.975   2.777   8.946 -1.7853 -1.3337  0.5704
   23SAPC  H11Y 3086   3.979   2.603   8.934 -1.3810  0.6478 -0.3152
   23SAPC  C312 3087   4.173   2.681   8.978  0.2129  0.2975 -0.2238
   23SAPC  H12X 3088   4.203   2.574   8.966 -0.0882  0.1697  0.1384
   23SAPC  H12Y 3089   4.223   2.733   9.062  0.9536  1.2511 -1.2162
   23SAPC  C313 3090   4.222   2.747   8.851  0.5631 -0.7689  0.0765
   23SAPC  H13X 3091   4.332   2.760   8.858  0.4525  0.6499 -0.4797
   23SAPC  H13Y 3092   4.166   2.841   8.834 -0.8589 -1.6442 -0.3388
   23SAPC  C314 3093   4.213   2.650   8.725 -0.1361 -0.6820  1.2179
   23SAPC  H14X 3094   4.104   2.626   8.731  0.1397 -1.8740  1.8497
   23SAPC  H14Y 3095   4.256   2.548   8.738 -0.7313 -0.9678  1.0011
   23SAPC  C315 3096   4.239   2.712   8.591 -0.1758  0.2159  0.4006
   23SAPC  H15X 3097   4.286   2.645   8.515  0.4485  1.0407  0.0433
   23SAPC  H15Y 3098   4.312   2.794   8.608  0.7281 -0.8039  1.6033
   23SAPC  C316 3099   4.112   2.781   8.533  0.0600 -0.5999  0.0945
   23SAPC  H16X 3100   4.141   2.850   8.451  0.3062  1.6508  2.0009
   23SAPC  H16Y 3101   4.076   2.850   8.612  1.2069  1.7567 -1.3506
   23SAPC  C317 3102   4.004   2.683   8.493  0.7085 -0.7585 -0.2157
   23SAPC  H17X 3103   3.971   2.624   8.581  0.9206 -1.3745 -0.5440
   23SAPC  H17Y 3104   4.032   2.606   8.418  0.7787 -2.4439  1.4918
   23SAPC  C318 3105   3.873   2.748   8.428 -0.4607  0.1233  0.0657
   23SAPC  H18X 3106   3.892   2.812   8.339  0.9782  1.1150  1.0468
   23SAPC  H18Y 3107   3.835   2.820   8.503 -1.6612 -0.2614 -0.1499
   23SAPC  H18Z 3108   3.791   2.676   8.405 -1.3777  0.9177  0.7687
   24SAPC     N 3109   0.201   1.726  11.308 -0.2774 -0.3430  0.0188
   24SAPC   C12 3110   0.167   1.765  11.163 -0.5545  0.1768  1.2772
   24SAPC  H12A 3111   0.256   1.798  11.110 -1.3277 -1.0275 -0.9192
   24SAPC  H12B 3112   0.095   1.845  11.167  1.1833  1.7416  3.0977
   24SAPC   C13 3113   0.255   1.847  11.383 -0.1230 -0.1821 -0.4139
   24SAPC  H13A 3114   0.314   1.913  11.321 -0.2920  0.3281 -0.0390
   24SAPC  H13B 3115   0.170   1.909  11.410  0.3975  0.5863 -0.4851
   24SAPC  H13C 3116   0.302   1.837  11.480 -1.1315  1.6378  0.3365
   24SAPC   C14 3117   0.079   1.681  11.369 -1.2841 -0.4667 -0.0816
   24SAPC  H14A 3118   0.085   1.640  11.469  2.5392  0.3864  0.1581
   24SAPC  H14B 3119   0.009   1.762  11.382  1.7511  2.1752  1.0972
   24SAPC  H14C 3120   0.027   1.619  11.297 -0.8363  0.0780 -0.8767
   24SAPC   C15 3121   0.304   1.617  11.311  0.0948 -0.4421 -0.3684
   24SAPC  H15A 3122   0.273   1.534  11.251 -1.8496  0.4772 -0.6964
   24SAPC  H15B 3123   0.401   1.653  11.279 -0.5714  0.1740 -1.7741
   24SAPC  H15C 3124   0.306   1.579  11.412 -3.5979 -1.5341 -0.5835
   24SAPC   C11 3125   0.111   1.651  11.059  0.0898  0.5507  0.1648
   24SAPC  H11A 3126   0.173   1.559  11.061 -0.2862  0.2659 -0.6102
   24SAPC  H11B 3127   0.122   1.697  10.958  2.7671  4.6729  2.0499
   24SAPC     P 3128  -0.102   1.493  11.038 -0.1244  0.0957  0.3402
   24SAPC   O13 3129   0.001   1.384  11.042 -0.0653  0.4630 -0.0776
   24SAPC   O14 3130  -0.220   1.478  11.123  0.1296 -0.2506  0.6259
   24SAPC   O12 3131  -0.031   1.631  11.080 -0.0409  0.3358 -0.6004
   24SAPC   O11 3132  -0.150   1.520  10.891 -0.2660 -0.0489 -0.5098
   24SAPC    C1 3133  -0.132   1.647  10.823 -0.0519 -0.9350  0.9201
   24SAPC    HA 3134  -0.065   1.719  10.876  0.9980 -2.4276  1.6837
   24SAPC    HB 3135  -0.088   1.636  10.722  0.9609 -0.7112  1.3214
   24SAPC    C2 3136  -0.270   1.721  10.807  0.0993  0.5002  0.2789
   24SAPC    HS 3137  -0.319   1.723  10.907  1.3736  1.5915  0.9089
   24SAPC   O21 3138  -0.343   1.649  10.709 -0.0408  0.0502  0.3114
   24SAPC   C21 3139  -0.470   1.688  10.700 -0.0334 -0.0915  0.6975
   24SAPC   O22 3140  -0.523   1.770  10.775  0.4530 -0.6490  0.1685
   24SAPC   C22 3141  -0.545   1.622  10.586  0.1986  0.2682  0.6377
   24SAPC   H2R 3142  -0.480   1.548  10.535 -2.1467 -0.1220 -2.0376
   24SAPC   H2S 3143  -0.623   1.559  10.634 -0.4810  0.3910 -0.2721
   24SAPC    C3 3144  -0.251   1.874  10.768 -0.2920  0.2599 -0.7563
   24SAPC    HX 3145  -0.211   1.935  10.851 -0.9197 -0.7551  0.3215
   24SAPC    HY 3146  -0.349   1.918  10.741 -0.0285  1.2708 -0.1315
   24SAPC   O31 3147  -0.161   1.879  10.653 -0.1063  0.2276  0.2739
   24SAPC   C31 3148  -0.171   1.991  10.580 -0.2886 -0.2461 -0.0791
   24SAPC   O32 3149  -0.268   2.062  10.591 -0.1379  0.3625 -0.0211
   24SAPC   C32 3150  -0.060   2.021  10.480  0.4535  0.2917 -0.1407
   24SAPC   H2X 3151   0.036   2.030  10.535 -0.6315 -1.3957  2.2374
   24SAPC   H2Y 3152  -0.091   2.115  10.431 -0.0618  0.1796 -0.0374
   24SAPC   C23 3153  -0.610   1.724  10.501 -1.3208 -0.5956 -0.3280
   24SAPC   H3R 3154  -0.528   1.778  10.449 -0.1851 -0.3138  1.6923
   24SAPC   H3S 3155  -0.659   1.796  10.570 -1.0654 -2.4522  1.9125
   24SAPC   C24 3156  -0.702   1.668  10.391 -0.3382 -0.7930 -0.1110
   24SAPC   H4R 3157  -0.732   1.758  10.333  0.4091  0.4392  1.3375
   24SAPC   H4S 3158  -0.790   1.612  10.430  0.3593 -1.5373  0.4165
   24SAPC   C25 3159  -0.628   1.566  10.308  0.5027  0.1413 -0.7933
   24SAPC   H5R 3160  -0.622   1.467  10.356 -0.0852  0.8666  0.8358
   24SAPC   C26 3161  -0.577   1.588  10.186  0.6483 -0.2145  0.9212
   24SAPC   H6R 3162  -0.534   1.499  10.138 -0.3577 -1.6083  2.4822
   24SAPC   C27 3163  -0.557   1.714  10.112  0.2385 -0.1951 -0.3684
   24SAPC   H7R 3164  -0.506   1.787  10.178 -2.0404  2.1337 -1.0153
   24SAPC   H7S 3165  -0.658   1.754  10.090 -0.5682 -3.1912 -2.7643
   24SAPC   C28 3166  -0.476   1.697   9.988 -0.4997 -0.3123 -0.1253
   24SAPC   H8R 3167  -0.368   1.718   9.992 -0.6473  0.2680  1.1365
   24SAPC   C29 3168  -0.522   1.680   9.863  0.1951  0.0973 -0.4416
   24SAPC   H9R 3169  -0.452   1.684   9.779 -1.3533 -0.1066 -1.8014
   24SAPC  C210 3170  -0.666   1.661   9.819 -0.1505  0.2081 -0.3381
   24SAPC  H10R 3171  -0.717   1.757   9.795 -0.2628  0.1269 -0.4241
   24SAPC  H10S 3172  -0.733   1.629   9.902 -1.2720  2.2254 -0.4079
   24SAPC  C211 3173  -0.662   1.566   9.700 -0.1702 -0.2293  0.5147
   24SAPC  H11R 3174  -0.635   1.460   9.711 -1.1688 -0.4425  0.9315
   24SAPC  C212 3175  -0.699   1.592   9.577  0.4562 -0.0696 -0.2570
   24SAPC  H12R 3176  -0.716   1.504   9.514 -0.1165 -0.9386  1.0704
   24SAPC  C213 3177  -0.737   1.726   9.529  0.4875  0.7117 -0.0036
   24SAPC  H13R 3178  -0.788   1.786   9.607 -1.3570 -2.0102  1.0316
   24SAPC  H13S 3179  -0.822   1.704   9.462 -1.2934  0.6864  2.1432
   24SAPC  C214 3180  -0.627   1.812   9.477 -0.4426 -0.6413 -0.7798
   24SAPC  H14R 3181  -0.542   1.824   9.547 -1.7443  1.5881  0.5210
   24SAPC  C215 3182  -0.604   1.851   9.353  0.2551 -0.3482 -0.0098
   24SAPC  H15R 3183  -0.525   1.922   9.322 -1.8473  1.1911 -2.2111
   24SAPC  C216 3184  -0.709   1.816   9.248 -0.4062 -0.3427  0.5683
   24SAPC  H16R 3185  -0.786   1.896   9.249 -0.0590  0.0232  2.2993
   24SAPC  H16S 3186  -0.760   1.718   9.261  0.8410 -1.3410 -1.5273
   24SAPC  C217 3187  -0.648   1.840   9.099  0.1838 -0.2310  0.1372
   24SAPC  H17R 3188  -0.538   1.820   9.103  0.0206 -1.1296  0.4167
   24SAPC  H17S 3189  -0.672   1.948   9.087  1.8827  0.0051 -1.7154
   24SAPC  C218 3190  -0.716   1.763   8.980  0.1992 -0.2621  0.4971
   24SAPC  H18R 3191  -0.827   1.764   8.986  0.1363 -2.1514  0.3792
   24SAPC  H18S 3192  -0.677   1.659   8.991  0.3139  0.0552  3.9708
   24SAPC  C219 3193  -0.679   1.819   8.840 -0.7030  0.4333 -0.3921
   24SAPC  H19R 3194  -0.688   1.729   8.776 -1.6226 -1.2076  1.9096
   24SAPC  H19S 3195  -0.574   1.854   8.826  0.3151 -1.1398  2.4461
   24SAPC  C220 3196  -0.763   1.926   8.777  0.3566 -0.1094 -0.5878
   24SAPC  H20R 3197  -0.771   2.001   8.858 -1.6074 -1.3926  0.5033
   24SAPC  H20S 3198  -0.865   1.887   8.755  0.6582 -1.2076 -0.1197
   24SAPC  H20T 3199  -0.720   1.953   8.679  0.1547  0.0210 -0.6410
   24SAPC   C33 3200  -0.060   1.922  10.359  0.2637  0.2429 -0.9260
   24SAPC   H3X 3201  -0.163   1.887  10.340 -0.4339  1.3250  0.7289
   24SAPC   H3Y 3202  -0.003   1.831  10.388 -0.5755 -0.1123 -0.3831
   24SAPC   C34 3203  -0.019   1.988  10.232 -0.2806 -0.9506  0.1116
   24SAPC   H4X 3204   0.078   2.038  10.252 -1.1437  1.1745 -0.6805
   24SAPC   H4Y 3205  -0.088   2.070  10.203  0.9971  0.5857  1.2569
   24SAPC   C35 3206  -0.009   1.879  10.125  0.4769  0.5653 -0.1305
   24SAPC   H5X 3207  -0.107   1.830  10.109  0.7635 -0.3853  0.9273
   24SAPC   H5Y 3208   0.063   1.802  10.160  1.0446  1.0106 -0.3087
   24SAPC   C36 3209   0.031   1.924   9.979  0.1102  0.6717 -0.8168
   24SAPC   H6X 3210   0.140   1.904   9.967 -0.0232 -1.3055  0.7278
   24SAPC   H6Y 3211   0.013   2.033   9.965  0.2072  0.7725 -0.1837
   24SAPC   C37 3212  -0.040   1.835   9.880  0.0175  1.1980 -0.1593
   24SAPC   H7X 3213  -0.151   1.831   9.887  0.1121 -1.0486  0.9958
   24SAPC   H7Y 3214  -0.011   1.731   9.907 -0.8527  0.6596 -1.2307
   24SAPC   C38 3215   0.010   1.850   9.727 -0.5545 -0.2894  0.2240
   24SAPC   H8X 3216   0.119   1.828   9.734  0.0840  2.5810  1.0028
   24SAPC   H8Y 3217  -0.004   1.959   9.710 -2.0543 -0.3031  1.1811
   24SAPC   C39 3218  -0.074   1.764   9.637  0.1077  0.3419  1.1275
   24SAPC   H9X 3219  -0.047   1.787   9.532 -0.7010 -2.4621  0.2253
   24SAPC   H9Y 3220  -0.181   1.782   9.660 -0.3881  1.6881 -1.8532
   24SAPC  C310 3221  -0.062   1.607   9.661 -0.1670 -0.6240 -0.6239
   24SAPC  H10X 3222  -0.104   1.567   9.756 -0.4157 -2.7877 -1.5948
   24SAPC  H10Y 3223   0.047   1.585   9.660  1.1545  4.5131  0.2053
   24SAPC  C311 3224  -0.134   1.527   9.564 -0.3079  0.6454 -0.1878
   24SAPC  H11X 3225  -0.201   1.589   9.500 -1.0693  0.3192  0.2818
   24SAPC  H11Y 3226  -0.187   1.447   9.620 -0.9422  2.1793  1.5016
   24SAPC  C312 3227  -0.049   1.442   9.466 -0.4809 -0.7251  0.2664
   24SAPC  H12X 3228   0.050   1.416   9.509  0.3515 -0.4216 -1.3780
   24SAPC  H12Y 3229  -0.016   1.507   9.382  0.3485  0.0866  1.1803
   24SAPC  C313 3230  -0.126   1.327   9.414 -0.5684  0.0502  0.0333
   24SAPC  H13X 3231  -0.226   1.308   9.458 -0.6976 -1.3293 -0.7937
   24SAPC  H13Y 3232  -0.069   1.234   9.435 -0.8015 -0.2344 -0.5802
   24SAPC  C314 3233  -0.136   1.335   9.258  0.2949  0.0250  0.3239
   24SAPC  H14X 3234  -0.039   1.353   9.208  1.2429  0.1340  2.1178
   24SAPC  H14Y 3235  -0.215   1.408   9.234  0.7915 -0.2225 -2.3576
   24SAPC  C315 3236  -0.185   1.194   9.201  0.0158  0.6157 -0.2522
   24SAPC  H15X 3237  -0.263   1.165   9.274 -0.5705  0.0509 -1.0826
   24SAPC  H15Y 3238  -0.103   1.122   9.219 -0.3341  0.3681  0.3829
   24SAPC  C316 3239  -0.245   1.187   9.063 -0.2431 -0.3881 -0.6238
   24SAPC  H16X 3240  -0.346   1.234   9.063 -0.4088 -0.7400 -0.5328
   24SAPC  H16Y 3241  -0.256   1.078   9.046 -1.9109 -1.1102  3.6130
   24SAPC  C317 3242  -0.161   1.262   8.967  0.2693  0.1685 -0.0374
   24SAPC  H17X 3243  -0.053   1.235   8.973  0.7106  1.9138  0.4915
   24SAPC  H17Y 3244  -0.169   1.370   8.993  3.0648 -0.0034  2.0709
   24SAPC  C318 3245  -0.207   1.232   8.820 -0.3368 -0.0276  0.0472
   24SAPC  H18X 3246  -0.311   1.269   8.810 -0.5179  0.0091  1.7819
   24SAPC  H18Y 3247  -0.204   1.123   8.797 -1.0752  0.0364 -0.3738
   24SAPC  H18Z 3248  -0.131   1.278   8.754 -2.0539  1.0861 -1.2422
   25SAPC     N 3249   3.414   6.419   6.033  0.8341 -0.1129 -0.0648
   25SAPC   C12 3250   3.440   6.376   6.176  0.8533 -0.2018 -0.1553
   25SAPC  H12A 3251   3.534   6.421   6.205  1.5448 -1.3039 -0.6023
   25SAPC  H12B 3252   3.446   6.268   6.177  0.1440 -0.2849 -1.8422
   25SAPC   C13 3253   3.307   6.344   5.969 -0.1454  0.1768 -0.3050
   25SAPC  H13A 3254   3.332   6.239   5.982  1.0786  0.7045  2.0345
   25SAPC  H13B 3255   3.209   6.357   6.011  0.3721  2.0219  0.3929
   25SAPC  H13C 3256   3.288   6.358   5.863 -0.3530 -0.4887 -0.3631
   25SAPC   C14 3257   3.379   6.570   6.029 -0.2507  0.9919  0.1632
   25SAPC  H14A 3258   3.457   6.629   6.073 -0.6872 -0.2687  2.8069
   25SAPC  H14B 3259   3.369   6.597   5.925 -1.0008 -0.9565 -0.3294
   25SAPC  H14C 3260   3.281   6.582   6.072 -1.6205  2.8118 -3.0678
   25SAPC   C15 3261   3.531   6.397   5.939  0.3517 -0.5500  0.4355
   25SAPC  H15A 3262   3.484   6.404   5.842 -1.7553 -0.1374  1.4375
   25SAPC  H15B 3263   3.609   6.473   5.934 -0.5806  0.4231  0.2740
   25SAPC  H15C 3264   3.580   6.302   5.952  1.4886 -1.2468 -5.7164
   25SAPC   C11 3265   3.325   6.413   6.270  0.6400  0.4908 -0.2564
   25SAPC  H11A 3266   3.303   6.522   6.264  0.0527  0.3242 -1.1252
   25SAPC  H11B 3267   3.352   6.389   6.375  1.7751  0.0399 -0.6354
   25SAPC     P 3268   3.190   6.198   6.270  0.7698 -0.0895  0.3530
   25SAPC   O13 3269   3.071   6.136   6.210 -0.2653 -0.1612  0.0613
   25SAPC   O14 3270   3.311   6.118   6.237 -0.3650 -0.7656  0.0743
   25SAPC   O12 3271   3.202   6.349   6.220  0.1230 -0.2322 -0.3973
   25SAPC   O11 3272   3.182   6.205   6.431  0.0665  0.8371 -0.2258
   25SAPC    C1 3273   3.095   6.298   6.497 -0.2645  0.2745 -0.2404
   25SAPC    HA 3274   3.138   6.397   6.471  0.5458 -0.4796 -1.9053
   25SAPC    HB 3275   2.992   6.283   6.458 -0.5862 -0.7763  0.9492
   25SAPC    C2 3276   3.094   6.292   6.650  0.4217  0.3726  0.5559
   25SAPC    HS 3277   3.063   6.393   6.685 -0.3548  0.6134 -0.7589
   25SAPC   O21 3278   3.226   6.257   6.697  0.2512 -0.2442  0.4644
   25SAPC   C21 3279   3.310   6.355   6.695 -0.1369 -0.9040 -0.6049
   25SAPC   O22 3280   3.282   6.471   6.660 -0.4700 -0.3965 -0.1750
   25SAPC   C22 3281   3.436   6.321   6.776  0.5984 -0.1350  0.2335
   25SAPC   H2R 3282   3.404   6.298   6.880  0.3746  2.3704  0.7912
   25SAPC   H2S 3283   3.487   6.233   6.733  0.6340  0.1855 -0.3862
   25SAPC    C3 3284   2.998   6.179   6.697  0.0666 -0.3023 -0.5726
   25SAPC    HX 3285   3.006   6.097   6.623 -3.4651 -0.1443 -1.3448
   25SAPC    HY 3286   2.895   6.219   6.680 -0.4500 -1.0519  0.6735
   25SAPC   O31 3287   3.011   6.146   6.830 -0.2642 -0.1979  0.3431
   25SAPC   C31 3288   3.073   6.038   6.869 -0.1868  0.2239 -0.1645
   25SAPC   O32 3289   3.124   5.949   6.800  0.6305  0.2734  0.0264
   25SAPC   C32 3290   3.083   6.062   7.026 -0.1081 -0.7131  0.1966
   25SAPC   H2X 3291   3.147   5.977   7.059  1.4360  1.4588  3.3365
   25SAPC   H2Y 3292   2.983   6.049   7.072 -0.3018  1.0211  0.3337
   25SAPC   C23 3293   3.539   6.441   6.776 -0.2746 -0.1725  0.4498
   25SAPC   H3R 3294   3.489   6.535   6.807  1.1427  0.2464  1.5654
   25SAPC   H3S 3295   3.576   6.444   6.671 -2.5568 -3.4425 -0.6303
   25SAPC   C24 3296   3.655   6.414   6.873 -0.0324 -0.4011 -0.3179
   25SAPC   H4R 3297   3.612   6.407   6.976  0.4961 -0.5736 -0.1067
   25SAPC   H4S 3298   3.713   6.508   6.858  0.6398 -1.0760 -2.1264
   25SAPC   C25 3299   3.731   6.294   6.834 -0.0467  0.1803 -0.0426
   25SAPC   H5R 3300   3.767   6.292   6.730 -1.2855 -0.2339 -0.4801
   25SAPC   C26 3301   3.764   6.188   6.904  0.2161 -0.3451 -0.0361
   25SAPC   H6R 3302   3.836   6.118   6.859 -1.6796 -1.8042 -0.9668
   25SAPC   C27 3303   3.739   6.164   7.049 -0.8289 -0.6824 -0.4945
   25SAPC   H7R 3304   3.733   6.055   7.070  0.0410 -0.5974  0.2463
   25SAPC   H7S 3305   3.639   6.203   7.079 -0.3559  0.4626 -0.3536
   25SAPC   C28 3306   3.856   6.215   7.139  0.0547  0.4681 -0.5853
   25SAPC   H8R 3307   3.948   6.245   7.086 -0.2277 -1.9317 -2.6019
   25SAPC   C29 3308   3.843   6.229   7.269 -0.0035  0.0187  0.0512
   25SAPC   H9R 3309   3.932   6.272   7.317  0.0956 -1.4698  1.2560
   25SAPC  C210 3310   3.723   6.185   7.351 -0.3090 -0.0819 -0.2468
   25SAPC  H10R 3311   3.722   6.074   7.360 -1.6138 -0.1768 -1.2302
   25SAPC  H10S 3312   3.631   6.216   7.296 -1.1876  0.5030  1.5022
   25SAPC  C211 3313   3.733   6.258   7.481  0.1619  0.1582 -0.2491
   25SAPC  H11R 3314   3.752   6.366   7.474  0.2914  0.1292 -0.3226
   25SAPC  C212 3315   3.707   6.206   7.605 -0.0351  0.0576 -0.2826
   25SAPC  H12R 3316   3.724   6.275   7.689  3.5529  0.5211 -1.2168
   25SAPC  C213 3317   3.669   6.059   7.639 -0.0873 -0.1650  0.4354
   25SAPC  H13R 3318   3.648   6.000   7.547 -0.6128  1.0617 -0.2627
   25SAPC  H13S 3319   3.571   6.079   7.687 -0.4306 -0.6751 -0.0328
   25SAPC  C214 3320   3.771   5.979   7.714  0.5806  0.1488 -0.5446
   25SAPC  H14R 3321   3.825   5.907   7.650  2.8801  1.7340 -0.5387
   25SAPC  C215 3322   3.802   5.985   7.844  0.7209  0.1409 -0.5004
   25SAPC  H15R 3323   3.879   5.917   7.883 -0.4254 -1.3133 -0.6863
   25SAPC  C216 3324   3.740   6.080   7.938 -0.1922  0.3801 -0.3155
   25SAPC  H16R 3325   3.629   6.077   7.939 -0.1958  0.3232  0.7161
   25SAPC  H16S 3326   3.768   6.185   7.916  0.9637  0.1271 -0.1001
   25SAPC  C217 3327   3.779   6.069   8.086  0.3698  0.7499  0.1845
   25SAPC  H17R 3328   3.749   6.168   8.126 -0.4087  1.0760 -1.1332
   25SAPC  H17S 3329   3.889   6.052   8.095  0.1631 -1.0292 -0.2828
   25SAPC  C218 3330   3.703   5.956   8.160  0.0759  0.1786 -0.4494
   25SAPC  H18R 3331   3.739   5.962   8.265  1.6331 -0.3962 -0.9193
   25SAPC  H18S 3332   3.735   5.861   8.112  1.2108  0.2707  0.0885
   25SAPC  C219 3333   3.556   5.976   8.157 -0.2196  0.3654 -0.0004
   25SAPC  H19R 3334   3.520   5.946   8.057 -1.3633  1.8558 -0.0701
   25SAPC  H19S 3335   3.533   6.084   8.170  3.2160  0.9934  2.4163
   25SAPC  C220 3336   3.482   5.903   8.274  0.2598 -0.2444  0.0583
   25SAPC  H20R 3337   3.373   5.920   8.275  0.3506  0.5472 -1.0670
   25SAPC  H20S 3338   3.514   5.934   8.375 -2.2512  1.2011  0.4889
   25SAPC  H20T 3339   3.507   5.795   8.264  3.1201  0.3754 -0.4538
   25SAPC   C33 3340   3.146   6.202   7.053 -0.4279  0.1731 -0.0498
   25SAPC   H3X 3341   3.072   6.284   7.042 -0.9837  0.0919  2.5082
   25SAPC   H3Y 3342   3.231   6.221   6.983  0.3179 -0.4871  0.6625
   25SAPC   C34 3343   3.209   6.213   7.189  0.9225  0.1979 -0.6150
   25SAPC   H4X 3344   3.277   6.125   7.197 -2.4249 -2.6537 -0.9223
   25SAPC   H4Y 3345   3.130   6.197   7.265 -0.3639  0.9529 -1.7604
   25SAPC   C35 3346   3.275   6.342   7.224  0.4356 -0.6606 -0.6515
   25SAPC   H5X 3347   3.207   6.430   7.224  3.2505  1.7545 -3.1216
   25SAPC   H5Y 3348   3.354   6.376   7.154  2.9934  0.0664  2.3558
   25SAPC   C36 3349   3.343   6.336   7.363 -1.0753 -0.1122 -0.0937
   25SAPC   H6X 3350   3.409   6.247   7.371  0.1539  0.8033  0.3880
   25SAPC   H6Y 3351   3.262   6.309   7.434 -1.5906  0.5621 -0.4054
   25SAPC   C37 3352   3.424   6.463   7.410  0.0139 -0.4300  0.2844
   25SAPC   H7X 3353   3.380   6.550   7.356  2.7027  1.2691  0.6562
   25SAPC   H7Y 3354   3.529   6.468   7.375 -0.3505  0.0846 -0.8137
   25SAPC   C38 3355   3.425   6.510   7.563  0.1202  0.0158  0.0204
   25SAPC   H8X 3356   3.473   6.610   7.577 -0.1862  0.5809 -2.4034
   25SAPC   H8Y 3357   3.501   6.449   7.617  0.2877  2.2749  2.5536
   25SAPC   C39 3358   3.289   6.505   7.638  0.7899 -0.1348 -0.1171
   25SAPC   H9X 3359   3.209   6.518   7.562  0.2295 -1.7703  0.1397
   25SAPC   H9Y 3360   3.270   6.587   7.710 -0.0744  0.3868 -0.9178
   25SAPC  C310 3361   3.266   6.368   7.711 -0.0331 -0.8331  0.2202
   25SAPC  H10X 3362   3.264   6.287   7.635  0.6673 -0.6418 -0.0107
   25SAPC  H10Y 3363   3.163   6.375   7.751  0.0685  0.5521  0.2779
   25SAPC  C311 3364   3.372   6.332   7.813  0.0453 -0.0562 -0.2039
   25SAPC  H11X 3365   3.476   6.350   7.778  0.3446  0.6567  1.0005
   25SAPC  H11Y 3366   3.361   6.224   7.835 -1.3373 -0.0915 -0.9372
   25SAPC  C312 3367   3.357   6.404   7.941  0.2515 -0.1712  0.2764
   25SAPC  H12X 3368   3.253   6.403   7.981  0.7037 -0.2755  1.4924
   25SAPC  H12Y 3369   3.381   6.513   7.938 -0.1073  0.3813  6.0930
   25SAPC  C313 3370   3.451   6.336   8.041  0.0850  0.6542  0.8657
   25SAPC  H13X 3371   3.557   6.334   8.008 -0.3610  2.7483 -0.8993
   25SAPC  H13Y 3372   3.414   6.232   8.049  1.0388  0.1616 -0.8222
   25SAPC  C314 3373   3.452   6.405   8.177  0.4766 -0.2569 -0.2746
   25SAPC  H14X 3374   3.345   6.415   8.202  1.2532 -0.2271  3.6948
   25SAPC  H14Y 3375   3.494   6.508   8.173  0.0481 -0.1064 -1.1540
   25SAPC  C315 3376   3.523   6.329   8.280  0.5092  0.4887  0.0736
   25SAPC  H15X 3377   3.628   6.304   8.252  0.5163  1.2273 -0.5910
   25SAPC  H15Y 3378   3.476   6.230   8.299  0.3926  0.4229 -0.5387
   25SAPC  C316 3379   3.522   6.410   8.410 -0.3039  0.1921 -0.3255
   25SAPC  H16X 3380   3.559   6.347   8.494 -1.2349 -1.0744 -0.8456
   25SAPC  H16Y 3381   3.429   6.453   8.452 -0.4233 -1.0137  0.7086
   25SAPC  C317 3382   3.621   6.536   8.400 -1.0698 -0.7154 -0.4334
   25SAPC  H17X 3383   3.608   6.596   8.492 -0.3698  0.7056 -1.2209
   25SAPC  H17Y 3384   3.580   6.598   8.317 -0.1425  0.7517  0.1693
   25SAPC  C318 3385   3.770   6.500   8.383 -0.3323 -0.1819  0.4746
   25SAPC  H18X 3386   3.775   6.454   8.281  1.2246 -2.5706  1.5264
   25SAPC  H18Y 3387   3.815   6.439   8.464  1.7918 -0.7813 -1.0569
   25SAPC  H18Z 3388   3.821   6.599   8.379 -1.5600  0.4393 -2.8391
   26SAPC     N 3389   1.527   1.399   5.860  0.4150 -0.4242  0.0120
   26SAPC   C12 3390   1.598   1.324   5.977  0.1515  0.5057 -0.9913
   26SAPC  H12A 3391   1.669   1.253   5.936  1.6869  1.5776 -0.2456
   26SAPC  H12B 3392   1.533   1.266   6.041  0.9890  1.1222  0.4585
   26SAPC   C13 3393   1.439   1.297   5.792  0.4658  0.1169 -0.1526
   26SAPC  H13A 3394   1.470   1.195   5.782  1.5340  0.5856 -2.0966
   26SAPC  H13B 3395   1.341   1.297   5.839  0.7824 -0.1892  0.5139
   26SAPC  H13C 3396   1.421   1.324   5.689 -1.5091 -2.5538 -0.6110
   26SAPC   C14 3397   1.431   1.510   5.903  0.1333  0.3542  0.3877
   26SAPC  H14A 3398   1.340   1.477   5.949  1.2923  0.6504  3.0850
   26SAPC  H14B 3399   1.482   1.573   5.975 -0.8463 -0.4326  1.8260
   26SAPC  H14C 3400   1.405   1.568   5.816  1.8060 -1.5884 -1.5161
   26SAPC   C15 3401   1.632   1.454   5.767  0.9272  0.7607  0.3457
   26SAPC  H15A 3402   1.690   1.374   5.721 -0.4762 -1.1025  1.6451
   26SAPC  H15B 3403   1.583   1.501   5.683  0.3256  1.9656  1.3454
   26SAPC  H15C 3404   1.691   1.523   5.825  0.4935  1.4990 -0.0865
   26SAPC   C11 3405   1.685   1.415   6.069  0.0394 -0.3591 -0.3029
   26SAPC  H11A 3406   1.714   1.366   6.165  0.0507 -0.6383 -0.4472
   26SAPC  H11B 3407   1.620   1.492   6.115 -0.5702  0.5949 -2.6076
   26SAPC     P 3408   1.932   1.405   5.984 -0.3930 -0.0740  0.1050
   26SAPC   O13 3409   1.923   1.291   5.888 -0.2182 -0.2682 -0.4264
   26SAPC   O14 3410   2.024   1.517   5.947 -0.3386  0.0434  0.4551
   26SAPC   O12 3411   1.793   1.474   5.999  0.0334 -0.1746  0.5006
   26SAPC   O11 3412   1.974   1.350   6.126  0.0107  0.4104 -0.5180
   26SAPC    C1 3413   1.947   1.217   6.176 -0.0583  0.0527 -0.2125
   26SAPC    HA 3414   1.852   1.180   6.133 -0.6104 -0.5823  1.5046
   26SAPC    HB 3415   2.029   1.143   6.161  0.6818  0.6451  0.7682
   26SAPC    C2 3416   1.932   1.220   6.332  0.2963 -0.4299  0.1610
   26SAPC    HS 3417   1.833   1.267   6.352 -2.8559 -4.4074 -4.1664
   26SAPC   O21 3418   2.049   1.286   6.386  0.5539 -0.4099  0.1243
   26SAPC   C21 3419   2.019   1.357   6.496  0.3131  0.8517 -0.1863
   26SAPC   O22 3420   1.917   1.349   6.560 -0.6591 -0.4490 -0.3185
   26SAPC   C22 3421   2.123   1.467   6.514 -0.4878 -0.0457 -0.1999
   26SAPC   H2R 3422   2.219   1.418   6.542 -0.7586 -1.0137 -0.9018
   26SAPC   H2S 3423   2.123   1.513   6.412  1.2941 -1.8779 -1.0820
   26SAPC    C3 3424   1.925   1.076   6.398  0.7931  0.2407 -0.1547
   26SAPC    HX 3425   2.027   1.036   6.411  1.8196  2.7517  0.1201
   26SAPC    HY 3426   1.879   1.017   6.316  0.8521  0.9637 -0.7239
   26SAPC   O31 3427   1.840   1.070   6.521 -0.0361 -0.1239  0.0092
   26SAPC   C31 3428   1.905   1.041   6.632 -0.3208  0.5224 -0.4536
   26SAPC   O32 3429   2.018   0.993   6.634 -0.0611 -0.4939  0.0284
   26SAPC   C32 3430   1.811   1.054   6.750 -0.5856 -0.7285  0.2848
   26SAPC   H2X 3431   1.763   0.956   6.770  0.4924 -1.3957 -0.2634
   26SAPC   H2Y 3432   1.734   1.127   6.718 -1.4561 -1.1503  1.3927
   26SAPC   C23 3433   2.081   1.575   6.629  0.0477  0.5100  0.1474
   26SAPC   H3R 3434   1.971   1.587   6.641  0.1143 -0.2523  1.8214
   26SAPC   H3S 3435   2.113   1.675   6.593  0.9020 -0.4494 -1.9277
   26SAPC   C24 3436   2.163   1.554   6.763  0.2651 -0.5361  0.7374
   26SAPC   H4R 3437   2.269   1.555   6.728  0.0545 -1.6647  0.0011
   26SAPC   H4S 3438   2.142   1.459   6.816 -0.4846  0.5381  2.4515
   26SAPC   C25 3439   2.155   1.669   6.863  0.1573 -0.2175 -0.6275
   26SAPC   H5R 3440   2.062   1.726   6.849 -0.0313  0.3586  2.2987
   26SAPC   C26 3441   2.233   1.695   6.967  0.5135 -0.5213 -0.5279
   26SAPC   H6R 3442   2.215   1.783   7.031 -0.8264 -1.2459  0.1255
   26SAPC   C27 3443   2.354   1.615   6.998  0.4986  0.1672 -0.6591
   26SAPC   H7R 3444   2.443   1.682   7.000 -1.9760  3.6784 -0.2403
   26SAPC   H7S 3445   2.392   1.532   6.935  2.2581 -1.0960  1.8509
   26SAPC   C28 3446   2.332   1.552   7.139 -0.6152  1.1251 -0.0400
   26SAPC   H8R 3447   2.252   1.478   7.131 -0.8757  1.3904  0.0956
   26SAPC   C29 3448   2.399   1.565   7.255  0.1531  0.4940  0.0021
   26SAPC   H9R 3449   2.354   1.508   7.338 -0.5312 -0.3616 -0.9466
   26SAPC  C210 3450   2.521   1.652   7.294  0.7534  0.2545 -0.1945
   26SAPC  H10R 3451   2.560   1.702   7.203  0.0639 -0.9119 -1.1616
   26SAPC  H10S 3452   2.595   1.578   7.330  0.5572 -0.4936 -1.2757
   26SAPC  C211 3453   2.482   1.745   7.408  0.4140  0.2680 -0.2081
   26SAPC  H11R 3454   2.417   1.826   7.372 -0.0733 -0.2893 -0.6028
   26SAPC  C212 3455   2.526   1.754   7.535  0.5147  0.6045 -0.1902
   26SAPC  H12R 3456   2.483   1.828   7.604 -0.0788 -0.4800  0.6443
   26SAPC  C213 3457   2.633   1.668   7.595 -0.1694 -0.3296 -0.5067
   26SAPC  H13R 3458   2.702   1.725   7.660 -1.1012 -0.7088  0.8514
   26SAPC  H13S 3459   2.688   1.613   7.515  0.2053 -1.8771  0.7610
   26SAPC  C214 3460   2.567   1.561   7.679  0.5445 -0.8830  0.0139
   26SAPC  H14R 3461   2.499   1.496   7.622 -0.3336  0.8933 -1.0597
   26SAPC  C215 3462   2.587   1.536   7.807  0.3403 -0.8862  0.1153
   26SAPC  H15R 3463   2.531   1.454   7.855 -1.2555 -0.0438 -0.2487
   26SAPC  C216 3464   2.679   1.623   7.898 -0.4642  0.6234 -0.7317
   26SAPC  H16R 3465   2.768   1.657   7.840 -0.4933 -1.4626 -2.1168
   26SAPC  H16S 3466   2.718   1.552   7.974 -1.2654 -0.2040 -1.0754
   26SAPC  C217 3467   2.603   1.743   7.957 -0.0133  0.0912 -0.0938
   26SAPC  H17R 3468   2.499   1.711   7.982  0.8789 -0.7970  2.9592
   26SAPC  H17S 3469   2.586   1.819   7.879 -1.0376  0.2087  0.2197
   26SAPC  C218 3470   2.675   1.808   8.076 -0.1715 -0.4272 -0.1246
   26SAPC  H18R 3471   2.631   1.907   8.101 -0.0042 -0.5188  0.5608
   26SAPC  H18S 3472   2.779   1.825   8.042 -0.8575  2.5241 -0.9645
   26SAPC  C219 3473   2.687   1.724   8.201 -0.4632  0.1168  0.3363
   26SAPC  H19R 3474   2.771   1.779   8.248  2.7194 -2.6204 -1.6965
   26SAPC  H19S 3475   2.737   1.632   8.166  1.6731  1.5746 -0.6429
   26SAPC  C220 3476   2.571   1.709   8.296  0.0931  0.1030  0.3658
   26SAPC  H20R 3477   2.597   1.653   8.388 -0.5571  0.9661  1.0929
   26SAPC  H20S 3478   2.499   1.662   8.225 -0.5207  2.3246 -0.5842
   26SAPC  H20T 3479   2.524   1.799   8.341  1.6455 -0.8891  4.3375
   26SAPC   C33 3480   1.876   1.107   6.879  0.2022 -0.2774  0.0650
   26SAPC   H3X 3481   1.976   1.061   6.892  0.9018  1.1200 -0.1273
   26SAPC   H3Y 3482   1.807   1.083   6.963  1.9601  0.5145  1.8253
   26SAPC   C34 3483   1.903   1.261   6.871  0.1521  0.5213  0.9202
   26SAPC   H4X 3484   1.811   1.320   6.853  1.6346  2.7900  0.3531
   26SAPC   H4Y 3485   1.971   1.262   6.784  1.5978 -2.3318  1.8842
   26SAPC   C35 3486   1.973   1.309   6.993  0.1254  0.0597 -0.2899
   26SAPC   H5X 3487   2.012   1.407   6.959 -0.3801 -0.1342 -1.5074
   26SAPC   H5Y 3488   2.054   1.238   7.021  0.1465  0.2615  0.1650
   26SAPC   C36 3489   1.877   1.337   7.109  0.0759 -0.2348 -0.1060
   26SAPC   H6X 3490   1.829   1.239   7.130  1.1590 -0.8788 -0.5509
   26SAPC   H6Y 3491   1.794   1.401   7.073 -0.4684 -0.3537  0.9020
   26SAPC   C37 3492   1.947   1.404   7.227 -0.0409 -0.3020 -1.0360
   26SAPC   H7X 3493   1.887   1.488   7.270  0.9543  0.3009 -0.8054
   26SAPC   H7Y 3494   2.033   1.451   7.175 -0.0341  0.9668  0.0738
   26SAPC   C38 3495   1.992   1.307   7.332  0.0752  0.5509 -0.0360
   26SAPC   H8X 3496   2.076   1.246   7.292 -0.3298 -0.9058  1.2281
   26SAPC   H8Y 3497   1.909   1.235   7.347  0.0923  0.5096 -0.1380
   26SAPC   C39 3498   2.028   1.371   7.469  0.0615 -0.0571  0.1027
   26SAPC   H9X 3499   1.949   1.437   7.510 -2.4468 -2.7644  0.0044
   26SAPC   H9Y 3500   2.115   1.439   7.457 -1.7437  2.6395  1.4079
   26SAPC  C310 3501   2.068   1.264   7.569  0.3483 -0.6508  0.5787
   26SAPC  H10X 3502   2.154   1.225   7.512 -0.1514  2.3267 -2.5037
   26SAPC  H10Y 3503   1.990   1.185   7.574  1.1011 -1.3775  1.2096
   26SAPC  C311 3504   2.105   1.322   7.708  0.6897  0.5260 -0.2656
   26SAPC  H11X 3505   2.143   1.426   7.698  0.0419  0.8361  0.4276
   26SAPC  H11Y 3506   2.170   1.251   7.762 -0.6441  0.5802  1.4780
   26SAPC  C312 3507   1.977   1.337   7.789  0.3088  1.5934 -0.1900
   26SAPC  H12X 3508   1.905   1.390   7.722  2.1840  0.3206 -3.4729
   26SAPC  H12Y 3509   1.996   1.398   7.880  0.3711 -0.9155  1.5834
   26SAPC  C313 3510   1.913   1.214   7.846 -0.3742  0.0828 -0.0956
   26SAPC  H13X 3511   1.904   1.132   7.772 -0.0566 -1.1422  1.1864
   26SAPC  H13Y 3512   1.813   1.241   7.888 -0.3047  0.5252 -0.2134
   26SAPC  C314 3513   2.013   1.158   7.951  0.5183 -0.0136  0.0262
   26SAPC  H14X 3514   2.053   1.244   8.008 -2.5516  0.7533  1.2370
   26SAPC  H14Y 3515   2.093   1.107   7.893 -0.5681  0.1098 -1.6720
   26SAPC  C315 3516   1.940   1.068   8.060 -0.2848  0.1768  0.5808
   26SAPC  H15X 3517   1.888   0.986   8.007  2.6736 -0.4929 -1.5684
   26SAPC  H15Y 3518   1.861   1.133   8.104 -0.9066 -0.2235  0.0613
   26SAPC  C316 3519   2.028   1.009   8.172  0.5903 -0.0618  0.7735
   26SAPC  H16X 3520   2.097   1.087   8.211  1.0967  0.1365 -0.4497
   26SAPC  H16Y 3521   2.084   0.925   8.125  1.0840  0.3212  0.6681
   26SAPC  C317 3522   1.952   0.943   8.285  0.3088 -0.8305 -0.3330
   26SAPC  H17X 3523   1.890   0.862   8.243 -0.9166 -0.3193  0.4292
   26SAPC  H17Y 3524   1.888   1.017   8.339  0.4486 -0.9669  0.0239
   26SAPC  C318 3525   2.044   0.890   8.393  0.4448  0.0646  0.1920
   26SAPC  H18X 3526   2.110   0.969   8.437 -1.5156  1.8844  0.0143
   26SAPC  H18Y 3527   2.104   0.813   8.341 -0.1206 -0.4895  0.3485
   26SAPC  H18Z 3528   1.972   0.850   8.468 -1.6863  2.8584 -0.2158
   27SAPC     N 3529   0.476   2.685   6.721  0.5645  0.3474  0.3073
   27SAPC   C12 3530   0.460   2.537   6.672  0.5351 -0.0313  0.1988
   27SAPC  H12A 3531   0.388   2.539   6.591  0.4533  1.7733  0.2573
   27SAPC  H12B 3532   0.411   2.479   6.748 -0.5939 -0.4169 -0.7915
   27SAPC   C13 3533   0.342   2.742   6.743 -0.0341  0.0697  0.2645
   27SAPC  H13A 3534   0.357   2.847   6.765  0.0144  0.0014  0.5604
   27SAPC  H13B 3535   0.279   2.737   6.656 -2.0947 -1.2232  1.7345
   27SAPC  H13C 3536   0.288   2.683   6.815 -0.8606 -1.0802 -1.2547
   27SAPC   C14 3537   0.548   2.680   6.850  0.2922 -0.0696 -0.1664
   27SAPC  H14A 3538   0.594   2.774   6.875  1.9151 -0.4240 -1.5874
   27SAPC  H14B 3539   0.492   2.658   6.940  3.5422  1.2186  2.3752
   27SAPC  H14C 3540   0.623   2.601   6.848 -1.0354 -1.6069  2.9858
   27SAPC   C15 3541   0.554   2.761   6.620 -0.4532  0.0423  0.7903
   27SAPC  H15A 3542   0.496   2.760   6.529  2.3924  2.9448 -1.2904
   27SAPC  H15B 3543   0.566   2.867   6.636 -0.0022  0.0874  0.1826
   27SAPC  H15C 3544   0.647   2.708   6.603 -0.0714  0.3484  1.8448
   27SAPC   C11 3545   0.586   2.455   6.632 -0.4003  0.6022 -0.2871
   27SAPC  H11A 3546   0.638   2.506   6.548  0.3451 -0.2385 -0.3506
   27SAPC  H11B 3547   0.556   2.353   6.603 -0.8968  0.4520  0.7285
   27SAPC     P 3548   0.789   2.358   6.777 -0.1770 -0.3238  0.2878
   27SAPC   O13 3549   0.789   2.253   6.674  0.2964  0.5359 -0.2556
   27SAPC   O14 3550   0.903   2.450   6.786  0.1432 -0.2207 -0.4784
   27SAPC   O12 3551   0.664   2.447   6.746 -0.1536  0.0745 -0.1918
   27SAPC   O11 3552   0.757   2.300   6.914 -0.7025  0.1179  0.0613
   27SAPC    C1 3553   0.631   2.305   6.984 -0.3214 -0.6150  0.1888
   27SAPC    HA 3554   0.658   2.282   7.089  1.4735  1.9311  0.3747
   27SAPC    HB 3555   0.588   2.407   6.973 -2.1577 -1.5194 -1.7042
   27SAPC    C2 3556   0.532   2.206   6.923 -0.4725 -0.3724 -0.0049
   27SAPC    HS 3557   0.510   2.241   6.820 -0.3051  0.6547  0.2962
   27SAPC   O21 3558   0.416   2.203   7.007 -0.5744  0.2817  0.5655
   27SAPC   C21 3559   0.311   2.144   6.956  0.2653  0.2611 -0.8222
   27SAPC   O22 3560   0.296   2.091   6.850  0.0121 -0.0559  0.7315
   27SAPC   C22 3561   0.205   2.179   7.065 -0.4260  0.9414  0.2048
   27SAPC   H2R 3562   0.231   2.140   7.165 -3.2398 -0.4711  0.4660
   27SAPC   H2S 3563   0.187   2.288   7.074 -3.4323  0.4264  1.2845
   27SAPC    C3 3564   0.602   2.062   6.922  0.4992  0.9315  0.3165
   27SAPC    HX 3565   0.675   2.052   6.839 -0.0059 -0.6204  0.0238
   27SAPC    HY 3566   0.518   1.990   6.913  0.3463  1.0328  0.8754
   27SAPC   O31 3567   0.673   2.048   7.046  0.3570 -0.2723  0.0734
   27SAPC   C31 3568   0.690   1.918   7.089  0.8074 -0.9092 -0.2885
   27SAPC   O32 3569   0.652   1.820   7.029 -0.4254  0.0100  0.0967
   27SAPC   C32 3570   0.780   1.915   7.214 -0.1528 -0.3866  0.0730
   27SAPC   H2X 3571   0.884   1.930   7.179 -0.3523 -0.4097 -0.5403
   27SAPC   H2Y 3572   0.776   1.812   7.254 -0.2301 -0.2716  0.3652
   27SAPC   C23 3573   0.068   2.129   7.024 -0.2088  0.5632 -0.1820
   27SAPC   H3R 3574   0.061   2.027   7.069  0.2671  0.5566 -0.1272
   27SAPC   H3S 3575   0.044   2.119   6.916 -0.0676  0.2277 -0.1835
   27SAPC   C24 3576  -0.038   2.221   7.091  0.0286 -0.4739  1.0097
   27SAPC   H4R 3577  -0.049   2.314   7.031 -0.4149 -0.9744  0.3004
   27SAPC   H4S 3578   0.012   2.267   7.179  1.3335 -2.9172  1.6366
   27SAPC   C25 3579  -0.171   2.153   7.110 -0.4508 -0.2612  0.0119
   27SAPC   H5R 3580  -0.227   2.148   7.015  2.5317  2.7126 -2.1502
   27SAPC   C26 3581  -0.219   2.102   7.222  0.2645  0.5883 -0.6440
   27SAPC   H6R 3582  -0.316   2.051   7.215  1.3940 -1.7985  0.1640
   27SAPC   C27 3583  -0.160   2.132   7.361  0.1578  0.6119  0.3493
   27SAPC   H7R 3584  -0.249   2.148   7.426 -3.3697 -1.2155 -3.5858
   27SAPC   H7S 3585  -0.083   2.212   7.362  1.0561 -0.2190  0.0131
   27SAPC   C28 3586  -0.088   2.007   7.407 -0.2297 -0.1253 -0.0904
   27SAPC   H8R 3587  -0.052   1.950   7.319  0.5729  0.6642 -0.2823
   27SAPC   C29 3588  -0.074   1.970   7.539  0.0112  0.4883  0.5161
   27SAPC   H9R 3589  -0.018   1.878   7.562  0.0379  0.7944  1.6958
   27SAPC  C210 3590  -0.113   2.044   7.664  0.1628 -0.0037 -0.0889
   27SAPC  H10R 3591  -0.169   2.138   7.642 -0.4068 -0.3174 -0.0002
   27SAPC  H10S 3592  -0.020   2.080   7.713 -0.0430 -0.3144  0.5410
   27SAPC  C211 3593  -0.208   1.969   7.751 -0.1265  0.3371  0.0524
   27SAPC  H11R 3594  -0.314   1.982   7.724 -0.1919 -1.9697 -1.0314
   27SAPC  C212 3595  -0.183   1.927   7.875 -0.6483 -0.0840 -0.2687
   27SAPC  H12R 3596  -0.270   1.888   7.930 -0.9923 -0.3211 -0.9677
   27SAPC  C213 3597  -0.045   1.927   7.946  0.3429 -0.1982 -0.5951
   27SAPC  H13R 3598   0.031   1.908   7.867  1.6226  2.1234 -0.0186
   27SAPC  H13S 3599  -0.040   1.835   8.009 -0.0431 -0.4644 -0.9509
   27SAPC  C214 3600  -0.004   2.066   8.011  0.0800 -0.2012  0.3291
   27SAPC  H14R 3601   0.024   2.143   7.937  2.0879 -0.8543  0.3487
   27SAPC  C215 3602   0.002   2.094   8.142 -0.4511 -0.4148  0.1951
   27SAPC  H15R 3603   0.056   2.183   8.178 -1.1003 -0.7858  2.2337
   27SAPC  C216 3604  -0.033   1.995   8.255 -0.1963 -0.3165 -0.0362
   27SAPC  H16R 3605   0.047   1.998   8.332 -0.6735 -0.2230  0.4663
   27SAPC  H16S 3606  -0.045   1.890   8.220 -2.1613 -0.1041 -0.0879
   27SAPC  C217 3607  -0.155   2.055   8.323 -0.1482  0.4058 -0.4175
   27SAPC  H17R 3608  -0.247   2.022   8.270 -1.2971  2.7096 -0.0080
   27SAPC  H17S 3609  -0.155   2.164   8.342  2.8224  0.6388 -1.2090
   27SAPC  C218 3610  -0.200   1.988   8.458 -0.5840 -0.0029 -0.2435
   27SAPC  H18R 3611  -0.116   1.996   8.531  1.3303  0.8521 -2.4094
   27SAPC  H18S 3612  -0.224   1.879   8.457  1.1495 -0.4143 -0.8596
   27SAPC  C219 3613  -0.319   2.073   8.515 -0.7674 -0.3570 -0.0090
   27SAPC  H19R 3614  -0.409   2.059   8.452  1.1328 -2.4565 -2.4688
   27SAPC  H19S 3615  -0.294   2.181   8.516  0.0638 -0.5411  0.3240
   27SAPC  C220 3616  -0.351   2.027   8.654  0.4543  0.0943 -0.5686
   27SAPC  H20R 3617  -0.396   1.926   8.661 -1.3819  0.8324 -1.3228
   27SAPC  H20S 3618  -0.413   2.104   8.704  1.7234  0.6520  0.1863
   27SAPC  H20T 3619  -0.260   2.023   8.718  1.6736 -3.1694 -2.2926
   27SAPC   C33 3620   0.745   2.024   7.317 -0.3408 -0.2848 -0.6095
   27SAPC   H3X 3621   0.643   2.006   7.357  0.3984 -1.3150  0.8971
   27SAPC   H3Y 3622   0.739   2.116   7.254 -0.3623  1.0355  1.2257
   27SAPC   C34 3623   0.854   2.057   7.425  0.0956  0.4931  0.1045
   27SAPC   H4X 3624   0.815   2.147   7.478 -1.7559  0.4971 -1.1951
   27SAPC   H4Y 3625   0.940   2.092   7.364 -0.6698  3.8094  0.7434
   27SAPC   C35 3626   0.883   1.937   7.506 -0.6847 -0.0216 -0.2774
   27SAPC   H5X 3627   0.915   1.847   7.449 -0.1328 -0.7238  1.0738
   27SAPC   H5Y 3628   0.798   1.904   7.570  0.3204 -1.9367  0.1490
   27SAPC   C36 3629   0.993   1.977   7.610 -0.9034  0.1211  0.4263
   27SAPC   H6X 3630   0.952   2.054   7.679 -2.1920  0.8019 -1.0388
   27SAPC   H6Y 3631   1.079   2.020   7.555 -0.5892  0.8479  1.4436
   27SAPC   C37 3632   1.064   1.860   7.683 -0.3063  0.5315  0.5021
   27SAPC   H7X 3633   1.118   1.796   7.610 -1.0392  0.9406 -0.4167
   27SAPC   H7Y 3634   0.988   1.802   7.740  0.6744 -0.2212  1.0795
   27SAPC   C38 3635   1.151   1.919   7.793  0.2943 -0.7230  0.0357
   27SAPC   H8X 3636   1.116   2.019   7.828 -0.6797 -0.3314 -1.9280
   27SAPC   H8Y 3637   1.253   1.938   7.752  0.0087 -2.3206 -1.5124
   27SAPC   C39 3638   1.151   1.832   7.921  0.5131  0.5191  0.1867
   27SAPC   H9X 3639   1.169   1.725   7.897  0.3651  0.8096 -1.2751
   27SAPC   H9Y 3640   1.046   1.845   7.956  0.2103 -0.5009 -0.3096
   27SAPC  C310 3641   1.239   1.891   8.032  0.5787 -0.5872 -0.3615
   27SAPC  H10X 3642   1.208   1.996   8.051 -1.1721 -1.2730  0.7834
   27SAPC  H10Y 3643   1.348   1.884   8.011  0.6266 -4.2165  0.3562
   27SAPC  C311 3644   1.223   1.820   8.164  0.8256  1.2045 -0.8759
   27SAPC  H11X 3645   1.286   1.868   8.242  0.3871  1.7672 -0.8603
   27SAPC  H11Y 3646   1.258   1.715   8.162  4.8442  2.2982  0.9247
   27SAPC  C312 3647   1.085   1.816   8.224  0.4432  0.8587 -0.7600
   27SAPC  H12X 3648   1.006   1.766   8.164  0.0800  0.7765 -0.2171
   27SAPC  H12Y 3649   1.043   1.916   8.248  0.3130  0.1387  2.4927
   27SAPC  C313 3650   1.080   1.741   8.360 -0.4892  0.0326 -0.4900
   27SAPC  H13X 3651   1.136   1.806   8.431 -0.1482  1.9533 -2.4085
   27SAPC  H13Y 3652   1.117   1.639   8.337  1.2643  0.8364 -1.4855
   27SAPC  C314 3653   0.935   1.726   8.413 -0.0526 -0.5823 -0.4298
   27SAPC  H14X 3654   0.943   1.669   8.508  0.2828  0.3819  0.1341
   27SAPC  H14Y 3655   0.892   1.656   8.339  0.2346 -0.1380 -1.0288
   27SAPC  C315 3656   0.862   1.858   8.439 -0.1459 -0.5339 -0.7936
   27SAPC  H15X 3657   0.840   1.912   8.344  1.8613  0.9607 -0.4861
   27SAPC  H15Y 3658   0.921   1.929   8.500  0.7806 -0.2545 -1.9641
   27SAPC  C316 3659   0.737   1.840   8.521  1.5503  0.2208 -0.3010
   27SAPC  H16X 3660   0.649   1.798   8.468  0.1886  0.7984  1.3763
   27SAPC  H16Y 3661   0.707   1.943   8.550  2.1001 -0.0150  1.1984
   27SAPC  C317 3662   0.745   1.781   8.660 -0.0127 -0.4409  0.1223
   27SAPC  H17X 3663   0.839   1.815   8.710  1.1797 -2.1375 -0.8487
   27SAPC  H17Y 3664   0.750   1.670   8.657  1.8221 -0.5472  3.0507
   27SAPC  C318 3665   0.630   1.819   8.751  0.1799  0.5571  0.4487
   27SAPC  H18X 3666   0.654   1.905   8.817 -0.5078  0.4778  0.8150
   27SAPC  H18Y 3667   0.592   1.736   8.814 -2.8979  1.3537 -0.1773
   27SAPC  H18Z 3668   0.550   1.843   8.678  0.9440 -1.3581 -1.1141
   28SAPC     N 3669   6.051   5.212   6.532 -0.2959  0.6961 -0.1808
   28SAPC   C12 3670   6.108   5.178   6.393 -0.1952 -0.2183  0.6122
   28SAPC  H12A 3671   6.059   5.232   6.313 -0.4310  0.4912  1.2250
   28SAPC  H12B 3672   6.076   5.076   6.377 -0.8681  0.4522 -3.1891
   28SAPC   C13 3673   6.131   5.123   6.634  0.3524  0.8343  0.2287
   28SAPC  H13A 3674   6.095   5.140   6.734 -0.2485 -2.8804  0.7865
   28SAPC  H13B 3675   6.118   5.017   6.615 -0.5904  1.2169 -1.5087
   28SAPC  H13C 3676   6.237   5.139   6.638  0.5423 -0.2226 -0.1720
   28SAPC   C14 3677   6.069   5.356   6.573 -0.4618 -0.6143  0.0963
   28SAPC  H14A 3678   6.175   5.380   6.576 -0.6762  0.3035  0.5943
   28SAPC  H14B 3679   6.007   5.413   6.505  1.1051 -0.0960 -0.9745
   28SAPC  H14C 3680   6.038   5.382   6.673  1.4500  0.4344  0.4803
   28SAPC   C15 3681   5.898   5.195   6.537 -0.7947  0.1204  0.2534
   28SAPC  H15A 3682   5.859   5.208   6.637  0.8204 -0.1182  0.9540
   28SAPC  H15B 3683   5.850   5.264   6.469 -0.8910 -0.2922 -0.1027
   28SAPC  H15C 3684   5.866   5.094   6.513  0.2063 -0.1502  0.0124
   28SAPC   C11 3685   6.261   5.199   6.380  0.0078  0.4360  0.2736
   28SAPC  H11A 3686   6.294   5.296   6.425  1.0400  0.4855 -0.5402
   28SAPC  H11B 3687   6.284   5.212   6.272  1.5878  1.0209  0.6413
   28SAPC     P 3688   6.412   4.987   6.345  0.2195  0.2709 -0.3326
   28SAPC   O13 3689   6.316   4.885   6.296  0.0160  0.4096 -0.3251
   28SAPC   O14 3690   6.497   5.049   6.239  0.6357  0.2306 -0.1579
   28SAPC   O12 3691   6.335   5.091   6.434  0.0624 -0.0956 -0.3799
   28SAPC   O11 3692   6.511   4.909   6.447  0.0685 -1.1392 -0.3000
   28SAPC    C1 3693   6.620   4.963   6.523  0.3698 -0.5229  0.6804
   28SAPC    HA 3694   6.704   4.891   6.537 -0.2093 -1.0825  1.3055
   28SAPC    HB 3695   6.657   5.057   6.477 -0.7020 -0.2763  0.2983
   28SAPC    C2 3696   6.577   5.008   6.668  0.1571 -0.2721 -0.5981
   28SAPC    HS 3697   6.529   5.107   6.652 -1.7130 -1.1787 -0.8051
   28SAPC   O21 3698   6.697   5.007   6.755 -0.1499  0.1068 -0.1751
   28SAPC   C21 3699   6.768   5.114   6.766  0.7324 -0.3326  0.4896
   28SAPC   O22 3700   6.747   5.224   6.717  0.1874 -0.1126  0.1113
   28SAPC   C22 3701   6.880   5.085   6.858 -0.6814  1.1067  0.1206
   28SAPC   H2R 3702   6.880   4.978   6.888  0.4468  0.8926 -0.5813
   28SAPC   H2S 3703   6.982   5.094   6.815  0.2534 -0.9100  1.7614
   28SAPC    C3 3704   6.470   4.908   6.721 -0.1757 -0.4204  0.4790
   28SAPC    HX 3705   6.498   4.802   6.700 -1.4309 -0.5005 -0.9652
   28SAPC    HY 3706   6.378   4.920   6.660 -0.2728 -0.9408  0.5186
   28SAPC   O31 3707   6.432   4.918   6.857  0.2256 -0.3884 -0.2492
   28SAPC   C31 3708   6.514   4.847   6.944 -0.3005 -0.2122  0.3867
   28SAPC   O32 3709   6.614   4.789   6.910 -0.1975  0.3409  0.2672
   28SAPC   C32 3710   6.465   4.857   7.084 -0.0991 -0.1899 -0.3966
   28SAPC   H2X 3711   6.415   4.954   7.103 -1.5518 -0.4281 -2.6783
   28SAPC   H2Y 3712   6.548   4.848   7.159 -1.8146  2.8234  2.1062
   28SAPC   C23 3713   6.880   5.181   6.985 -0.5207  0.8326 -0.3910
   28SAPC   H3R 3714   6.855   5.281   6.943 -1.0683 -0.7678 -4.2210
   28SAPC   H3S 3715   6.974   5.174   7.044 -0.0352  0.4436 -1.1933
   28SAPC   C24 3716   6.759   5.150   7.083  0.3344  0.4387 -0.2894
   28SAPC   H4R 3717   6.770   5.227   7.163  0.4791 -1.3253  1.4647
   28SAPC   H4S 3718   6.668   5.180   7.025  1.1613  2.6428 -0.5500
   28SAPC   C25 3719   6.756   5.008   7.137 -0.2282  0.1835  0.4726
   28SAPC   H5R 3720   6.749   4.926   7.063 -1.9013  1.6899 -1.1327
   28SAPC   C26 3721   6.765   4.976   7.260  0.5629 -1.1181 -0.2612
   28SAPC   H6R 3722   6.771   4.869   7.287 -1.5511 -0.8401  1.6207
   28SAPC   C27 3723   6.778   5.073   7.377 -0.2528 -0.4190 -0.3536
   28SAPC   H7R 3724   6.702   5.152   7.361  0.7991  1.0241  1.4029
   28SAPC   H7S 3725   6.873   5.131   7.370  0.2857 -1.0405  1.3951
   28SAPC   C28 3726   6.770   5.018   7.518  0.0604 -0.0581  0.0014
   28SAPC   H8R 3727   6.699   4.935   7.532  0.4691 -1.2341 -3.8673
   28SAPC   C29 3728   6.820   5.069   7.631 -0.3095  0.6431 -0.5211
   28SAPC   H9R 3729   6.795   5.008   7.719 -0.2649  0.1827 -0.8245
   28SAPC  C210 3730   6.906   5.198   7.649 -0.2629 -0.2712  0.0261
   28SAPC  H10R 3731   6.868   5.276   7.580 -1.0724 -1.6520 -1.1513
   28SAPC  H10S 3732   7.012   5.177   7.624  0.5395  3.4780 -0.3188
   28SAPC  C211 3733   6.898   5.244   7.789 -0.0143 -0.2338 -0.0557
   28SAPC  H11R 3734   6.819   5.194   7.847  0.5543 -0.9047  0.1455
   28SAPC  C212 3735   6.989   5.326   7.841  0.2022 -0.9107 -0.5748
   28SAPC  H12R 3736   6.978   5.367   7.942 -0.1206  1.2617 -1.4464
   28SAPC  C213 3737   7.108   5.392   7.769  0.4280 -0.4520  0.6070
   28SAPC  H13R 3738   7.164   5.318   7.710 -0.3929  0.9601 -2.1205
   28SAPC  H13S 3739   7.171   5.423   7.855  0.4619  0.2028  0.3540
   28SAPC  C214 3740   7.067   5.505   7.670  0.3876 -0.2707 -0.4410
   28SAPC  H14R 3741   6.995   5.572   7.720 -0.1872 -1.0477 -0.2106
   28SAPC  C215 3742   7.093   5.519   7.539  0.1489 -0.3933  0.2710
   28SAPC  H15R 3743   7.054   5.613   7.497 -3.2683 -0.3375  3.0713
   28SAPC  C216 3744   7.186   5.435   7.457  0.0157  0.1326  0.5030
   28SAPC  H16R 3745   7.190   5.328   7.489 -0.9311 -0.3763 -0.9205
   28SAPC  H16S 3746   7.291   5.468   7.469 -0.0645  0.1293  1.2479
   28SAPC  C217 3747   7.146   5.418   7.301 -0.6510  0.1952 -0.4131
   28SAPC  H17R 3748   7.055   5.356   7.293  0.0414 -0.6015 -3.6168
   28SAPC  H17S 3749   7.226   5.354   7.257 -0.8585  0.1630 -0.7455
   28SAPC  C218 3750   7.125   5.545   7.216 -0.0749  0.2066 -0.0513
   28SAPC  H18R 3751   7.223   5.597   7.220  0.5343 -0.9331  0.2169
   28SAPC  H18S 3752   7.037   5.602   7.252 -0.6777  0.3736 -1.6925
   28SAPC  C219 3753   7.091   5.507   7.065  0.4050 -0.2226  0.0796
   28SAPC  H19R 3754   7.072   5.605   7.016  2.1587 -0.1307 -0.4661
   28SAPC  H19S 3755   6.998   5.446   7.071  0.5584 -0.5806 -0.9905
   28SAPC  C220 3756   7.194   5.427   6.994 -0.5854  0.0573  0.4991
   28SAPC  H20R 3757   7.209   5.327   7.040 -2.5197  0.5967  2.4262
   28SAPC  H20S 3758   7.290   5.481   7.009 -0.3987 -0.1911  0.2163
   28SAPC  H20T 3759   7.164   5.416   6.888 -0.4816  2.6401  0.1306
   28SAPC   C33 3760   6.371   4.738   7.114 -0.4930  0.9382 -0.2996
   28SAPC   H3X 3761   6.432   4.646   7.103 -0.2766  1.2989 -2.8725
   28SAPC   H3Y 3762   6.278   4.733   7.053 -0.8279  1.4332  0.1607
   28SAPC   C34 3763   6.330   4.742   7.256  0.7230  1.1305 -0.0654
   28SAPC   H4X 3764   6.270   4.829   7.293 -1.8419 -0.6484  0.2299
   28SAPC   H4Y 3765   6.418   4.730   7.322  1.7880 -2.0278 -1.8426
   28SAPC   C35 3766   6.239   4.614   7.284 -0.0372  0.8573 -0.3837
   28SAPC   H5X 3767   6.283   4.518   7.249 -1.1050  0.1585  0.1228
   28SAPC   H5Y 3768   6.149   4.617   7.219  0.4554  1.4298 -1.0417
   28SAPC   C36 3769   6.202   4.622   7.436  0.2745  0.2324 -0.5479
   28SAPC   H6X 3770   6.154   4.720   7.455  1.5684  0.7144  0.4201
   28SAPC   H6Y 3771   6.293   4.611   7.499  0.7301  2.5830 -0.7112
   28SAPC   C37 3772   6.105   4.507   7.467 -0.4882 -0.1718  0.0692
   28SAPC   H7X 3773   6.148   4.406   7.447  1.9301  0.7696  0.2568
   28SAPC   H7Y 3774   6.020   4.530   7.400 -0.2345 -1.6513 -0.8039
   28SAPC   C38 3775   6.047   4.505   7.604 -0.7737 -0.1720  0.0190
   28SAPC   H8X 3776   5.966   4.429   7.613 -0.4930 -0.5516 -0.5944
   28SAPC   H8Y 3777   6.002   4.607   7.614  0.4008  0.3995 -0.3384
   28SAPC   C39 3778   6.141   4.470   7.713  0.6129 -0.5199  0.4434
   28SAPC   H9X 3779   6.213   4.554   7.720  1.5739 -1.1997 -0.7979
   28SAPC   H9Y 3780   6.204   4.382   7.686  1.4129 -0.0005  0.5774
   28SAPC  C310 3781   6.067   4.437   7.849 -0.5106  0.7337  1.0885
   28SAPC  H10X 3782   5.994   4.359   7.819  0.7013  0.3732 -1.1766
   28SAPC  H10Y 3783   6.007   4.524   7.881 -0.9479  1.2635 -0.9890
   28SAPC  C311 3784   6.155   4.371   7.952 -0.8090 -0.1794  1.0142
   28SAPC  H11X 3785   6.245   4.434   7.964 -1.4491  0.9094  0.2038
   28SAPC  H11Y 3786   6.199   4.271   7.932  1.4256  0.7456  1.0750
   28SAPC  C312 3787   6.068   4.343   8.070 -0.6203 -0.0292  0.3089
   28SAPC  H12X 3788   5.998   4.261   8.042 -0.3803  0.0716 -0.5948
   28SAPC  H12Y 3789   6.001   4.430   8.090  1.5708  1.6793  0.5935
   28SAPC  C313 3790   6.146   4.296   8.191 -0.4345 -0.6865 -0.1668
   28SAPC  H13X 3791   6.194   4.390   8.225 -0.2987 -0.0393 -2.0374
   28SAPC  H13Y 3792   6.226   4.220   8.179  1.1597  0.2181  3.3182
   28SAPC  C314 3793   6.051   4.243   8.298 -0.1228 -0.1160  0.6937
   28SAPC  H14X 3794   6.113   4.184   8.369  0.6239  1.0901  1.0875
   28SAPC  H14Y 3795   5.974   4.175   8.257 -0.1540 -0.0997  0.7247
   28SAPC  C315 3796   5.986   4.360   8.375 -0.1417 -0.7795 -0.4290
   28SAPC  H15X 3797   5.880   4.373   8.342  0.6966  2.2889 -2.2859
   28SAPC  H15Y 3798   6.029   4.461   8.357  0.8064 -1.3448 -1.4909
   28SAPC  C316 3799   5.996   4.345   8.531  0.3280 -0.4302 -0.7695
   28SAPC  H16X 3800   6.105   4.357   8.550  0.9247 -0.3585 -3.7194
   28SAPC  H16Y 3801   5.966   4.243   8.564  1.8345 -0.8051 -0.4697
   28SAPC  C317 3802   5.923   4.443   8.626  0.0291 -0.7901  0.3929
   28SAPC  H17X 3803   5.816   4.449   8.598 -0.5542 -1.6928  2.2522
   28SAPC  H17Y 3804   5.969   4.544   8.615 -1.9530  0.5970  3.3188
   28SAPC  C318 3805   5.938   4.419   8.775  0.1129 -0.2765 -0.1721
   28SAPC  H18X 3806   6.048   4.425   8.788 -0.0863  1.2993  1.1709
   28SAPC  H18Y 3807   5.906   4.317   8.805 -0.0243 -0.3146 -0.4414
   28SAPC  H18Z 3808   5.901   4.499   8.843  3.1274  2.2074 -1.1909
   29SAPC     N 3809   1.941   2.697   6.075  0.2766  0.0089 -0.3270
   29SAPC   C12 3810   1.910   2.755   6.204 -0.2946 -0.7043 -0.3217
   29SAPC  H12A 3811   1.851   2.696   6.272 -0.4629 -0.6276 -0.4012
   29SAPC  H12B 3812   1.836   2.833   6.200 -0.3046 -0.7495 -1.4500
   29SAPC   C13 3813   2.035   2.576   6.082  0.4941  0.2716  0.0748
   29SAPC  H13A 3814   2.051   2.518   5.993  0.4950  0.2051  0.1187
   29SAPC  H13B 3815   2.130   2.612   6.118  1.4219  0.4272 -2.3541
   29SAPC  H13C 3816   2.000   2.503   6.153  1.6669 -1.5300 -1.1321
   29SAPC   C14 3817   1.819   2.631   6.020  0.4211  0.5151  1.0713
   29SAPC  H14A 3818   1.775   2.566   6.094  1.4820 -0.0186  1.2507
   29SAPC  H14B 3819   1.752   2.713   5.997  1.1039  1.0852  1.0655
   29SAPC  H14C 3820   1.842   2.572   5.932 -1.0197 -0.2144  1.1587
   29SAPC   C15 3821   1.980   2.804   5.981  0.0914 -0.6592 -0.1008
   29SAPC  H15A 3822   2.060   2.858   6.029 -1.4783  1.6936  0.0101
   29SAPC  H15B 3823   2.000   2.760   5.884 -0.7961 -0.9123 -0.1762
   29SAPC  H15C 3824   1.890   2.862   5.965 -1.4668 -3.2051 -1.2151
   29SAPC   C11 3825   2.026   2.810   6.293 -0.5355 -0.2032  0.2167
   29SAPC  H11A 3826   2.096   2.729   6.320  1.2755  0.0655 -3.0770
   29SAPC  H11B 3827   1.977   2.843   6.387  0.4034  0.2490  0.5581
   29SAPC     P 3828   2.051   3.058   6.260 -0.0556  0.5015 -0.0949
   29SAPC   O13 3829   2.137   3.151   6.185  0.0676 -0.6383  0.5162
   29SAPC   O14 3830   1.908   3.065   6.240  0.2416  0.1121 -0.4101
   29SAPC   O12 3831   2.102   2.915   6.233 -0.0701 -0.1863  0.1674
   29SAPC   O11 3832   2.093   3.074   6.412 -0.2732 -0.0124  0.2579
   29SAPC    C1 3833   2.230   3.065   6.455  0.0078 -0.5453 -0.4694
   29SAPC    HA 3834   2.303   3.026   6.381  2.2721  2.2918  0.0595
   29SAPC    HB 3835   2.258   3.173   6.462 -4.8225  0.8778  0.2653
   29SAPC    C2 3836   2.242   2.988   6.580 -0.4971  0.0758  0.1019
   29SAPC    HS 3837   2.199   2.886   6.568  1.7879 -1.1202  1.4141
   29SAPC   O21 3838   2.178   3.061   6.686  0.3238 -0.1045  0.4168
   29SAPC   C21 3839   2.088   2.990   6.760  0.5430 -0.6954 -1.0312
   29SAPC   O22 3840   2.052   2.875   6.736 -0.4721 -0.3789 -0.0096
   29SAPC   C22 3841   2.032   3.067   6.880 -0.6245  0.1408  0.3376
   29SAPC   H2R 3842   2.111   3.085   6.956 -0.7091  0.5533  0.3294
   29SAPC   H2S 3843   1.989   3.162   6.842 -1.6427 -0.7510 -0.8273
   29SAPC    C3 3844   2.392   2.977   6.619 -0.2456  0.3709 -0.6650
   29SAPC    HX 3845   2.431   3.078   6.643 -1.8808  0.4635  1.8641
   29SAPC    HY 3846   2.448   2.938   6.530  2.9881  0.8125  1.0229
   29SAPC   O31 3847   2.398   2.882   6.727 -0.3882  0.2502 -0.4380
   29SAPC   C31 3848   2.501   2.889   6.807  0.0409  0.6732  0.2287
   29SAPC   O32 3849   2.590   2.973   6.806  0.0992  0.5469  0.1123
   29SAPC   C32 3850   2.495   2.774   6.901 -0.2521  0.4432 -0.0273
   29SAPC   H2X 3851   2.533   2.680   6.855  0.4442  1.5224 -1.7384
   29SAPC   H2Y 3852   2.390   2.760   6.934 -0.8264  0.5844 -1.7178
   29SAPC   C23 3853   1.911   2.984   6.940 -0.7581  0.0004 -0.1564
   29SAPC   H3R 3854   1.945   2.885   6.977 -0.8248 -0.1303 -0.4450
   29SAPC   H3S 3855   1.832   2.965   6.864 -0.6676  1.3880 -0.6299
   29SAPC   C24 3856   1.842   3.066   7.053 -0.9292 -0.3661 -0.2217
   29SAPC   H4R 3857   1.743   3.023   7.079 -1.2799 -0.3303 -1.4283
   29SAPC   H4S 3858   1.808   3.161   7.004  1.1862 -0.2994 -1.7005
   29SAPC   C25 3859   1.929   3.096   7.169  0.3127 -0.2213 -1.0989
   29SAPC   H5R 3860   1.994   3.183   7.155  0.2211 -0.0985 -0.7743
   29SAPC   C26 3861   1.924   3.037   7.297  0.1361 -0.4638  0.5000
   29SAPC   H6R 3862   2.007   3.069   7.361  2.0094 -1.1503 -1.4740
   29SAPC   C27 3863   1.828   2.921   7.346 -0.6968  0.2331 -0.1651
   29SAPC   H7R 3864   1.892   2.838   7.381 -2.1850 -0.7958  0.2123
   29SAPC   H7S 3865   1.759   2.883   7.268  0.6508  0.4028 -1.4774
   29SAPC   C28 3866   1.748   2.972   7.457 -0.2333  0.4842 -0.6144
   29SAPC   H8R 3867   1.652   3.014   7.423  0.8584  2.9479 -0.8287
   29SAPC   C29 3868   1.774   2.963   7.587 -0.3365 -0.1690  0.5237
   29SAPC   H9R 3869   1.702   3.008   7.656 -2.7870 -3.4368  0.3499
   29SAPC  C210 3870   1.903   2.918   7.644  0.2624 -0.7213 -0.4170
   29SAPC  H10R 3871   1.981   2.879   7.575  2.3108  0.0573  1.3456
   29SAPC  H10S 3872   1.887   2.833   7.713 -0.1607 -1.3302 -1.2412
   29SAPC  C211 3873   1.968   3.028   7.734  0.3745 -0.2144 -0.2697
   29SAPC  H11R 3874   2.005   3.122   7.690  1.4656  1.5127  3.8873
   29SAPC  C212 3875   1.983   3.021   7.869 -0.6078 -0.5443  0.4566
   29SAPC  H12R 3876   2.051   3.095   7.913 -1.6826  0.2425  0.8346
   29SAPC  C213 3877   1.930   2.918   7.970  0.1764 -0.3502  0.2716
   29SAPC  H13R 3878   2.017   2.884   8.030 -0.3452 -0.6283  0.8841
   29SAPC  H13S 3879   1.892   2.824   7.924 -2.4034  0.7263  0.0857
   29SAPC  C214 3880   1.813   2.988   8.039 -0.2197 -1.2305  0.0610
   29SAPC  H14R 3881   1.713   2.983   7.993 -0.0639 -0.3902 -0.3933
   29SAPC  C215 3882   1.826   3.061   8.151 -0.0151 -0.0630  0.4622
   29SAPC  H15R 3883   1.732   3.106   8.186 -0.2479 -0.0362 -0.1768
   29SAPC  C216 3884   1.937   3.108   8.235  0.1966 -0.7122 -0.4754
   29SAPC  H16R 3885   1.963   3.204   8.187  0.4988 -0.2692  0.5426
   29SAPC  H16S 3886   2.031   3.049   8.233 -0.0719 -1.3155  1.8409
   29SAPC  C217 3887   1.905   3.128   8.383 -0.5690  0.4667  0.2710
   29SAPC  H17R 3888   1.808   3.180   8.402 -0.1278  0.8940  1.4490
   29SAPC  H17S 3889   1.995   3.181   8.420  0.4989 -0.2954 -1.1775
   29SAPC  C218 3890   1.882   2.984   8.436 -0.0213 -0.7258 -0.3960
   29SAPC  H18R 3891   1.948   2.910   8.386 -0.8759  0.3186 -3.2362
   29SAPC  H18S 3892   1.777   2.955   8.415 -0.6279  1.0002  0.0716
   29SAPC  C219 3893   1.901   2.973   8.592 -0.2567 -0.0561  0.3628
   29SAPC  H19R 3894   1.854   2.873   8.603  0.8419 -0.9669 -2.1598
   29SAPC  H19S 3895   1.851   3.057   8.643 -0.3561  0.1632 -0.0876
   29SAPC  C220 3896   2.053   2.974   8.639  0.1168  0.0899  0.1239
   29SAPC  H20R 3897   2.108   3.065   8.608  0.4204  0.2650  1.1545
   29SAPC  H20S 3898   2.104   2.889   8.589 -1.7577 -0.2585 -1.3125
   29SAPC  H20T 3899   2.060   2.961   8.749 -1.0234  0.0067  0.1975
   29SAPC   C33 3900   2.580   2.799   7.026  0.1447  0.3524 -0.4054
   29SAPC   H3X 3901   2.616   2.902   7.043  1.0122 -0.0442  0.2228
   29SAPC   H3Y 3902   2.670   2.735   7.016  2.2014  3.1982 -1.0202
   29SAPC   C34 3903   2.502   2.774   7.160  1.0560 -0.5796  0.0335
   29SAPC   H4X 3904   2.450   2.676   7.158 -0.4433  0.1921 -1.5481
   29SAPC   H4Y 3905   2.423   2.852   7.154  0.4488 -1.0639  1.2638
   29SAPC   C35 3906   2.575   2.793   7.291 -0.2224  0.1315 -0.5531
   29SAPC   H5X 3907   2.621   2.895   7.294 -1.3842  0.7150 -1.7143
   29SAPC   H5Y 3908   2.658   2.719   7.295 -0.0771  0.1673 -2.1462
   29SAPC   C36 3909   2.499   2.774   7.422 -0.1829 -0.2435  0.6277
   29SAPC   H6X 3910   2.452   2.674   7.420 -1.1047  0.1595 -2.2569
   29SAPC   H6Y 3911   2.429   2.860   7.429  1.2602  1.0326  0.0476
   29SAPC   C37 3912   2.584   2.775   7.549  0.4478  0.4741 -0.8346
   29SAPC   H7X 3913   2.514   2.766   7.634 -0.8198  1.6236 -1.7322
   29SAPC   H7Y 3914   2.645   2.866   7.567  0.5685  0.2747 -0.2251
   29SAPC   C38 3915   2.679   2.653   7.582  0.5293  0.1875 -0.5053
   29SAPC   H8X 3916   2.752   2.654   7.498 -1.7811 -0.0282 -2.6098
   29SAPC   H8Y 3917   2.619   2.560   7.585  2.5714 -1.2129  2.0483
   29SAPC   C39 3918   2.761   2.667   7.715  0.0727 -0.2602  0.6402
   29SAPC   H9X 3919   2.805   2.566   7.728 -2.1814 -1.0371  2.8618
   29SAPC   H9Y 3920   2.694   2.686   7.801  1.4618 -0.3430  1.7750
   29SAPC  C310 3921   2.870   2.771   7.709  0.1152 -0.2213 -0.2522
   29SAPC  H10X 3922   2.880   2.803   7.603  1.3566 -0.5591 -0.2479
   29SAPC  H10Y 3923   2.972   2.728   7.722 -0.3226 -1.3965 -0.6046
   29SAPC  C311 3924   2.854   2.903   7.796  0.1901  0.1338 -0.2423
   29SAPC  H11X 3925   2.746   2.929   7.803  0.3155  0.9448 -1.0288
   29SAPC  H11Y 3926   2.887   2.984   7.726 -1.2208  0.7594 -0.2335
   29SAPC  C312 3927   2.922   2.901   7.929 -0.1252  0.1826  0.0148
   29SAPC  H12X 3928   2.926   3.005   7.966 -1.7937  0.1301  0.4168
   29SAPC  H12Y 3929   3.028   2.875   7.909 -0.1169  1.5161 -1.8124
   29SAPC  C313 3930   2.854   2.814   8.036 -0.3165  0.4707  0.4287
   29SAPC  H13X 3931   2.873   2.705   8.030 -0.9296  0.2637  1.8517
   29SAPC  H13Y 3932   2.745   2.831   8.022  0.0325  2.0900 -0.5799
   29SAPC  C314 3933   2.890   2.863   8.176  0.2063 -0.4291  0.2075
   29SAPC  H14X 3934   2.879   2.974   8.177 -0.8488 -0.5216  0.6921
   29SAPC  H14Y 3935   2.998   2.848   8.197  0.9171  0.6142 -2.2971
   29SAPC  C315 3936   2.795   2.814   8.292 -0.6327 -0.0781 -0.0648
   29SAPC  H15X 3937   2.770   2.707   8.273  1.2757 -0.4914 -0.5069
   29SAPC  H15Y 3938   2.700   2.870   8.285  0.1383  1.1687 -1.1702
   29SAPC  C316 3939   2.846   2.824   8.439  0.4001  0.3898 -0.5104
   29SAPC  H16X 3940   2.956   2.808   8.433  0.2200 -1.0440 -0.2951
   29SAPC  H16Y 3941   2.802   2.759   8.518 -0.2844  1.3873 -0.0486
   29SAPC  C317 3942   2.829   2.961   8.515  0.8466 -0.3672  0.5314
   29SAPC  H17X 3943   2.886   3.033   8.452  1.9786 -0.2031  1.6822
   29SAPC  H17Y 3944   2.877   2.963   8.616 -0.3268 -0.9726  1.1217
   29SAPC  C318 3945   2.690   3.017   8.526 -0.6166 -0.3209 -0.2193
   29SAPC  H18X 3946   2.641   3.025   8.427 -0.2332  1.2330 -0.3015
   29SAPC  H18Y 3947   2.699   3.123   8.557  1.0881  0.0812 -1.9278
   29SAPC  H18Z 3948   2.619   2.955   8.586  1.1337 -0.4588  1.8159
   30SAPC     N 3949   4.074   1.693   5.668 -0.5462  0.3088  0.0166
   30SAPC   C12 3950   4.006   1.821   5.654  0.0362  0.9099  0.0029
   30SAPC  H12A 3951   3.930   1.816   5.578 -0.5039  0.8181  0.5438
   30SAPC  H12B 3952   4.073   1.895   5.611 -0.8093  2.2118  0.8614
   30SAPC   C13 3953   4.103   1.634   5.533  0.8399  0.1834 -0.3100
   30SAPC  H13A 3954   4.147   1.535   5.541  0.5041  0.1158  0.8279
   30SAPC  H13B 3955   4.019   1.636   5.466  0.9752 -1.3369 -0.5804
   30SAPC  H13C 3956   4.188   1.683   5.488  2.1102 -1.6042 -0.0147
   30SAPC   C14 3957   4.206   1.695   5.739  0.5107 -0.4089 -0.3630
   30SAPC  H14A 3958   4.273   1.764   5.691  1.2403 -0.7941  0.0878
   30SAPC  H14B 3959   4.192   1.724   5.843 -1.4513 -0.8265 -0.4678
   30SAPC  H14C 3960   4.251   1.598   5.750 -1.4512 -1.2529  0.9885
   30SAPC   C15 3961   3.970   1.595   5.724  1.0887 -0.3085 -0.5868
   30SAPC  H15A 3962   3.884   1.590   5.659 -0.3010  0.8314  1.0711
   30SAPC  H15B 3963   4.013   1.500   5.751  3.5747  1.1037  0.9044
   30SAPC  H15C 3964   3.934   1.624   5.822 -1.3965 -1.1737 -1.1706
   30SAPC   C11 3965   3.931   1.887   5.774 -0.9475  0.2204 -0.6586
   30SAPC  H11A 3966   3.840   1.830   5.804  1.2660 -3.4536 -0.2001
   30SAPC  H11B 3967   3.914   1.990   5.736  1.4087  0.8434 -0.1614
   30SAPC     P 3968   3.977   1.895   6.033  0.1393 -0.2553 -0.0795
   30SAPC   O13 3969   4.043   1.776   6.099  0.3763 -0.6031  0.0235
   30SAPC   O14 3970   4.008   2.026   6.092  0.2465 -0.0015 -0.2031
   30SAPC   O12 3971   4.019   1.905   5.886  0.5634  0.5108  0.4142
   30SAPC   O11 3972   3.824   1.877   6.027  0.5190  0.3757 -0.3744
   30SAPC    C1 3973   3.738   1.912   6.142 -0.1188  0.4653 -0.4914
   30SAPC    HA 3974   3.707   2.018   6.129 -2.1850 -0.2144 -1.5977
   30SAPC    HB 3975   3.642   1.857   6.136 -0.5255  0.8332  1.8003
   30SAPC    C2 3976   3.782   1.875   6.290  0.1184  0.0074  0.0527
   30SAPC    HS 3977   3.869   1.936   6.323 -0.0716  1.2552 -1.5971
   30SAPC   O21 3978   3.811   1.734   6.300  0.6300 -0.1595 -0.7404
   30SAPC   C21 3979   3.902   1.704   6.395  0.1409 -0.1387 -0.7631
   30SAPC   O22 3980   3.971   1.782   6.458 -0.3848  0.4319  0.2139
   30SAPC   C22 3981   3.908   1.552   6.428 -0.4011  0.3866 -0.7661
   30SAPC   H2R 3982   3.893   1.484   6.342  0.2705 -1.3473  0.4343
   30SAPC   H2S 3983   4.018   1.535   6.431 -0.4053  0.5229  0.6772
   30SAPC    C3 3984   3.674   1.911   6.390  0.1900  0.4153  0.0827
   30SAPC    HX 3985   3.577   1.868   6.357 -0.0219  1.8365 -1.2721
   30SAPC    HY 3986   3.658   2.021   6.388 -2.4193  0.1206  0.3254
   30SAPC   O31 3987   3.718   1.863   6.522  0.1981  0.2277 -0.1837
   30SAPC   C31 3988   3.769   1.961   6.598 -0.0283 -0.0010 -0.0445
   30SAPC   O32 3989   3.769   2.078   6.565 -1.1050  0.3383 -0.2184
   30SAPC   C32 3990   3.841   1.913   6.721 -0.4490  0.2047  0.6564
   30SAPC   H2X 3991   3.951   1.932   6.722  0.3094 -3.4359 -0.0874
   30SAPC   H2Y 3992   3.843   1.802   6.715  1.2727  0.2681 -0.8080
   30SAPC   C23 3993   3.859   1.503   6.566 -0.1990 -0.5031 -0.5689
   30SAPC   H3R 3994   3.909   1.573   6.635  0.4331  0.7898 -2.2494
   30SAPC   H3S 3995   3.890   1.400   6.591 -0.5623 -0.5368 -0.2418
   30SAPC   C24 3996   3.703   1.514   6.590 -0.2892  0.0216 -0.5622
   30SAPC   H4R 3997   3.647   1.494   6.496 -0.1031  0.4191 -0.7605
   30SAPC   H4S 3998   3.666   1.617   6.609 -1.2354  0.1128 -2.6119
   30SAPC   C25 3999   3.660   1.413   6.701 -0.1849  0.1294 -0.5491
   30SAPC   H5R 4000   3.659   1.308   6.669  3.1475 -0.4789  0.8976
   30SAPC   C26 4001   3.617   1.437   6.827 -0.1933 -0.0779  0.3519
   30SAPC   H6R 4002   3.593   1.348   6.887  0.6269 -0.1975  0.5254
   30SAPC   C27 4003   3.609   1.569   6.900 -0.0049  0.3027  0.7551
   30SAPC   H7R 4004   3.503   1.600   6.907  0.0494  1.0900 -1.1097
   30SAPC   H7S 4005   3.665   1.647   6.843  0.9844 -0.5652  0.5031
   30SAPC   C28 4006   3.670   1.569   7.041  0.4587  0.5495  0.1437
   30SAPC   H8R 4007   3.779   1.581   7.048  0.4043  2.1658 -1.1946
   30SAPC   C29 4008   3.604   1.540   7.156  0.3813  0.4185  0.3046
   30SAPC   H9R 4009   3.655   1.538   7.253 -0.3067 -0.6244  0.6613
   30SAPC  C210 4010   3.454   1.515   7.161  0.3797 -0.0336 -0.1624
   30SAPC  H10R 4011   3.404   1.582   7.089  0.4979  1.9524  1.5087
   30SAPC  H10S 4012   3.411   1.552   7.257 -1.3877  1.5633 -1.4806
   30SAPC  C211 4013   3.420   1.364   7.145  0.2923  0.0008 -0.1345
   30SAPC  H11R 4014   3.461   1.325   7.051  3.3813 -0.7745  1.4051
   30SAPC  C212 4015   3.371   1.288   7.251 -0.7968 -0.0123  0.2429
   30SAPC  H12R 4016   3.339   1.185   7.227  0.1569 -0.0934 -0.7403
   30SAPC  C213 4017   3.326   1.341   7.389  0.1468  0.0482 -0.1292
   30SAPC  H13R 4018   3.314   1.451   7.381  2.0271  0.3511  0.5608
   30SAPC  H13S 4019   3.405   1.325   7.466  1.1811  0.6006 -1.0371
   30SAPC  C214 4020   3.199   1.271   7.433  0.4958 -0.0819  0.3323
   30SAPC  H14R 4021   3.111   1.300   7.373 -0.1058 -1.0028  0.7592
   30SAPC  C215 4022   3.172   1.205   7.544 -0.1518  0.3590  0.1126
   30SAPC  H15R 4023   3.066   1.182   7.563 -0.0164  0.3714  0.8988
   30SAPC  C216 4024   3.264   1.170   7.663  0.2041 -0.1703  0.1127
   30SAPC  H16R 4025   3.200   1.132   7.745 -1.1474 -1.5001 -1.4953
   30SAPC  H16S 4026   3.321   1.258   7.702  3.3171 -1.6654 -0.7207
   30SAPC  C217 4027   3.369   1.063   7.629  1.6319  0.0785 -0.0713
   30SAPC  H17R 4028   3.419   1.088   7.534 -0.4942  1.6811 -0.8538
   30SAPC  H17S 4029   3.314   0.969   7.610 -1.3998  1.8860 -0.8988
   30SAPC  C218 4030   3.475   1.059   7.738 -0.4844 -0.6354 -0.8297
   30SAPC  H18R 4031   3.521   1.159   7.747  1.9579 -1.6663 -1.1702
   30SAPC  H18S 4032   3.556   0.988   7.710  0.3871 -1.0262  2.3227
   30SAPC  C219 4033   3.414   1.017   7.876  0.5925 -0.6368 -0.3202
   30SAPC  H19R 4034   3.328   1.084   7.894 -1.0875 -1.7768 -3.3446
   30SAPC  H19S 4035   3.489   1.045   7.954 -0.2742  1.0723 -0.0564
   30SAPC  C220 4036   3.356   0.874   7.900 -0.3792  0.0489 -0.5699
   30SAPC  H20R 4037   3.444   0.806   7.902  0.6111  1.2432  2.3407
   30SAPC  H20S 4038   3.283   0.836   7.825 -0.2826  0.0936 -0.6857
   30SAPC  H20T 4039   3.296   0.871   7.994 -2.1586  1.1776 -1.6150
   30SAPC   C33 4040   3.769   1.966   6.847 -0.2618  0.1855 -0.0670
   30SAPC   H3X 4041   3.660   1.947   6.838 -0.4813  0.9191  0.9302
   30SAPC   H3Y 4042   3.791   2.074   6.860  3.3121 -0.3442 -0.6483
   30SAPC   C34 4043   3.828   1.893   6.981 -0.1983  0.0567 -0.4943
   30SAPC   H4X 4044   3.929   1.939   6.980 -0.0423 -0.2202 -2.6751
   30SAPC   H4Y 4045   3.832   1.783   6.965  1.4383  0.3367 -2.4517
   30SAPC   C35 4046   3.746   1.920   7.107 -0.6990 -0.3825  0.4192
   30SAPC   H5X 4047   3.646   1.876   7.091 -0.5253  0.2238 -3.1518
   30SAPC   H5Y 4048   3.742   2.031   7.121  0.3279 -0.1257 -1.1168
   30SAPC   C36 4049   3.827   1.873   7.235  0.1389 -0.0017  0.2781
   30SAPC   H6X 4050   3.932   1.911   7.238 -0.5333  1.9761  0.2984
   30SAPC   H6Y 4051   3.831   1.764   7.214 -2.0083  0.2439 -1.8306
   30SAPC   C37 4052   3.746   1.904   7.363 -0.0374  0.4335  1.3467
   30SAPC   H7X 4053   3.644   1.859   7.363 -0.1740  0.7353  1.1579
   30SAPC   H7Y 4054   3.740   2.015   7.373  1.4035  0.8745 -1.5282
   30SAPC   C38 4055   3.826   1.854   7.483 -0.0856  0.2221  0.4297
   30SAPC   H8X 4056   3.928   1.897   7.481  0.2406 -0.5441 -1.8244
   30SAPC   H8Y 4057   3.827   1.743   7.482  0.3467  0.2103 -1.4909
   30SAPC   C39 4058   3.767   1.910   7.617  0.0564  0.0821  0.3067
   30SAPC   H9X 4059   3.681   1.841   7.628 -1.7228  1.6976 -2.3848
   30SAPC   H9Y 4060   3.730   2.013   7.596  0.9892  0.2165 -0.7335
   30SAPC  C310 4061   3.860   1.908   7.739 -0.4036  0.2605  0.2310
   30SAPC  H10X 4062   3.939   1.976   7.701 -0.2558 -0.1123 -0.1468
   30SAPC  H10Y 4063   3.895   1.806   7.769  0.8317  1.2097  2.1883
   30SAPC  C311 4064   3.800   1.962   7.865 -0.0427 -0.2819 -0.0648
   30SAPC  H11X 4065   3.747   1.887   7.928 -2.8679  1.7881  0.2087
   30SAPC  H11Y 4066   3.727   2.043   7.845  1.6040  0.6663 -2.7258
   30SAPC  C312 4067   3.905   2.020   7.966 -0.7047 -0.2071  0.4546
   30SAPC  H12X 4068   3.854   2.098   8.026  0.2918  2.4466 -1.8921
   30SAPC  H12Y 4069   3.988   2.074   7.914  0.8645 -2.2024  0.7708
   30SAPC  C313 4070   3.966   1.913   8.060  0.0660  0.6515 -0.2487
   30SAPC  H13X 4071   4.043   1.842   8.025 -1.8451 -1.6479 -0.0883
   30SAPC  H13Y 4072   3.893   1.836   8.093  1.3272  0.2953  1.8466
   30SAPC  C314 4073   4.014   1.984   8.191 -0.4904  0.4319  0.4601
   30SAPC  H14X 4074   3.944   2.058   8.235 -1.2900  0.4353 -0.7464
   30SAPC  H14Y 4075   4.105   2.041   8.161 -0.3326 -0.3955 -0.7283
   30SAPC  C315 4076   4.063   1.890   8.296  0.0713  0.9862 -0.3631
   30SAPC  H15X 4077   4.153   1.837   8.258 -0.8871  0.7100 -2.3636
   30SAPC  H15Y 4078   3.982   1.816   8.311  1.4215 -0.5954 -0.5527
   30SAPC  C316 4079   4.105   1.938   8.432  0.8771 -0.6920  0.3298
   30SAPC  H16X 4080   4.027   1.999   8.483 -0.0307 -0.3639 -1.4007
   30SAPC  H16Y 4081   4.191   2.003   8.404  0.2149  1.1340  2.2192
   30SAPC  C317 4082   4.168   1.832   8.520  0.2849 -0.2776 -0.0495
   30SAPC  H17X 4083   4.270   1.868   8.546 -0.2451  0.6407  0.8192
   30SAPC  H17Y 4084   4.177   1.740   8.459  1.8191 -0.8201  0.9476
   30SAPC  C318 4085   4.078   1.799   8.643 -0.3870  0.1540 -0.2240
   30SAPC  H18X 4086   4.144   1.764   8.725 -0.1318  2.4009  0.6053
   30SAPC  H18Y 4087   3.995   1.733   8.610 -1.9061  2.0863 -0.4478
   30SAPC  H18Z 4088   4.032   1.893   8.681 -1.7146 -1.0658  1.3130
   31SAPC     N 4089   6.756   1.890   6.446  0.1580 -0.1648  0.5215
   31SAPC   C12 4090   6.668   1.768   6.446  0.0827 -0.3932  0.8663
   31SAPC  H12A 4091   6.712   1.688   6.503 -0.6615 -1.0841  0.4907
   31SAPC  H12B 4092   6.656   1.732   6.345  0.1837  0.8230  0.3962
   31SAPC   C13 4093   6.694   1.990   6.349  0.6150 -0.0797  0.6186
   31SAPC  H13A 4094   6.587   1.997   6.360  0.1842 -4.1570  0.6081
   31SAPC  H13B 4095   6.742   2.085   6.362  0.5442 -0.0871  0.9559
   31SAPC  H13C 4096   6.716   1.955   6.249  0.0081  0.8594  0.1525
   31SAPC   C14 4097   6.768   1.959   6.586 -0.1217 -0.0036  0.0152
   31SAPC  H14A 4098   6.806   1.889   6.659 -0.5645 -0.2999 -0.0297
   31SAPC  H14B 4099   6.828   2.047   6.571 -0.6597  0.2055 -1.0273
   31SAPC  H14C 4100   6.676   2.000   6.624  0.3807  0.7952  0.3813
   31SAPC   C15 4101   6.893   1.866   6.397 -0.1498  0.4659 -0.1283
   31SAPC  H15A 4102   6.945   1.804   6.467  0.9460 -0.8195 -1.9908
   31SAPC  H15B 4103   6.901   1.826   6.297  1.4398 -1.3387  0.6799
   31SAPC  H15C 4104   6.948   1.957   6.376  0.4962 -0.4137 -2.7026
   31SAPC   C11 4105   6.513   1.785   6.491  0.0096 -0.4228 -0.1755
   31SAPC  H11A 4106   6.502   1.809   6.599 -2.5707 -2.6096  0.1356
   31SAPC  H11B 4107   6.468   1.684   6.480 -1.1891  0.1824 -1.0510
   31SAPC     P 4108   6.308   1.937   6.450  0.3639 -0.3351  0.4485
   31SAPC   O13 4109   6.328   2.065   6.517  0.5859  0.2169 -0.1904
   31SAPC   O14 4110   6.233   1.940   6.320  0.0877  0.3779  0.0570
   31SAPC   O12 4111   6.448   1.885   6.411 -0.4029 -0.1936 -0.0842
   31SAPC   O11 4112   6.243   1.841   6.557  0.2237  0.4105  0.5990
   31SAPC    C1 4113   6.137   1.879   6.642  0.2910 -0.0778  0.3720
   31SAPC    HA 4114   6.077   1.960   6.596  1.5712 -0.5662 -2.3536
   31SAPC    HB 4115   6.080   1.786   6.661 -1.1724  0.3761 -1.5253
   31SAPC    C2 4116   6.198   1.935   6.779  0.6078 -1.3050  0.0950
   31SAPC    HS 4117   6.227   2.039   6.756 -0.8872 -0.7224  0.7306
   31SAPC   O21 4118   6.306   1.852   6.823  0.2672 -0.0389 -0.3158
   31SAPC   C21 4119   6.400   1.908   6.900  0.4686  0.1883  0.2605
   31SAPC   O22 4120   6.404   2.027   6.916 -0.1566  0.3646  0.2715
   31SAPC   C22 4121   6.482   1.804   6.979  0.5308  0.1556  0.1814
   31SAPC   H2R 4122   6.466   1.826   7.087 -1.6013 -1.2985  0.2351
   31SAPC   H2S 4123   6.436   1.706   6.954 -0.1316  0.2924  0.8185
   31SAPC    C3 4124   6.091   1.952   6.896 -0.1604 -0.1101  0.1805
   31SAPC    HX 4125   6.049   1.851   6.918 -2.6305  0.8277  0.1034
   31SAPC    HY 4126   6.006   2.011   6.857 -1.5821 -1.5992  0.8816
   31SAPC   O31 4127   6.142   2.008   7.014  0.1963  0.2270 -0.8474
   31SAPC   C31 4128   6.119   2.140   7.041  0.2915 -0.3779 -0.3497
   31SAPC   O32 4129   6.047   2.211   6.971 -0.3124  0.0581 -0.7721
   31SAPC   C32 4130   6.200   2.179   7.162 -0.1407  0.3315 -0.2490
   31SAPC   H2X 4131   6.306   2.159   7.137 -0.2393 -0.1689 -0.2772
   31SAPC   H2Y 4132   6.185   2.112   7.250 -1.1728 -0.8911 -1.3036
   31SAPC   C23 4133   6.627   1.808   6.921 -0.3214  0.9644  0.4854
   31SAPC   H3R 4134   6.666   1.910   6.901 -1.5464  1.2668 -0.5296
   31SAPC   H3S 4135   6.629   1.768   6.817  0.1219  3.6509 -0.6398
   31SAPC   C24 4136   6.725   1.738   7.020 -0.0992 -0.2153  0.3752
   31SAPC   H4R 4137   6.724   1.790   7.118 -2.4340  0.0827  0.2499
   31SAPC   H4S 4138   6.829   1.741   6.982  0.3468 -0.0510  1.5898
   31SAPC   C25 4139   6.678   1.595   7.038  0.7337 -0.9680 -0.0706
   31SAPC   H5R 4140   6.636   1.549   6.947 -3.1250  3.9359 -1.2441
   31SAPC   C26 4141   6.695   1.515   7.140 -0.2948 -0.7932 -0.5621
   31SAPC   H6R 4142   6.650   1.415   7.147  0.6395 -1.2050 -0.2596
   31SAPC   C27 4143   6.772   1.550   7.265  0.4271  0.1055  0.5634
   31SAPC   H7R 4144   6.692   1.594   7.328  0.8383 -0.0905  1.2318
   31SAPC   H7S 4145   6.844   1.633   7.248 -0.5770  0.8883  0.0196
   31SAPC   C28 4146   6.843   1.426   7.329 -0.3219 -0.0546  0.1889
   31SAPC   H8R 4147   6.912   1.368   7.266  2.7403  1.2505  2.1001
   31SAPC   C29 4148   6.839   1.391   7.462 -0.5588  0.0093 -0.3761
   31SAPC   H9R 4149   6.888   1.298   7.495 -2.9406 -1.6071 -1.1570
   31SAPC  C210 4150   6.772   1.462   7.569  0.6952  0.1504  0.2945
   31SAPC  H10R 4151   6.730   1.392   7.644  0.3464  2.0420  1.9794
   31SAPC  H10S 4152   6.685   1.514   7.523  0.0201  0.3911  1.7684
   31SAPC  C211 4153   6.855   1.563   7.646 -0.1000 -0.2776  0.4273
   31SAPC  H11R 4154   6.909   1.637   7.585 -0.1025  0.1963  0.9935
   31SAPC  C212 4155   6.869   1.582   7.777 -0.8090  0.0366  0.2833
   31SAPC  H12R 4156   6.932   1.664   7.812 -0.0737 -0.7610  0.8686
   31SAPC  C213 4157   6.818   1.496   7.895 -0.4747 -0.1740  1.1471
   31SAPC  H13R 4158   6.767   1.405   7.856  0.0750 -0.2473  0.5789
   31SAPC  H13S 4159   6.745   1.560   7.949 -1.0388  1.1003 -1.0074
   31SAPC  C214 4160   6.936   1.448   7.986  0.1252  0.6282 -0.3613
   31SAPC  H14R 4161   6.978   1.351   7.955 -1.0582  0.1150 -0.3977
   31SAPC  C215 4162   6.968   1.492   8.107  0.1308  0.2516 -0.6599
   31SAPC  H15R 4163   7.060   1.444   8.144 -0.6548 -0.4666  0.3997
   31SAPC  C216 4164   6.919   1.614   8.176  0.1126  0.3156  0.2815
   31SAPC  H16R 4165   6.808   1.615   8.164 -0.0594 -0.3038  1.5648
   31SAPC  H16S 4166   6.961   1.709   8.137  0.2661  1.0697  2.1652
   31SAPC  C217 4167   6.960   1.614   8.323  0.5270  0.4324 -0.5850
   31SAPC  H17R 4168   6.956   1.714   8.373 -3.1235 -0.1724  0.6764
   31SAPC  H17S 4169   7.061   1.568   8.326 -0.1233 -1.0120  1.3058
   31SAPC  C218 4170   6.863   1.515   8.395  0.4362  0.5109 -0.1291
   31SAPC  H18R 4171   6.880   1.427   8.330  1.8786 -0.3910  1.3701
   31SAPC  H18S 4172   6.753   1.527   8.401  0.1848 -0.7094 -1.5999
   31SAPC  C219 4173   6.922   1.489   8.537  0.2312 -0.3382  0.2822
   31SAPC  H19R 4174   7.012   1.428   8.518  0.0703 -0.0725 -1.4274
   31SAPC  H19S 4175   6.855   1.417   8.589 -2.2295  0.8694 -1.0314
   31SAPC  C220 4176   6.962   1.613   8.621  0.6062  0.4381  0.1293
   31SAPC  H20R 4177   6.873   1.679   8.628 -1.3982 -2.1119  0.4462
   31SAPC  H20S 4178   7.042   1.676   8.576  0.3891 -0.0621 -1.0008
   31SAPC  H20T 4179   6.990   1.583   8.724  2.8611  1.3944 -0.1448
   31SAPC   C33 4180   6.171   2.320   7.221 -0.2708  0.2001 -0.3530
   31SAPC   H3X 4181   6.070   2.330   7.265 -0.0891 -0.5971  0.2563
   31SAPC   H3Y 4182   6.154   2.387   7.134 -0.5768  0.0173 -0.4360
   31SAPC   C34 4183   6.273   2.379   7.314 -0.1899 -0.0458 -0.8751
   31SAPC   H4X 4184   6.246   2.484   7.339  0.5357  0.1009 -0.7075
   31SAPC   H4Y 4185   6.375   2.365   7.274 -0.2386  1.0965 -1.4390
   31SAPC   C35 4186   6.266   2.300   7.445 -0.1082  0.6765 -0.4579
   31SAPC   H5X 4187   6.322   2.204   7.435 -0.3535  0.7178 -2.6038
   31SAPC   H5Y 4188   6.161   2.282   7.475 -0.2051  0.4404 -0.9281
   31SAPC   C36 4189   6.327   2.377   7.562 -0.4247  0.9099 -0.4676
   31SAPC   H6X 4190   6.242   2.431   7.607  0.1186 -1.1749  3.5290
   31SAPC   H6Y 4191   6.416   2.438   7.533  0.0221  0.4580 -0.0735
   31SAPC   C37 4192   6.368   2.283   7.675 -0.1156  0.3923 -0.3723
   31SAPC   H7X 4193   6.459   2.223   7.649  0.1916 -0.0001  1.4962
   31SAPC   H7Y 4194   6.293   2.210   7.711 -0.6865  0.6892 -0.9412
   31SAPC   C38 4195   6.402   2.355   7.809  0.0694 -0.9248  0.1063
   31SAPC   H8X 4196   6.308   2.398   7.848  0.6819  1.6699 -1.0375
   31SAPC   H8Y 4197   6.474   2.436   7.787  0.8941 -1.3867  0.9863
   31SAPC   C39 4198   6.473   2.261   7.904 -0.0934  0.0517  0.4442
   31SAPC   H9X 4199   6.576   2.247   7.865  0.2346  2.3830  0.2898
   31SAPC   H9Y 4200   6.423   2.162   7.907 -0.4228  0.1869 -0.3490
   31SAPC  C310 4201   6.478   2.313   8.051  0.2522  0.1616  0.0240
   31SAPC  H10X 4202   6.546   2.241   8.102 -0.0643  1.0856  1.8034
   31SAPC  H10Y 4203   6.376   2.298   8.092 -1.5651  2.1976 -3.2752
   31SAPC  C311 4204   6.533   2.454   8.079  0.1445 -0.3851  0.2953
   31SAPC  H11X 4205   6.484   2.521   8.005 -0.1270 -0.1734  0.6632
   31SAPC  H11Y 4206   6.640   2.456   8.048  0.2640  1.3518  0.6910
   31SAPC  C312 4207   6.494   2.513   8.218  0.0428 -0.6939 -0.2187
   31SAPC  H12X 4208   6.562   2.599   8.235 -2.1097  1.7564 -2.9869
   31SAPC  H12Y 4209   6.518   2.441   8.300 -1.4145 -0.2170  0.6480
   31SAPC  C313 4210   6.352   2.561   8.232 -0.0900  0.0918  0.2021
   31SAPC  H13X 4211   6.292   2.472   8.202 -1.2693  1.0471 -0.3685
   31SAPC  H13Y 4212   6.325   2.639   8.157 -0.0157  0.1789  0.2647
   31SAPC  C314 4213   6.326   2.601   8.374 -0.0965  0.0798 -0.3368
   31SAPC  H14X 4214   6.409   2.664   8.412 -0.6747  0.2101  0.7514
   31SAPC  H14Y 4215   6.311   2.513   8.441  0.0061  0.6826  0.4953
   31SAPC  C315 4216   6.197   2.690   8.377 -0.9273 -0.0052  0.2419
   31SAPC  H15X 4217   6.109   2.645   8.326 -1.0868 -1.0394  1.3900
   31SAPC  H15Y 4218   6.227   2.785   8.329  0.7731 -1.1937 -1.1745
   31SAPC  C316 4219   6.148   2.721   8.517 -0.4582 -0.0604 -0.0649
   31SAPC  H16X 4220   6.179   2.643   8.590 -0.5656 -0.1361 -0.0986
   31SAPC  H16Y 4221   6.037   2.731   8.511 -0.4762 -0.8542 -1.3691
   31SAPC  C317 4222   6.189   2.861   8.575  0.3456 -0.0153 -0.6713
   31SAPC  H17X 4223   6.147   2.933   8.501  0.4278 -1.1412 -1.8557
   31SAPC  H17Y 4224   6.299   2.868   8.558  0.8755 -4.0990  0.1400
   31SAPC  C318 4225   6.140   2.885   8.717 -0.5622  0.5119  0.1654
   31SAPC  H18X 4226   6.184   2.981   8.752  1.8422 -0.3929 -0.2248
   31SAPC  H18Y 4227   6.182   2.802   8.778 -0.7811 -1.2729 -2.0170
   31SAPC  H18Z 4228   6.029   2.880   8.724 -0.5436  0.1063  0.1922
   32SAPC     N 4229   6.456   1.386   6.060 -0.2112 -0.1042 -0.0907
   32SAPC   C12 4230   6.467   1.469   6.184 -0.3643 -0.0941 -0.0622
   32SAPC  H12A 4231   6.382   1.529   6.211  0.5724  0.5390  1.6455
   32SAPC  H12B 4232   6.540   1.545   6.160  2.0423 -2.0791  0.5444
   32SAPC   C13 4233   6.579   1.314   6.026 -0.6165 -0.4268 -0.3427
   32SAPC  H13A 4234   6.566   1.255   5.937  0.2737 -0.7508 -0.2715
   32SAPC  H13B 4235   6.661   1.384   6.018 -2.0756  1.2652 -1.1728
   32SAPC  H13C 4236   6.608   1.257   6.113 -0.5686  1.3260  0.8482
   32SAPC   C14 4237   6.347   1.282   6.080 -0.0263 -0.5643  0.4640
   32SAPC  H14A 4238   6.255   1.328   6.111  0.6308 -0.2391  2.0702
   32SAPC  H14B 4239   6.344   1.224   5.989  0.6383 -0.5427  0.4210
   32SAPC  H14C 4240   6.371   1.208   6.155 -0.4962 -1.0280  0.1621
   32SAPC   C15 4241   6.417   1.470   5.942  0.1272 -0.2434  0.2096
   32SAPC  H15A 4242   6.405   1.417   5.849 -3.1058  0.3633  0.1952
   32SAPC  H15B 4243   6.329   1.529   5.963  0.2172  0.9055 -2.2844
   32SAPC  H15C 4244   6.488   1.551   5.934 -0.2902  0.5174  3.0727
   32SAPC   C11 4245   6.512   1.395   6.314 -0.0357  0.1229  0.1971
   32SAPC  H11A 4246   6.444   1.309   6.330  1.5585 -1.1213  0.5977
   32SAPC  H11B 4247   6.511   1.465   6.400  2.9626 -1.6283  1.8346
   32SAPC     P 4248   6.764   1.453   6.315  0.2411  0.3721 -0.3367
   32SAPC   O13 4249   6.895   1.393   6.287  0.2525 -0.4486 -0.0626
   32SAPC   O14 4250   6.742   1.578   6.234  0.3329  0.1941 -0.2458
   32SAPC   O12 4251   6.647   1.350   6.301 -0.4555  0.1510  0.4844
   32SAPC   O11 4252   6.754   1.493   6.469 -0.2840  0.3252 -0.1804
   32SAPC    C1 4253   6.777   1.391   6.566  0.3536  0.0657  0.1940
   32SAPC    HA 4254   6.860   1.324   6.533  2.7041  1.6644  2.4815
   32SAPC    HB 4255   6.804   1.441   6.662  0.2420  0.5490 -0.0271
   32SAPC    C2 4256   6.649   1.316   6.605  0.0827  0.3732 -0.4884
   32SAPC    HS 4257   6.615   1.268   6.510  0.2430  0.7782 -0.7537
   32SAPC   O21 4258   6.548   1.409   6.646 -0.7828  0.6461  0.6829
   32SAPC   C21 4259   6.426   1.351   6.657  0.4106 -0.1257  0.1883
   32SAPC   O22 4260   6.393   1.257   6.586 -0.7491  0.2062 -0.0797
   32SAPC   C22 4261   6.333   1.422   6.760 -0.4718  0.8776 -0.2762
   32SAPC   H2R 4262   6.368   1.527   6.762  0.5765  0.5654  3.2199
   32SAPC   H2S 4263   6.227   1.426   6.726 -0.3819  1.8014 -0.4742
   32SAPC    C3 4264   6.686   1.204   6.712 -0.2137 -0.2156 -0.3547
   32SAPC    HX 4265   6.736   1.257   6.796 -1.5018  1.9674 -0.8766
   32SAPC    HY 4266   6.752   1.134   6.657 -1.5588 -0.3488 -1.8991
   32SAPC   O31 4267   6.568   1.136   6.778 -0.2300 -0.4394 -0.3150
   32SAPC   C31 4268   6.529   1.028   6.706 -0.3104  0.0845  0.1644
   32SAPC   O32 4269   6.577   0.999   6.598  0.1536 -0.1102 -0.1546
   32SAPC   C32 4270   6.435   0.949   6.800  0.6049 -0.0517 -0.1334
   32SAPC   H2X 4271   6.380   0.883   6.729  0.2708 -1.0702  1.0514
   32SAPC   H2Y 4272   6.363   1.017   6.850  1.7089  0.9446  0.1563
   32SAPC   C23 4273   6.355   1.370   6.904  0.6930 -0.5859  0.4442
   32SAPC   H3R 4274   6.463   1.353   6.926  0.4921 -1.6101  0.6809
   32SAPC   H3S 4275   6.313   1.267   6.903  1.0415 -0.7360 -0.9002
   32SAPC   C24 4276   6.275   1.455   7.006 -0.0853  0.8493 -0.4655
   32SAPC   H4R 4277   6.170   1.467   6.971 -0.7684 -2.1876  0.2414
   32SAPC   H4S 4278   6.326   1.553   6.997 -1.4202  1.6795  0.5887
   32SAPC   C25 4279   6.254   1.403   7.145 -0.8308 -0.2439  0.1775
   32SAPC   H5R 4280   6.234   1.295   7.143  2.1197 -0.8966  0.5960
   32SAPC   C26 4281   6.269   1.480   7.255  1.2515 -0.6329 -0.4873
   32SAPC   H6R 4282   6.246   1.428   7.349 -1.0049 -0.6228 -0.9797
   32SAPC   C27 4283   6.298   1.627   7.274 -0.3024  0.4909 -0.0407
   32SAPC   H7R 4284   6.379   1.653   7.203 -1.3902  0.5239 -1.3025
   32SAPC   H7S 4285   6.350   1.641   7.371  2.2356 -0.7500 -1.1373
   32SAPC   C28 4286   6.189   1.722   7.240  0.4554 -0.3688  0.0058
   32SAPC   H8R 4287   6.128   1.693   7.153  1.0276  0.6091 -0.7392
   32SAPC   C29 4288   6.155   1.836   7.313 -0.3365  1.1764 -0.1981
   32SAPC   H9R 4289   6.063   1.892   7.292  0.5623  1.2318 -5.1949
   32SAPC  C210 4290   6.236   1.881   7.431 -0.3122  0.3809  0.0854
   32SAPC  H10R 4291   6.319   1.947   7.399 -1.1461  0.3735 -2.2877
   32SAPC  H10S 4292   6.284   1.795   7.482 -1.5688  1.1265  2.6608
   32SAPC  C211 4293   6.153   1.951   7.546 -0.2276  0.1705 -0.3055
   32SAPC  H11R 4294   6.134   2.059   7.539 -0.5975  0.3744  2.6750
   32SAPC  C212 4295   6.118   1.892   7.667 -0.5006  0.1493  0.4308
   32SAPC  H12R 4296   6.065   1.960   7.736  1.4414  1.5129  0.6352
   32SAPC  C213 4297   6.145   1.751   7.706  0.8971 -0.0909  0.1753
   32SAPC  H13R 4298   6.099   1.753   7.807  0.7049 -0.6170  0.1000
   32SAPC  H13S 4299   6.254   1.739   7.719  0.9233  1.1397  1.3323
   32SAPC  C214 4300   6.069   1.655   7.612  0.0179 -0.3260 -0.7690
   32SAPC  H14R 4301   6.132   1.607   7.535  1.0094 -0.0665 -0.1498
   32SAPC  C215 4302   5.942   1.625   7.616  0.3218  0.6556  0.0228
   32SAPC  H15R 4303   5.909   1.542   7.552 -0.6982 -0.5254  1.9615
   32SAPC  C216 4304   5.848   1.698   7.707 -0.3539  0.1535  0.2704
   32SAPC  H16R 4305   5.740   1.687   7.681 -0.3088  0.7571 -0.1945
   32SAPC  H16S 4306   5.873   1.806   7.717  0.2885  0.1838 -1.4011
   32SAPC  C217 4307   5.850   1.646   7.852 -0.5188  0.9598  0.1451
   32SAPC  H17R 4308   5.954   1.630   7.890 -0.2478  0.0239 -0.9305
   32SAPC  H17S 4309   5.820   1.539   7.854 -0.8503  0.9876 -1.5997
   32SAPC  C218 4310   5.775   1.735   7.951  0.4689 -0.3345  0.4999
   32SAPC  H18R 4311   5.677   1.768   7.910 -0.0949  0.2214  2.2122
   32SAPC  H18S 4312   5.842   1.823   7.966  0.8235 -0.1084 -1.9460
   32SAPC  C219 4313   5.759   1.691   8.095 -0.2141 -0.4531 -0.3873
   32SAPC  H19R 4314   5.729   1.780   8.154  1.6180  1.4950 -2.2476
   32SAPC  H19S 4315   5.858   1.652   8.126 -0.1478 -3.3654 -3.6555
   32SAPC  C220 4316   5.655   1.577   8.129  0.2871 -0.2912 -0.7933
   32SAPC  H20R 4317   5.570   1.599   8.061  0.3131 -0.7441 -0.9751
   32SAPC  H20S 4318   5.618   1.567   8.233 -1.3789 -1.6315 -1.4721
   32SAPC  H20T 4319   5.699   1.478   8.106  2.4808  0.1653  1.0367
   32SAPC   C33 4320   6.498   0.849   6.897  0.5805 -0.3096  0.4801
   32SAPC   H3X 4321   6.543   0.759   6.849  0.4043  0.3629 -0.9963
   32SAPC   H3Y 4322   6.412   0.811   6.957 -2.3983  0.8278 -2.6637
   32SAPC   C34 4323   6.606   0.900   6.988 -0.6425 -0.0640 -0.4160
   32SAPC   H4X 4324   6.693   0.949   6.939 -1.2691  0.9538 -0.5506
   32SAPC   H4Y 4325   6.654   0.814   7.040  1.7596  0.0462 -2.2828
   32SAPC   C35 4326   6.548   0.998   7.095 -0.3662  0.1400  0.2977
   32SAPC   H5X 4327   6.457   0.953   7.138 -0.1629 -1.0999 -0.5222
   32SAPC   H5Y 4328   6.524   1.094   7.044 -1.7430 -0.2050  0.2618
   32SAPC   C36 4329   6.642   1.030   7.214 -0.0594  0.3112 -0.2881
   32SAPC   H6X 4330   6.603   1.118   7.270  0.8162  1.2469 -1.0895
   32SAPC   H6Y 4331   6.739   1.051   7.164  0.1939 -1.8688 -0.7854
   32SAPC   C37 4332   6.666   0.907   7.299  0.0196  0.0560 -0.6170
   32SAPC   H7X 4333   6.720   0.831   7.239  0.5404 -0.2523  0.2277
   32SAPC   H7Y 4334   6.572   0.853   7.323  0.7597 -2.1825 -2.4601
   32SAPC   C38 4335   6.739   0.928   7.432 -0.0724  0.4325 -0.7464
   32SAPC   H8X 4336   6.849   0.942   7.427  0.0059  0.4557  0.7456
   32SAPC   H8Y 4337   6.724   0.833   7.487  1.9551  0.8641  0.6484
   32SAPC   C39 4338   6.672   1.033   7.521 -0.2205 -0.3912 -0.5642
   32SAPC   H9X 4339   6.562   1.037   7.500 -0.4605 -0.5503  0.5966
   32SAPC   H9Y 4340   6.701   1.136   7.491 -1.2654 -0.4310 -1.7817
   32SAPC  C310 4341   6.701   1.005   7.673  0.2716 -0.3489  0.2020
   32SAPC  H10X 4342   6.663   0.907   7.707 -1.6368  1.1373  2.6522
   32SAPC  H10Y 4343   6.642   1.074   7.736 -0.2938 -0.3739 -0.2939
   32SAPC  C311 4344   6.851   0.997   7.716 -0.1884 -0.2235 -0.4562
   32SAPC  H11X 4345   6.907   1.079   7.666 -1.9164  1.6542  0.5158
   32SAPC  H11Y 4346   6.902   0.902   7.691  0.7444 -0.2884  1.5151
   32SAPC  C312 4347   6.859   1.006   7.867 -0.4280 -0.5206  0.3004
   32SAPC  H12X 4348   6.813   0.915   7.911  0.0491 -0.9098  0.0116
   32SAPC  H12Y 4349   6.797   1.093   7.895  1.3296  1.3422 -1.2284
   32SAPC  C313 4350   7.004   1.013   7.927  0.5329  0.0468  0.5346
   32SAPC  H13X 4351   7.058   1.093   7.872  1.4091 -0.0662  1.2071
   32SAPC  H13Y 4352   7.051   0.913   7.914  1.0941  0.3513  0.1663
   32SAPC  C314 4353   7.012   1.049   8.078  0.4528 -0.2248 -0.0892
   32SAPC  H14X 4354   6.941   1.133   8.089  0.4006 -0.2891  0.0721
   32SAPC  H14Y 4355   7.118   1.077   8.097  1.0898 -1.4132 -1.6701
   32SAPC  C315 4356   6.985   0.930   8.169  0.3066 -0.2066 -0.6339
   32SAPC  H15X 4357   7.053   0.850   8.135 -1.0215 -2.0109  0.7687
   32SAPC  H15Y 4358   6.881   0.894   8.156  0.0677 -0.3502  1.3817
   32SAPC  C316 4359   7.029   0.964   8.309 -0.2281 -0.8305  0.6595
   32SAPC  H16X 4360   6.956   1.040   8.343  0.1888 -0.3368  0.4540
   32SAPC  H16Y 4361   7.124   1.022   8.302 -0.2194 -0.6360  2.0932
   32SAPC  C317 4362   7.027   0.849   8.404 -0.2976 -0.2435  0.8288
   32SAPC  H17X 4363   7.092   0.771   8.358 -0.8632 -1.9697  2.7661
   32SAPC  H17Y 4364   6.923   0.810   8.399 -0.5977  0.6699 -3.0671
   32SAPC  C318 4365   7.085   0.888   8.539  0.2827 -0.1908  0.1407
   32SAPC  H18X 4366   7.070   0.799   8.604  0.0311 -0.6826 -0.5658
   32SAPC  H18Y 4367   7.024   0.971   8.581 -1.1226 -1.4116  0.6159
   32SAPC  H18Z 4368   7.192   0.908   8.520  0.2552 -0.3855 -0.2350
   33POPC     N 4369   4.710   0.157  10.773 -0.3303 -0.3798 -0.4803
   33POPC   C12 4370   4.617   0.226  10.683 -0.4014  0.1529 -0.3169
   33POPC  H12A 4371   4.660   0.325  10.678 -0.1488  0.0647  0.0663
   33POPC  H12B 4372   4.523   0.247  10.733 -0.0842 -1.6565  1.1455
   33POPC   C13 4373   4.653   0.022  10.820 -0.9301 -0.5506 -0.1713
   33POPC  H13A 4374   4.731  -0.050  10.840  0.2372  0.0622 -2.2349
   33POPC  H13B 4375   4.589   0.040  10.905  2.4912  0.8324  2.3427
   33POPC  H13C 4376   4.589  -0.016  10.742 -1.2700  2.3661 -1.4652
   33POPC   C14 4377   4.841   0.138  10.698  0.0857  0.1398  0.0320
   33POPC  H14A 4378   4.920   0.097  10.759  1.9648  2.3589 -0.8100
   33POPC  H14B 4379   4.821   0.062  10.623 -1.1459 -1.0142  1.4494
   33POPC  H14C 4380   4.881   0.222  10.645  2.2639 -2.1268 -2.2158
   33POPC   C15 4381   4.744   0.243  10.890  0.3320 -0.1112 -0.3338
   33POPC  H15A 4382   4.786   0.331  10.844 -2.4520  0.7492 -1.4208
   33POPC  H15B 4383   4.809   0.194  10.961 -1.5519 -1.4836  0.5294
   33POPC  H15C 4384   4.658   0.278  10.944  1.0984 -1.1973  1.7031
   33POPC   C11 4385   4.599   0.175  10.536 -0.7530  1.4100 -0.0665
   33POPC  H11A 4386   4.693   0.154  10.480  0.2138 -0.3760  2.0423
   33POPC  H11B 4387   4.542   0.249  10.477 -1.0351  2.2459  1.2083
   33POPC     P 4388   4.382   0.045  10.574  0.1493 -0.6391  0.5132
   33POPC   O13 4389   4.357   0.091  10.714  0.3807  0.1238 -0.7353
   33POPC   O14 4390   4.328  -0.086  10.542 -1.1845 -0.0187  0.1708
   33POPC   O12 4391   4.535   0.052  10.529 -0.0124  0.3053 -0.4530
   33POPC   O11 4392   4.319   0.155  10.463 -0.3635 -0.3838  0.1472
   33POPC    C1 4393   4.182   0.126  10.423 -0.1105 -0.5204 -0.0673
   33POPC    HA 4394   4.118   0.067  10.491 -0.2152 -2.1430 -1.5292
   33POPC    HB 4395   4.134   0.226  10.421  1.2259  0.1362 -0.7328
   33POPC    C2 4396   4.163   0.057  10.285 -0.3123 -0.3852  0.3959
   33POPC    HS 4397   4.215  -0.041  10.291 -1.4483 -1.0203  0.2345
   33POPC   O21 4398   4.218   0.144  10.187  0.0214  0.3168  0.5745
   33POPC   C21 4399   4.277   0.082  10.080  0.1289 -0.4314  0.0506
   33POPC   O22 4400   4.296  -0.037  10.066 -0.4732  0.5017  0.0929
   33POPC   C22 4401   4.312   0.179   9.968 -0.2983 -0.3917 -0.2317
   33POPC   H2R 4402   4.381   0.251  10.018 -1.6709  0.0863  1.0295
   33POPC   H2S 4403   4.226   0.247   9.949  0.1578  0.9182  2.0726
   33POPC    C3 4404   4.015   0.015  10.250 -0.2229 -0.6789 -0.5581
   33POPC    HX 4405   3.956   0.105  10.220  0.2202 -1.2088 -3.2943
   33POPC    HY 4406   3.977  -0.027  10.345 -0.8658 -0.8143 -0.8703
   33POPC   O31 4407   3.996  -0.084  10.146  0.7921 -0.2983  0.1571
   33POPC   C31 4408   3.889  -0.161  10.157  0.2330 -0.2222  0.1402
   33POPC   O32 4409   3.811  -0.166  10.248 -0.5495  0.1846  0.2585
   33POPC   C32 4410   3.879  -0.247  10.027  0.1075 -0.5642  0.0375
   33POPC   H2X 4411   3.949  -0.329  10.054  0.0376 -0.0726  1.8281
   33POPC   H2Y 4412   3.929  -0.194   9.943 -0.1312 -0.2306  0.1083
   33POPC   C23 4413   4.374   0.119   9.844  0.2539 -0.7977  0.0517
   33POPC   H3R 4414   4.299   0.048   9.801 -0.3500 -1.4207  2.0391
   33POPC   H3S 4415   4.464   0.062   9.877  1.0440 -0.0827 -0.8149
   33POPC   C24 4416   4.406   0.225   9.733  0.3289  0.0036  0.0677
   33POPC   H4R 4417   4.485   0.290   9.776 -0.8110  1.2934  0.2613
   33POPC   H4S 4418   4.313   0.278   9.704  0.2235 -1.5602 -2.8152
   33POPC   C25 4419   4.461   0.174   9.592 -0.0791 -0.2284 -0.6887
   33POPC   H5R 4420   4.562   0.133   9.613 -0.1581  0.1055  0.4114
   33POPC   H5S 4421   4.476   0.261   9.524 -0.0423  0.8604  0.6727
   33POPC   C26 4422   4.386   0.072   9.509  0.4769  0.1574  0.0560
   33POPC   H6R 4423   4.278   0.098   9.515  1.1231  3.0895  0.3344
   33POPC   H6S 4424   4.408  -0.032   9.541 -1.6428  0.0396  1.3781
   33POPC   C27 4425   4.425   0.094   9.364 -0.1416  0.3260  1.0989
   33POPC   H7R 4426   4.536   0.089   9.368 -0.0187  2.4046  1.3830
   33POPC   H7S 4427   4.394   0.189   9.316 -4.2497 -1.0797  0.5776
   33POPC   C28 4428   4.367  -0.018   9.277 -0.2500 -1.3325 -0.1580
   33POPC   H8R 4429   4.257  -0.000   9.275 -0.2793 -1.5150 -0.1855
   33POPC   H8S 4430   4.394  -0.116   9.321  1.8499 -0.4918  0.5410
   33POPC   C29 4431   4.426  -0.014   9.139 -0.0827 -1.0372  0.7979
   33POPC   H91 4432   4.535  -0.005   9.128 -0.3685 -0.9141 -4.2433
   33POPC  C210 4433   4.368  -0.032   9.023 -0.2134 -0.2766 -0.1154
   33POPC  H101 4434   4.427  -0.032   8.931 -0.7385 -3.5103 -0.5746
   33POPC  C211 4435   4.216  -0.067   8.991 -0.5469  0.2870 -0.1214
   33POPC  H11R 4436   4.166   0.028   8.962 -1.1053  0.9329  2.6385
   33POPC  H11S 4437   4.167  -0.113   9.080  0.8754 -1.2122 -0.0678
   33POPC  C212 4438   4.208  -0.168   8.876 -0.0001  0.4214 -0.1452
   33POPC  H12R 4439   4.100  -0.177   8.855 -0.3931  0.6372  1.6707
   33POPC  H12S 4440   4.257  -0.266   8.892 -1.0678 -0.3610 -1.4696
   33POPC  C213 4441   4.265  -0.110   8.744  0.4374 -0.3952 -0.2249
   33POPC  H13R 4442   4.376  -0.110   8.752  0.3249  0.6431  2.9505
   33POPC  H13S 4443   4.238  -0.002   8.737  0.0689 -0.2585  2.3506
   33POPC  C214 4444   4.221  -0.187   8.615 -0.4024 -0.9002 -0.1550
   33POPC  H14R 4445   4.116  -0.154   8.601 -0.8487 -1.4981  1.5715
   33POPC  H14S 4446   4.226  -0.296   8.637 -0.0158 -0.2191  3.9150
   33POPC  C215 4447   4.292  -0.146   8.489  0.1103 -0.5634  0.3181
   33POPC  H15R 4448   4.402  -0.163   8.498 -0.1929 -2.6077  0.6594
   33POPC  H15S 4449   4.285  -0.036   8.471  2.8227 -0.5574 -1.3545
   33POPC  C216 4450   4.237  -0.229   8.374  0.6069  0.7282  0.2000
   33POPC  H16R 4451   4.129  -0.214   8.351  0.2038 -2.8395 -0.9803
   33POPC  H16S 4452   4.241  -0.335   8.408  0.3821  0.5412 -0.3493
   33POPC  C217 4453   4.311  -0.207   8.246 -0.1319 -0.4809 -0.7533
   33POPC  H17R 4454   4.269  -0.273   8.167 -2.1008  0.8338 -0.8685
   33POPC  H17S 4455   4.419  -0.227   8.261 -0.2222 -0.2292  0.3331
   33POPC  C218 4456   4.295  -0.056   8.203  0.3143 -0.2045 -0.0752
   33POPC  H18R 4457   4.355   0.011   8.267  0.8600 -0.9254  0.1842
   33POPC  H18S 4458   4.187  -0.029   8.211  0.4032  0.2272 -0.3586
   33POPC  H18T 4459   4.319  -0.048   8.095 -1.0227  2.4436 -0.2663
   33POPC   C33 4460   3.733  -0.297  10.000 -0.2469 -0.3380 -0.6370
   33POPC   H3X 4461   3.665  -0.212  10.019  1.7332  0.8789  1.4361
   33POPC   H3Y 4462   3.700  -0.368  10.079  1.0983 -0.3541 -0.0655
   33POPC   C34 4463   3.704  -0.352   9.859  0.2325  0.0201 -0.3569
   33POPC   H4X 4464   3.596  -0.375   9.844  0.3610 -0.4520 -0.5760
   33POPC   H4Y 4465   3.765  -0.443   9.837  0.3470 -0.3239  1.2454
   33POPC   C35 4466   3.726  -0.245   9.743  0.5220  0.1107 -0.6508
   33POPC   H5X 4467   3.836  -0.240   9.737  1.0442 -3.0814  2.9348
   33POPC   H5Y 4468   3.678  -0.152   9.782 -0.4331  0.2325 -2.0303
   33POPC   C36 4469   3.664  -0.294   9.612 -0.2928  0.0172  0.2633
   33POPC   H6X 4470   3.556  -0.319   9.619 -0.3206 -0.2406 -0.9157
   33POPC   H6Y 4471   3.720  -0.389   9.599 -1.5418 -0.5161 -1.5241
   33POPC   C37 4472   3.693  -0.196   9.493 -0.8861  0.4555 -0.3379
   33POPC   H7X 4473   3.801  -0.199   9.465 -0.6080 -0.1987  0.7549
   33POPC   H7Y 4474   3.672  -0.090   9.520 -0.9792 -0.0566  1.7547
   33POPC   C38 4475   3.620  -0.252   9.370  0.6051  0.7880 -0.4445
   33POPC   H8X 4476   3.513  -0.238   9.394  0.9263  1.4538  0.7097
   33POPC   H8Y 4477   3.636  -0.362   9.375  2.7828  1.0885  0.3130
   33POPC   C39 4478   3.671  -0.215   9.232  0.4066 -0.7210  0.0825
   33POPC   H9X 4479   3.780  -0.233   9.226  0.4824 -0.5640  0.9243
   33POPC   H9Y 4480   3.657  -0.106   9.219 -0.9873 -1.0036 -1.0785
   33POPC  C310 4481   3.593  -0.288   9.124  0.4940 -0.8227  0.4961
   33POPC  H10X 4482   3.489  -0.248   9.124  0.9557  0.4189  1.5211
   33POPC  H10Y 4483   3.582  -0.397   9.141 -3.8643 -0.7739 -0.7073
   33POPC  C311 4484   3.641  -0.265   8.981  0.6965 -0.6233 -0.2672
   33POPC  H11X 4485   3.743  -0.311   8.984  0.4340 -1.2140 -0.0977
   33POPC  H11Y 4486   3.653  -0.157   8.960 -1.2370 -0.2821  0.2220
   33POPC  C312 4487   3.537  -0.319   8.881 -0.5227 -0.1835  0.1585
   33POPC  H12X 4488   3.584  -0.284   8.787  1.1988  2.3047  1.8395
   33POPC  H12Y 4489   3.438  -0.272   8.897  0.4953  1.5552  1.6520
   33POPC  C313 4490   3.525  -0.474   8.894 -0.0825 -0.3095 -0.6779
   33POPC  H13X 4491   3.490  -0.489   8.998  2.1355 -1.2806  0.0063
   33POPC  H13Y 4492   3.623  -0.527   8.886  0.8636  1.4414 -1.1737
   33POPC  C314 4493   3.441  -0.539   8.783 -0.1441 -1.1441 -0.0353
   33POPC  H14X 4494   3.465  -0.485   8.689  1.9816  0.0030  1.0981
   33POPC  H14Y 4495   3.332  -0.520   8.796 -0.0402  0.7014 -1.4170
   33POPC  C315 4496   3.454  -0.684   8.791 -0.0157  0.1606  0.2987
   33POPC  H15X 4497   3.431  -0.715   8.895 -3.9623 -0.5566 -0.6098
   33POPC  H15Y 4498   3.560  -0.709   8.771 -0.2675  0.3466 -1.4483
   33POPC  C316 4499   3.362  -0.768   8.700  0.5166 -0.5849 -0.2714
   33POPC  H16X 4500   3.264  -0.774   8.752  0.0005  1.4335 -0.9175
   33POPC  H16Y 4501   3.393  -0.871   8.672 -1.2246 -0.6105 -2.3996
   33POPC  H16Z 4502   3.349  -0.717   8.602  0.5480 -0.0304  0.0116
   34POPC     N 4503   2.619   6.145  11.142  0.4522  0.5898 -0.5431
   34POPC   C12 4504   2.712   6.094  11.032  0.6194 -0.2258  0.6969
   34POPC  H12A 4505   2.713   5.987  11.043 -1.2999 -0.1113  2.7315
   34POPC  H12B 4506   2.814   6.117  11.057  0.6953  0.3179 -0.0642
   34POPC   C13 4507   2.644   6.081  11.272 -0.3454 -0.0320  0.7414
   34POPC  H13A 4508   2.583   6.131  11.347  0.7242  1.6652  0.5288
   34POPC  H13B 4509   2.620   5.976  11.267  1.8016 -0.6958  2.7375
   34POPC  H13C 4510   2.748   6.075  11.301 -0.2571 -1.6272  0.1870
   34POPC   C14 4511   2.638   6.291  11.152 -0.3039  0.1272 -0.5268
   34POPC  H14A 4512   2.561   6.328  11.219 -1.0642 -0.7665 -0.8785
   34POPC  H14B 4513   2.733   6.311  11.199  0.9706 -0.9894 -2.4704
   34POPC  H14C 4514   2.649   6.347  11.060 -0.0471  1.6086  0.3728
   34POPC   C15 4515   2.472   6.126  11.103  0.0921  0.1128  0.2762
   34POPC  H15A 4516   2.438   6.025  11.088  0.2023 -0.1948  1.9349
   34POPC  H15B 4517   2.452   6.173  11.008 -0.7427 -0.1413  0.3218
   34POPC  H15C 4518   2.414   6.182  11.175  0.4630  0.5729  0.2251
   34POPC   C11 4519   2.690   6.146  10.885 -0.5225  0.0915 -0.1195
   34POPC  H11A 4520   2.587   6.116  10.858 -1.0829  1.6133  0.2435
   34POPC  H11B 4521   2.750   6.076  10.822 -0.2143 -0.8286  1.1561
   34POPC     P 4522   2.853   6.344  10.827  0.0077  0.3870 -0.4111
   34POPC   O13 4523   2.947   6.283  10.924  0.7299 -0.1035 -0.1817
   34POPC   O14 4524   2.849   6.488  10.836 -0.4317 -0.5515 -0.1444
   34POPC   O12 4525   2.706   6.290  10.873 -0.5163  0.5629 -0.2717
   34POPC   O11 4526   2.880   6.292  10.684  0.1432  0.2236 -0.0923
   34POPC    C1 4527   2.804   6.324  10.566  0.4026 -0.0437  0.1109
   34POPC    HA 4528   2.706   6.372  10.587 -0.9105 -2.7046  0.5740
   34POPC    HB 4529   2.791   6.236  10.500  0.0056 -1.7768  2.3633
   34POPC    C2 4530   2.867   6.427  10.466  0.3589  0.6445 -0.2810
   34POPC    HS 4531   2.846   6.529  10.504 -1.1591 -0.9274  3.6811
   34POPC   O21 4532   2.816   6.394  10.335 -0.2794 -0.0284 -0.2284
   34POPC   C21 4533   2.838   6.476  10.229  0.7243  0.7794  0.1910
   34POPC   O22 4534   2.880   6.587  10.240 -0.9754 -0.2595  0.1065
   34POPC   C22 4535   2.772   6.411  10.109 -0.9562  0.1073 -0.3771
   34POPC   H2R 4536   2.668   6.447  10.128 -0.3155  1.7392  0.2423
   34POPC   H2S 4537   2.786   6.302  10.123  0.1971  0.4031  0.9975
   34POPC    C3 4538   3.021   6.403  10.471 -0.1134  0.1076  0.3397
   34POPC    HX 4539   3.021   6.292  10.481  0.6782 -0.1141 -1.5641
   34POPC    HY 4540   3.070   6.440  10.563  0.4988 -0.1910  0.1416
   34POPC   O31 4541   3.099   6.417  10.349 -0.6084  0.0039  1.0295
   34POPC   C31 4542   3.171   6.527  10.344 -0.3599  0.1643  0.3625
   34POPC   O32 4543   3.181   6.615  10.426 -0.0439 -0.4893 -0.1130
   34POPC   C32 4544   3.235   6.533  10.205  0.2757  0.3995  0.4026
   34POPC   H2X 4545   3.311   6.612  10.223 -0.1089  0.4439  1.9458
   34POPC   H2Y 4546   3.154   6.562  10.135  0.3559 -1.1852 -0.3949
   34POPC   C23 4547   2.818   6.457   9.969 -1.3830 -0.2102 -0.2449
   34POPC   H3R 4548   2.918   6.421   9.937 -1.3882  0.6746 -1.3052
   34POPC   H3S 4549   2.830   6.567   9.969  0.6321 -0.3882  0.3681
   34POPC   C24 4550   2.723   6.410   9.859  1.0051 -0.1546 -0.4462
   34POPC   H4R 4551   2.623   6.456   9.877  1.1336  0.9610 -2.3069
   34POPC   H4S 4552   2.717   6.301   9.839  0.6767 -0.0462 -0.9593
   34POPC   C25 4553   2.774   6.461   9.727 -0.6320 -0.3463 -0.3083
   34POPC   H5R 4554   2.883   6.478   9.735 -0.8456  0.1704  3.2309
   34POPC   H5S 4555   2.727   6.561   9.716  0.8289  0.3947 -0.0881
   34POPC   C26 4556   2.719   6.392   9.601 -0.0685  0.3988  0.5845
   34POPC   H6R 4557   2.613   6.368   9.625 -0.0686 -0.0386  0.1533
   34POPC   H6S 4558   2.783   6.303   9.582  2.3372  2.0260  0.6981
   34POPC   C27 4559   2.734   6.485   9.478  0.7463 -0.1122  0.2318
   34POPC   H7R 4560   2.840   6.501   9.450  1.7423 -3.1022  1.8488
   34POPC   H7S 4561   2.677   6.578   9.499 -0.0696 -0.4396 -0.4330
   34POPC   C28 4562   2.670   6.438   9.340 -0.4295  0.6917 -0.5414
   34POPC   H8R 4563   2.676   6.525   9.271  1.2318  0.7922 -0.3028
   34POPC   H8S 4564   2.567   6.420   9.377  0.5210 -0.6755  1.5985
   34POPC   C29 4565   2.743   6.312   9.294 -0.4107 -0.4105  0.8185
   34POPC   H91 4566   2.827   6.274   9.354 -0.5591 -0.3185  1.0890
   34POPC  C210 4567   2.705   6.241   9.193  0.1262 -0.1238 -0.1001
   34POPC  H101 4568   2.766   6.157   9.157 -2.7969 -2.5277  0.1133
   34POPC  C211 4569   2.588   6.271   9.102 -0.2304 -0.2565  0.3293
   34POPC  H11R 4570   2.602   6.234   8.998 -0.7585  1.0824 -0.2525
   34POPC  H11S 4571   2.586   6.381   9.085 -0.5919 -0.1275  1.1501
   34POPC  C212 4572   2.447   6.215   9.133  0.0838 -0.0580  0.1667
   34POPC  H12R 4573   2.413   6.226   9.238 -0.2113 -1.4758  0.2350
   34POPC  H12S 4574   2.448   6.105   9.116 -0.6215  0.3040 -2.5753
   34POPC  C213 4575   2.346   6.272   9.038  0.2718  0.2032 -0.2255
   34POPC  H13R 4576   2.252   6.214   9.042  1.1275 -1.1773  1.6035
   34POPC  H13S 4577   2.389   6.271   8.936 -2.2809  1.9539 -1.4258
   34POPC  C214 4578   2.315   6.418   9.072 -1.0016  0.0410  0.1219
   34POPC  H14R 4579   2.411   6.474   9.061  0.8264 -2.8537  0.3021
   34POPC  H14S 4580   2.294   6.416   9.181 -0.1911  1.1240  0.3134
   34POPC  C215 4581   2.210   6.491   8.992 -0.1406  0.0918 -0.0198
   34POPC  H15R 4582   2.157   6.575   9.041  0.5659 -0.2530  1.3949
   34POPC  H15S 4583   2.126   6.418   8.987 -0.4948  0.5406 -0.7813
   34POPC  C216 4584   2.257   6.524   8.849  0.0942 -0.2008 -0.7906
   34POPC  H16R 4585   2.311   6.436   8.808 -0.9729 -0.9875 -0.5523
   34POPC  H16S 4586   2.327   6.608   8.871  1.4912 -1.7360  0.9309
   34POPC  C217 4587   2.142   6.571   8.758 -0.0537 -0.6142  0.1566
   34POPC  H17R 4588   2.183   6.595   8.658 -2.6929  0.3280 -0.7958
   34POPC  H17S 4589   2.092   6.661   8.800  1.4016  0.9450 -1.2871
   34POPC  C218 4590   2.044   6.461   8.714 -0.1377  0.3447 -0.0646
   34POPC  H18R 4591   1.967   6.505   8.647  0.9886  0.4776 -1.3132
   34POPC  H18S 4592   1.999   6.419   8.807  1.2072  0.1428  0.5201
   34POPC  H18T 4593   2.101   6.383   8.660 -0.2159 -0.3271  0.7869
   34POPC   C33 4594   3.308   6.408  10.149  0.2529  0.2216 -0.5402
   34POPC   H3X 4595   3.235   6.324  10.144  0.5225  0.0412 -1.4932
   34POPC   H3Y 4596   3.395   6.379  10.211 -0.7555  0.0298  0.8477
   34POPC   C34 4597   3.359   6.433  10.009  0.0426 -0.3120 -0.2557
   34POPC   H4X 4598   3.412   6.344   9.969  1.0334  0.8479 -1.6358
   34POPC   H4Y 4599   3.438   6.510  10.003  0.8073 -0.9947  0.8108
   34POPC   C35 4600   3.249   6.474   9.908  0.0060 -0.1346 -0.2560
   34POPC   H5X 4601   3.211   6.576   9.932 -0.2009 -0.0372 -0.9956
   34POPC   H5Y 4602   3.161   6.407   9.905 -1.7998  2.0933  0.0306
   34POPC   C36 4603   3.307   6.484   9.760  0.0889 -0.1951 -0.7048
   34POPC   H6X 4604   3.373   6.398   9.737 -0.2405 -0.5125 -0.4684
   34POPC   H6Y 4605   3.376   6.571   9.750  0.9902 -0.8902 -0.6275
   34POPC   C37 4606   3.199   6.504   9.649 -0.0839 -0.3181 -0.3109
   34POPC   H7X 4607   3.176   6.612   9.651  1.4419  0.0286  0.8084
   34POPC   H7Y 4608   3.111   6.445   9.681  0.2129  0.5830  2.4403
   34POPC   C38 4609   3.257   6.464   9.510  0.4157 -0.6753 -0.7571
   34POPC   H8X 4610   3.254   6.353   9.514 -0.7140 -0.6270  1.0800
   34POPC   H8Y 4611   3.357   6.506   9.486  1.2713 -2.7673 -1.0438
   34POPC   C39 4612   3.165   6.513   9.394 -0.2613  0.4897 -0.4760
   34POPC   H9X 4613   3.176   6.622   9.374  1.4737  0.7108  1.3024
   34POPC   H9Y 4614   3.067   6.495   9.443  1.3894 -0.6791  2.6921
   34POPC  C310 4615   3.169   6.415   9.272  0.7707 -0.6516 -0.1373
   34POPC  H10X 4616   3.140   6.312   9.302 -1.5367 -0.1142 -0.3101
   34POPC  H10Y 4617   3.276   6.410   9.242  0.6778 -0.5141 -0.4961
   34POPC  C311 4618   3.078   6.439   9.152  0.6167  0.1266  0.0252
   34POPC  H11X 4619   3.113   6.536   9.110 -0.7483  0.4871 -0.3067
   34POPC  H11Y 4620   2.973   6.450   9.186 -0.1787 -0.2549 -2.1801
   34POPC  C312 4621   3.097   6.327   9.038 -0.2457 -0.2694  0.5652
   34POPC  H12X 4622   3.055   6.228   9.068  1.5622 -0.9444  0.9823
   34POPC  H12Y 4623   3.206   6.308   9.036 -0.2131 -0.1056  0.7521
   34POPC  C313 4624   3.045   6.345   8.895  0.0475  0.1962  0.4124
   34POPC  H13X 4625   3.083   6.259   8.836 -2.5436 -0.5859 -0.2356
   34POPC  H13Y 4626   3.081   6.436   8.841 -0.5523 -1.4125 -2.9672
   34POPC  C314 4627   2.894   6.346   8.889  0.0922  0.0883 -0.2926
   34POPC  H14X 4628   2.869   6.430   8.958  0.5662  1.5937 -1.8966
   34POPC  H14Y 4629   2.857   6.250   8.930  0.4456  0.0602 -0.0344
   34POPC  C315 4630   2.817   6.356   8.756 -0.6191  0.2287  0.1243
   34POPC  H15X 4631   2.855   6.446   8.703 -3.8436  0.3063 -2.3661
   34POPC  H15Y 4632   2.710   6.380   8.774 -0.9343 -1.5338  0.8396
   34POPC  C316 4633   2.842   6.232   8.667  0.9386 -0.0798  0.2356
   34POPC  H16X 4634   2.823   6.247   8.558  0.0500  2.5582  0.6884
   34POPC  H16Y 4635   2.784   6.141   8.692  0.5128  0.1284  0.0198
   34POPC  H16Z 4636   2.952   6.217   8.668  1.0416  0.6304  1.0938
   35POPC     N 4637   1.185   3.547  11.367 -0.0200 -0.1736 -0.1484
   35POPC   C12 4638   1.049   3.582  11.325 -0.5486  0.3986 -0.1751
   35POPC  H12A 4639   1.050   3.622  11.224  0.4141  0.6022 -0.0964
   35POPC  H12B 4640   1.014   3.655  11.396 -1.4898 -2.1014  2.1039
   35POPC   C13 4641   1.274   3.664  11.344  0.2689  0.3155  0.0319
   35POPC  H13A 4642   1.299   3.676  11.240 -1.9995  0.9421 -0.4807
   35POPC  H13B 4643   1.221   3.749  11.383 -1.3878 -1.8351  2.8538
   35POPC  H13C 4644   1.370   3.648  11.392 -0.2397  0.3272  1.0868
   35POPC   C14 4645   1.188   3.507  11.510  1.4921  0.2420 -0.4720
   35POPC  H14A 4646   1.135   3.572  11.577  0.0428 -0.8710 -0.4917
   35POPC  H14B 4647   1.138   3.412  11.519  0.3871  0.7801 -0.7664
   35POPC  H14C 4648   1.292   3.496  11.539  0.4546 -0.7979  3.3580
   35POPC   C15 4649   1.241   3.437  11.283 -0.1888 -0.2700 -0.4181
   35POPC  H15A 4650   1.268   3.476  11.186  2.6753  3.2694  1.5406
   35POPC  H15B 4651   1.167   3.360  11.273 -0.1240 -0.5136  0.8146
   35POPC  H15C 4652   1.330   3.396  11.328  0.1893  0.9836  0.0312
   35POPC   C11 4653   0.931   3.481  11.326 -0.1881  0.9116  0.1322
   35POPC  H11A 4654   0.838   3.543  11.319  0.0674  1.1315 -2.2963
   35POPC  H11B 4655   0.922   3.416  11.415 -0.8505 -2.6997 -2.3748
   35POPC     P 4656   0.910   3.434  11.070 -0.0312  0.2671  0.2998
   35POPC   O13 4657   0.917   3.577  11.038  0.0680  0.4757 -0.2159
   35POPC   O14 4658   0.786   3.364  11.030 -0.2333  0.1783 -0.3876
   35POPC   O12 4659   0.932   3.398  11.217  0.6251  0.3272 -0.0938
   35POPC   O11 4660   1.036   3.353  11.007 -0.7738  0.0069 -0.5334
   35POPC    C1 4661   1.139   3.414  10.937  0.2058  0.3257 -0.5839
   35POPC    HA 4662   1.225   3.344  10.936 -0.9473 -1.2068  0.9938
   35POPC    HB 4663   1.167   3.509  10.985  0.1121  0.0378  0.0427
   35POPC    C2 4664   1.109   3.456  10.792 -0.9571  0.1969  0.2460
   35POPC    HS 4665   1.000   3.475  10.797 -0.9881  0.7847 -1.7325
   35POPC   O21 4666   1.138   3.345  10.700 -0.3592 -0.2478 -0.6689
   35POPC   C21 4667   1.053   3.241  10.712 -0.5414  0.2631 -0.1736
   35POPC   O22 4668   0.949   3.233  10.773  0.1036 -0.2052 -0.9032
   35POPC   C22 4669   1.097   3.130  10.612 -0.3711  0.9274 -0.1613
   35POPC   H2R 4670   1.201   3.103  10.642  0.6540  2.0080 -2.4112
   35POPC   H2S 4671   1.104   3.178  10.512 -1.6057 -0.7753 -1.1236
   35POPC    C3 4672   1.181   3.586  10.748  0.0589 -0.7691 -0.4586
   35POPC    HX 4673   1.291   3.573  10.749  0.3156  1.1373  0.0762
   35POPC    HY 4674   1.154   3.668  10.817  0.5712 -1.4754  0.6105
   35POPC   O31 4675   1.153   3.648  10.619  0.3753 -0.4459 -0.9267
   35POPC   C31 4676   1.207   3.592  10.510 -0.3145  0.5534  0.3216
   35POPC   O32 4677   1.308   3.516  10.515 -0.1066  0.4448  0.5044
   35POPC   C32 4678   1.147   3.651  10.388  0.4215 -0.2126 -0.2641
   35POPC   H2X 4679   1.170   3.759  10.396  0.4652 -0.3207  1.1782
   35POPC   H2Y 4680   1.038   3.627  10.382  0.5231 -0.9756  0.7329
   35POPC   C23 4681   1.014   2.995  10.615 -0.5677  0.1215 -0.3053
   35POPC   H3R 4682   0.904   3.013  10.617 -0.6911 -0.5480  1.5215
   35POPC   H3S 4683   1.043   2.946  10.711  0.2964  3.0931  1.0630
   35POPC   C24 4684   1.039   2.900  10.492  1.1539  0.6121 -0.1599
   35POPC   H4R 4685   1.009   2.965  10.407  0.3099 -0.0321 -0.3605
   35POPC   H4S 4686   0.965   2.819  10.506 -0.6830  2.2462 -0.0579
   35POPC   C25 4687   1.184   2.836  10.482  0.2207  0.0610  0.7661
   35POPC   H5R 4688   1.215   2.794  10.580  0.4613 -1.2030  0.1634
   35POPC   H5S 4689   1.252   2.922  10.460 -0.2685  0.0051 -1.1517
   35POPC   C26 4690   1.197   2.733  10.368 -1.3728  0.9481  0.2347
   35POPC   H6R 4691   1.163   2.642  10.421 -1.6246  0.7432 -0.2775
   35POPC   H6S 4692   1.303   2.705  10.346 -1.0887  1.7589  0.5249
   35POPC   C27 4693   1.121   2.757  10.239 -0.5664  0.0738 -0.1284
   35POPC   H7R 4694   1.168   2.841  10.185  1.4333  0.6975  2.3725
   35POPC   H7S 4695   1.011   2.775  10.248 -0.4009  0.3740  2.0170
   35POPC   C28 4696   1.131   2.639  10.145  0.3604  0.0133  0.0172
   35POPC   H8R 4697   1.236   2.630  10.111  1.4463 -1.3028  3.3174
   35POPC   H8S 4698   1.077   2.656  10.050  0.7754 -0.1225 -0.2441
   35POPC   C29 4699   1.079   2.512  10.217  0.8544  0.0294  0.5438
   35POPC   H91 4700   1.146   2.466  10.292  0.7037 -2.2493 -0.6394
   35POPC  C210 4701   0.967   2.444  10.197 -0.6140  0.0359  0.1792
   35POPC  H101 4702   0.945   2.351  10.252 -1.4091 -0.7628 -1.4129
   35POPC  C211 4703   0.864   2.465  10.097 -0.2596 -0.1880 -0.5220
   35POPC  H11R 4704   0.872   2.569  10.057 -2.2109 -0.2787 -1.2305
   35POPC  H11S 4705   0.761   2.445  10.135 -0.8452  1.6242 -1.0192
   35POPC  C212 4706   0.872   2.363   9.987 -0.3161 -0.3680 -0.3395
   35POPC  H12R 4707   0.835   2.266  10.027  2.0324 -0.6766  1.2750
   35POPC  H12S 4708   0.975   2.360   9.945 -0.1885  1.0890 -0.1658
   35POPC  C213 4709   0.791   2.390   9.861  0.4215 -0.1594  0.0997
   35POPC  H13R 4710   0.837   2.480   9.814  1.5582  0.7644  2.7651
   35POPC  H13S 4711   0.685   2.416   9.884  0.4885 -0.7701  1.1719
   35POPC  C214 4712   0.768   2.275   9.768  1.1430  0.0149 -0.3265
   35POPC  H14R 4713   0.704   2.192   9.805 -0.9312  1.4227 -0.5439
   35POPC  H14S 4714   0.863   2.232   9.729  1.6630 -0.5433  1.4790
   35POPC  C215 4715   0.697   2.335   9.644 -0.6616 -0.1966 -0.1430
   35POPC  H15R 4716   0.759   2.418   9.604  0.7260 -0.9228  0.4418
   35POPC  H15S 4717   0.603   2.382   9.681 -0.4883  0.5358 -0.6127
   35POPC  C216 4718   0.665   2.232   9.541 -0.0237  0.3449  0.2149
   35POPC  H16R 4719   0.579   2.165   9.564  0.3347  0.0246  0.6537
   35POPC  H16S 4720   0.750   2.169   9.505  0.6998  1.5631 -0.2783
   35POPC  C217 4721   0.620   2.304   9.410 -0.2169 -0.5646  0.0667
   35POPC  H17R 4722   0.686   2.393   9.399 -1.9830  1.0569  1.7715
   35POPC  H17S 4723   0.515   2.339   9.421 -0.2416 -0.4750 -0.4502
   35POPC  C218 4724   0.632   2.223   9.278  0.3696  0.6396 -0.0370
   35POPC  H18R 4725   0.589   2.122   9.294 -2.9748  1.6273 -1.7906
   35POPC  H18S 4726   0.739   2.201   9.257  0.0474 -1.8307  0.5842
   35POPC  H18T 4727   0.576   2.274   9.196  1.3358  0.5397 -0.7700
   35POPC   C33 4728   1.209   3.598  10.251  0.3708 -0.3575  0.1416
   35POPC   H3X 4729   1.222   3.488  10.252  0.9851 -0.2960 -0.2836
   35POPC   H3Y 4730   1.309   3.638  10.224  0.8027 -0.3586  1.6356
   35POPC   C34 4731   1.132   3.643  10.121 -0.6111  0.1605 -0.1799
   35POPC   H4X 4732   1.026   3.616  10.142 -1.0470  0.1976 -2.1737
   35POPC   H4Y 4733   1.166   3.583  10.035  2.1254  2.4331 -0.8198
   35POPC   C35 4734   1.156   3.791  10.073 -0.4413  0.4454  0.1011
   35POPC   H5X 4735   1.267   3.790  10.062 -0.4013 -2.4123 -0.0221
   35POPC   H5Y 4736   1.135   3.860  10.157  1.7686  0.8035  0.4306
   35POPC   C36 4737   1.102   3.838   9.941 -0.3140  0.6040 -0.0034
   35POPC   H6X 4738   1.143   3.934   9.903 -1.3753  0.7410 -0.8621
   35POPC   H6Y 4739   0.993   3.859   9.947 -0.7557 -1.0634 -1.3128
   35POPC   C37 4740   1.114   3.728   9.828  0.1569  1.1248 -0.7684
   35POPC   H7X 4741   1.073   3.634   9.870 -0.7955  2.3449  1.2025
   35POPC   H7Y 4742   1.221   3.710   9.807  0.9001  2.5793  1.3747
   35POPC   C38 4743   1.043   3.761   9.691  0.5141 -0.0190 -0.8953
   35POPC   H8X 4744   1.076   3.865   9.668  1.6810  0.0152  0.7502
   35POPC   H8Y 4745   0.934   3.777   9.698  0.8358  1.6205  1.4442
   35POPC   C39 4746   1.078   3.658   9.581 -0.7183 -0.3775  0.2161
   35POPC   H9X 4747   1.055   3.560   9.627  0.1053 -1.1791 -1.0143
   35POPC   H9Y 4748   1.187   3.675   9.577 -0.1778 -3.1989  0.6425
   35POPC  C310 4749   1.011   3.685   9.447  0.5864 -0.0715  0.3229
   35POPC  H10X 4750   1.045   3.787   9.421  1.2359 -0.1664  0.7816
   35POPC  H10Y 4751   0.901   3.668   9.437  0.0512  2.3543  1.4909
   35POPC  C311 4752   1.071   3.604   9.330  0.2300  0.1612 -0.7941
   35POPC  H11X 4753   1.045   3.496   9.335  0.5550  0.1330  0.8241
   35POPC  H11Y 4754   1.181   3.619   9.344  0.2863  1.8376 -2.5740
   35POPC  C312 4755   1.035   3.651   9.195  0.1654 -0.7328  0.5061
   35POPC  H12X 4756   1.079   3.752   9.180  0.8285 -1.3543 -2.4857
   35POPC  H12Y 4757   0.926   3.670   9.193  0.4207  0.9707  1.1507
   35POPC  C313 4758   1.067   3.559   9.074  0.0287  0.0851  0.1017
   35POPC  H13X 4759   0.992   3.579   8.994  0.7190 -0.0335 -0.5948
   35POPC  H13Y 4760   1.049   3.455   9.107 -1.4127  0.3717  0.2889
   35POPC  C314 4761   1.207   3.588   9.002 -0.2467  0.4683 -0.4032
   35POPC  H14X 4762   1.278   3.546   9.077 -1.5625 -1.1877 -0.0307
   35POPC  H14Y 4763   1.222   3.697   8.988  0.3646  0.4546  0.0673
   35POPC  C315 4764   1.222   3.515   8.872 -0.7526  0.4782 -0.4613
   35POPC  H15X 4765   1.136   3.535   8.805  1.4751  1.1068 -3.3227
   35POPC  H15Y 4766   1.236   3.407   8.893 -1.0390  0.4059 -0.6355
   35POPC  C316 4767   1.349   3.551   8.789 -0.3391  0.0278  0.1083
   35POPC  H16X 4768   1.348   3.656   8.752  0.7032 -0.1262 -0.3968
   35POPC  H16Y 4769   1.353   3.482   8.701  0.5666 -1.4013  1.2280
   35POPC  H16Z 4770   1.440   3.549   8.852 -1.1535  0.7242  1.3455
   36POPC     N 4771   1.699   2.026  11.262  0.1741 -0.4072 -0.7960
   36POPC   C12 4772   1.786   2.033  11.145 -0.5577 -0.1615  0.2816
   36POPC  H12A 4773   1.877   1.978  11.168  0.2515  1.4644  1.1157
   36POPC  H12B 4774   1.821   2.134  11.135 -2.9748  0.5913 -1.2987
   36POPC   C13 4775   1.615   1.902  11.272 -0.1895  0.3027 -0.2680
   36POPC  H13A 4776   1.535   1.914  11.343  0.7426 -0.2974  0.9116
   36POPC  H13B 4777   1.575   1.879  11.174 -0.2244 -0.8320  0.0020
   36POPC  H13C 4778   1.681   1.823  11.304  0.4172  0.0461 -2.0626
   36POPC   C14 4779   1.780   2.041  11.390 -0.2433 -0.1980 -0.4312
   36POPC  H14A 4780   1.711   2.045  11.473  0.8084 -0.5153  0.4849
   36POPC  H14B 4781   1.849   1.958  11.400  1.4240  1.1467 -0.2643
   36POPC  H14C 4782   1.833   2.135  11.383 -2.0656  0.9390  0.3927
   36POPC   C15 4783   1.607   2.142  11.265 -0.3426 -0.8707 -0.3126
   36POPC  H15A 4784   1.562   2.148  11.362  2.1764 -1.4967  0.9838
   36POPC  H15B 4785   1.518   2.139  11.204 -3.2153 -0.2773  3.4923
   36POPC  H15C 4786   1.654   2.237  11.244  1.7100 -1.2908  1.9181
   36POPC   C11 4787   1.720   1.978  11.015 -0.6081 -0.3711 -0.1510
   36POPC  H11A 4788   1.792   2.005  10.935 -2.2055  0.4887 -1.3650
   36POPC  H11B 4789   1.627   2.034  10.992 -1.4013 -1.6603 -0.2186
   36POPC     P 4790   1.793   1.732  10.989  0.3013 -0.1391  0.1185
   36POPC   O13 4791   1.777   1.622  11.084 -0.1254  0.1761 -0.2776
   36POPC   O14 4792   1.922   1.799  10.964  0.4981  0.1661 -0.9456
   36POPC   O12 4793   1.680   1.845  11.022 -0.1869  0.0815  0.0041
   36POPC   O11 4794   1.749   1.682  10.851 -0.7019  0.0756  0.1085
   36POPC    C1 4795   1.628   1.612  10.829  0.4315  0.1499  0.3624
   36POPC    HA 4796   1.548   1.679  10.792 -1.2988 -1.1298  1.6671
   36POPC    HB 4797   1.597   1.557  10.920 -1.7700  0.6780 -0.0214
   36POPC    C2 4798   1.646   1.500  10.717 -1.0145 -0.3006 -0.3897
   36POPC    HS 4799   1.706   1.419  10.764 -0.7506 -0.3378 -0.7881
   36POPC   O21 4800   1.722   1.560  10.609 -0.2341  0.4759  0.0567
   36POPC   C21 4801   1.781   1.468  10.527  0.4985  0.0387 -0.5629
   36POPC   O22 4802   1.805   1.352  10.561  0.0526 -0.1803 -0.3811
   36POPC   C22 4803   1.782   1.525  10.384  0.4450  0.3663 -0.1266
   36POPC   H2R 4804   1.852   1.610  10.394  0.3043  0.3531  1.1614
   36POPC   H2S 4805   1.681   1.560  10.354  0.4374 -1.6092 -2.7904
   36POPC    C3 4806   1.508   1.449  10.668  0.2969 -0.4153  0.8389
   36POPC    HX 4807   1.456   1.448  10.766  3.3574  0.6321  2.6078
   36POPC    HY 4808   1.520   1.342  10.642  0.9808 -0.8436  2.7707
   36POPC   O31 4809   1.453   1.531  10.564  0.0421 -0.3118  0.0100
   36POPC   C31 4810   1.404   1.475  10.451 -0.3872  0.3416  0.0031
   36POPC   O32 4811   1.413   1.357  10.421  0.3065  0.5226  0.1820
   36POPC   C32 4812   1.304   1.571  10.383 -0.5510  0.1188 -0.4722
   36POPC   H2X 4813   1.296   1.661  10.447  0.6001  1.0379 -1.5783
   36POPC   H2Y 4814   1.202   1.528  10.395 -0.6654  0.8396  1.5168
   36POPC   C23 4815   1.840   1.437  10.268  0.4183 -0.0873 -0.3358
   36POPC   H3R 4816   1.915   1.365  10.306 -1.1745 -0.8579  1.5030
   36POPC   H3S 4817   1.880   1.496  10.182 -0.1383 -0.6148 -0.9685
   36POPC   C24 4818   1.730   1.349  10.197  0.1529 -0.5853  0.8993
   36POPC   H4R 4819   1.660   1.409  10.134  1.1427 -0.7681 -0.4338
   36POPC   H4S 4820   1.674   1.296  10.276 -2.2588  0.7751  0.1956
   36POPC   C25 4821   1.800   1.255  10.091 -0.3752  0.8681  0.0766
   36POPC   H5R 4822   1.724   1.173  10.082  0.1579  0.3990 -0.1912
   36POPC   H5S 4823   1.897   1.217  10.130 -0.8028 -2.2228 -1.5260
   36POPC   C26 4824   1.825   1.324   9.956 -0.5413 -0.4785  0.5318
   36POPC   H6R 4825   1.867   1.248   9.887 -1.1368  0.0826 -0.4848
   36POPC   H6S 4826   1.897   1.407   9.972 -3.0261  2.3859 -1.7952
   36POPC   C27 4827   1.692   1.365   9.888  0.1117  0.1457  0.4743
   36POPC   H7R 4828   1.672   1.465   9.932  0.2443  0.9350 -1.2047
   36POPC   H7S 4829   1.611   1.295   9.920 -0.5053  0.0708 -1.1595
   36POPC   C28 4830   1.694   1.383   9.745  0.0910 -0.9460  0.0937
   36POPC   H8R 4831   1.771   1.460   9.721  0.1019 -1.1260 -0.4799
   36POPC   H8S 4832   1.603   1.435   9.706  1.1803 -0.2327 -1.6075
   36POPC   C29 4833   1.716   1.263   9.660 -0.1521 -0.6229  0.1685
   36POPC   H91 4834   1.714   1.167   9.713  0.8028 -0.6407  0.1933
   36POPC  C210 4835   1.752   1.259   9.536 -0.6642  0.1859  0.1225
   36POPC  H101 4836   1.777   1.158   9.501 -2.4232 -1.1483  2.4482
   36POPC  C211 4837   1.774   1.368   9.432 -0.0680 -0.0678  0.1106
   36POPC  H11R 4838   1.881   1.375   9.401 -0.5624  0.9454 -1.4753
   36POPC  H11S 4839   1.749   1.470   9.466 -1.2405  0.6616 -2.6656
   36POPC  C212 4840   1.677   1.353   9.311 -0.1908  0.6993 -0.5643
   36POPC  H12R 4841   1.673   1.452   9.261  0.3260 -0.4049 -2.9089
   36POPC  H12S 4842   1.578   1.324   9.354  0.3093  0.3810  0.4205
   36POPC  C213 4843   1.731   1.244   9.220 -0.4925 -0.8658  0.0207
   36POPC  H13R 4844   1.752   1.151   9.276  1.2238 -0.8999 -0.6391
   36POPC  H13S 4845   1.829   1.284   9.187  0.3252 -1.3690  1.7080
   36POPC  C214 4846   1.628   1.194   9.117  0.5158 -0.5893  0.8455
   36POPC  H14R 4847   1.541   1.154   9.173  0.6832 -1.6029  0.4148
   36POPC  H14S 4848   1.660   1.116   9.044 -0.6341  0.0409 -0.3769
   36POPC  C215 4849   1.580   1.316   9.033  0.0048  0.3483  0.1838
   36POPC  H15R 4850   1.659   1.389   9.006 -1.4684  2.2287  0.6973
   36POPC  H15S 4851   1.511   1.369   9.102  0.8880  3.4574 -1.1690
   36POPC  C216 4852   1.499   1.275   8.914  0.2167 -0.0841 -0.4546
   36POPC  H16R 4853   1.416   1.207   8.941 -0.8751  0.4843 -2.2150
   36POPC  H16S 4854   1.572   1.217   8.853 -0.0087  0.3104 -1.0955
   36POPC  C217 4855   1.457   1.387   8.815  0.3232 -0.1855 -0.1099
   36POPC  H17R 4856   1.540   1.456   8.789 -0.3776 -0.0417 -2.2457
   36POPC  H17S 4857   1.373   1.442   8.865 -0.3066  1.0439 -2.3489
   36POPC  C218 4858   1.412   1.333   8.685 -0.3186  0.2105  0.1634
   36POPC  H18R 4859   1.387   1.410   8.609  0.1108 -0.9364 -1.1715
   36POPC  H18S 4860   1.325   1.267   8.706 -0.0616  0.0994  0.8853
   36POPC  H18T 4861   1.490   1.262   8.651 -0.1994  0.7956 -0.8022
   36POPC   C33 4862   1.344   1.592  10.236 -0.6355 -0.0939 -1.0522
   36POPC   H3X 4863   1.454   1.605  10.229 -0.5334 -0.2651  0.0752
   36POPC   H3Y 4864   1.301   1.690  10.207  1.9224  1.9423  1.4671
   36POPC   C34 4865   1.314   1.480  10.136 -0.0167  0.2930 -0.7200
   36POPC   H4X 4866   1.214   1.439  10.160 -0.1939  1.9731  1.7769
   36POPC   H4Y 4867   1.379   1.390  10.148 -1.5302 -0.9709 -1.7074
   36POPC   C35 4868   1.322   1.525   9.995  0.2170 -0.2551  0.0007
   36POPC   H5X 4869   1.420   1.572   9.973 -0.4338  1.0034 -0.3128
   36POPC   H5Y 4870   1.256   1.611   9.970  0.0056 -0.2610  0.5248
   36POPC   C36 4871   1.304   1.420   9.890  0.2589 -0.3819 -0.4169
   36POPC   H6X 4872   1.206   1.372   9.908  0.8030 -0.5150  2.8862
   36POPC   H6Y 4873   1.383   1.342   9.903  1.1586  0.8551  2.1299
   36POPC   C37 4874   1.311   1.469   9.744 -1.1548 -0.3580 -0.0932
   36POPC   H7X 4875   1.407   1.525   9.742 -0.1742 -1.9627 -2.5806
   36POPC   H7Y 4876   1.228   1.539   9.720 -1.2942 -0.7758 -0.8549
   36POPC   C38 4877   1.298   1.345   9.652  0.1072  0.1896 -0.2293
   36POPC   H8X 4878   1.211   1.279   9.675  1.6341 -2.7959 -2.3968
   36POPC   H8Y 4879   1.392   1.288   9.660  0.1066  0.3039  0.6335
   36POPC   C39 4880   1.285   1.390   9.504  0.6230  0.5336 -0.2934
   36POPC   H9X 4881   1.375   1.447   9.472 -1.2803  2.3675 -2.8236
   36POPC   H9Y 4882   1.200   1.459   9.489  0.9688  0.6498 -1.9124
   36POPC  C310 4883   1.245   1.275   9.412  0.6583  0.6812 -0.4060
   36POPC  H10X 4884   1.158   1.223   9.459 -0.5384  2.2617 -0.7657
   36POPC  H10Y 4885   1.317   1.192   9.396  0.6209  0.7330 -0.8650
   36POPC  C311 4886   1.196   1.333   9.279 -0.1283 -0.4775  0.0426
   36POPC  H11X 4887   1.251   1.427   9.256 -1.0383 -0.0355 -0.3871
   36POPC  H11Y 4888   1.087   1.352   9.282 -0.3496 -1.6078 -0.2218
   36POPC  C312 4889   1.216   1.242   9.160  0.0840  0.3617  0.5025
   36POPC  H12X 4890   1.320   1.207   9.144  0.0788  1.1328 -1.6221
   36POPC  H12Y 4891   1.210   1.306   9.069  2.7704 -1.7110 -1.2825
   36POPC  C313 4892   1.116   1.130   9.142  0.1837  0.4892  0.4266
   36POPC  H13X 4893   1.018   1.167   9.176  0.0415 -1.8090  2.9321
   36POPC  H13Y 4894   1.128   1.061   9.229 -0.0614  1.8754  1.5819
   36POPC  C314 4895   1.118   1.061   9.003  0.0459  0.0963 -0.1947
   36POPC  H14X 4896   1.221   1.039   8.968 -0.1647 -0.2247 -0.6191
   36POPC  H14Y 4897   1.058   1.120   8.930 -0.7267  0.1103  0.4251
   36POPC  C315 4898   1.047   0.923   9.006 -0.0936  0.1992  0.2297
   36POPC  H15X 4899   0.945   0.946   9.044  0.0915  1.9854 -0.2355
   36POPC  H15Y 4900   1.095   0.846   9.069 -2.1754 -2.5348 -1.3259
   36POPC  C316 4901   1.021   0.861   8.874  0.0580  0.2151  0.6090
   36POPC  H16X 4902   0.971   0.763   8.890 -2.1578  1.1824  0.0694
   36POPC  H16Y 4903   1.115   0.855   8.816 -0.9431  1.8834 -1.3128
   36POPC  H16Z 4904   0.944   0.908   8.809  0.8086 -1.2900 -1.4850
   37POPC     N 4905   0.263   4.656   6.490 -0.3444 -0.0028 -0.0780
   37POPC   C12 4906   0.338   4.764   6.574 -0.2712 -0.4234  0.2359
   37POPC  H12A 4907   0.323   4.859   6.526 -3.6648 -1.9867 -2.1900
   37POPC  H12B 4908   0.445   4.749   6.567  0.0037  1.8619 -1.7158
   37POPC   C13 4909   0.322   4.526   6.534 -0.4835 -0.6811 -0.0285
   37POPC  H13A 4910   0.302   4.524   6.641 -1.7651  0.4993 -0.2200
   37POPC  H13B 4911   0.294   4.430   6.492 -2.1073  0.4172 -1.5356
   37POPC  H13C 4912   0.429   4.538   6.530 -0.3167 -2.3986 -2.0961
   37POPC   C14 4913   0.115   4.662   6.513 -0.1984  0.1156  0.6066
   37POPC  H14A 4914   0.094   4.652   6.619 -2.8432  3.1734  0.5253
   37POPC  H14B 4915   0.078   4.760   6.488 -0.2446 -0.2461 -0.8245
   37POPC  H14C 4916   0.067   4.583   6.457 -2.4359  2.0987 -0.4087
   37POPC   C15 4917   0.293   4.684   6.346 -0.3366  0.6608  0.1246
   37POPC  H15A 4918   0.396   4.669   6.320 -0.7988 -0.8956 -0.9310
   37POPC  H15B 4919   0.255   4.781   6.316  1.2782  0.3660 -3.3416
   37POPC  H15C 4920   0.237   4.617   6.282 -0.5033  0.3906  0.5533
   37POPC   C11 4921   0.309   4.774   6.723  0.0225 -0.2333 -0.7331
   37POPC  H11A 4922   0.203   4.797   6.747  0.0420  0.0529 -0.9149
   37POPC  H11B 4923   0.361   4.864   6.761 -1.0030  0.0217  0.0976
   37POPC     P 4924   0.500   4.617   6.823  0.1247  0.1974 -0.3739
   37POPC   O13 4925   0.594   4.695   6.738  0.1450 -0.6034 -0.7365
   37POPC   O14 4926   0.517   4.471   6.827 -0.0782  0.0282 -0.0803
   37POPC   O12 4927   0.350   4.652   6.786  0.0212  0.3982 -0.0868
   37POPC   O11 4928   0.502   4.671   6.971 -0.0931 -0.3565  0.0286
   37POPC    C1 4929   0.563   4.600   7.081 -0.1216  0.6916 -0.6032
   37POPC    HA 4930   0.596   4.674   7.157  0.8974  0.8419 -1.1740
   37POPC    HB 4931   0.653   4.547   7.043  0.0389  1.9338 -2.0453
   37POPC    C2 4932   0.463   4.495   7.156 -0.3141 -0.3654 -0.0996
   37POPC    HS 4933   0.436   4.421   7.077 -1.2341  0.0486 -0.1806
   37POPC   O21 4934   0.348   4.567   7.212 -0.1449  0.3751  0.4130
   37POPC   C21 4935   0.251   4.587   7.123  0.1766 -0.2309  1.1039
   37POPC   O22 4936   0.245   4.531   7.014  0.2162 -0.7488  0.9507
   37POPC   C22 4937   0.145   4.673   7.183  0.6785  1.1931 -0.0858
   37POPC   H2R 4938   0.102   4.744   7.110 -1.3905 -0.6521 -0.7605
   37POPC   H2S 4939   0.179   4.719   7.279  0.3010 -0.7181  1.0163
   37POPC    C3 4940   0.532   4.406   7.264 -0.4586  0.0767  0.2891
   37POPC    HX 4941   0.615   4.346   7.220 -1.9668 -1.0210 -1.1599
   37POPC    HY 4942   0.453   4.334   7.292  0.3404 -0.7079  0.6050
   37POPC   O31 4943   0.586   4.479   7.377 -0.7015  0.0107 -0.2798
   37POPC   C31 4944   0.515   4.458   7.485 -0.3039 -0.4703 -0.9539
   37POPC   O32 4945   0.410   4.398   7.493  0.5666  0.1048 -0.5845
   37POPC   C32 4946   0.586   4.518   7.607 -0.6676 -0.9694  1.0059
   37POPC   H2X 4947   0.662   4.590   7.573 -1.4057 -0.9512 -0.6774
   37POPC   H2Y 4948   0.648   4.437   7.650  0.6661 -0.4676  0.0723
   37POPC   C23 4949   0.022   4.583   7.211  0.2727  0.0453  0.7364
   37POPC   H3R 4950   0.005   4.498   7.141 -1.7216  0.6369  0.4509
   37POPC   H3S 4951  -0.070   4.645   7.208  2.1044  3.0604  2.1825
   37POPC   C24 4952   0.015   4.533   7.359 -0.3290  0.0051 -0.3432
   37POPC   H4R 4953   0.116   4.506   7.397 -0.0082  0.2469 -1.0155
   37POPC   H4S 4954  -0.036   4.435   7.348 -0.4470 -0.2520  1.9648
   37POPC   C25 4955  -0.067   4.627   7.449 -0.6876 -0.1573  0.2824
   37POPC   H5R 4956  -0.160   4.668   7.402 -0.7705 -0.4260  0.2113
   37POPC   H5S 4957  -0.003   4.717   7.463 -0.7341  0.2501 -1.8691
   37POPC   C26 4958  -0.087   4.569   7.592 -1.2758  0.3361  0.4574
   37POPC   H6R 4959  -0.103   4.659   7.656  1.8045 -0.6402  2.8563
   37POPC   H6S 4960   0.012   4.539   7.631 -1.7832 -0.1669  1.4059
   37POPC   C27 4961  -0.178   4.449   7.594 -0.0965 -0.0426  0.3072
   37POPC   H7R 4962  -0.117   4.373   7.539  0.5635  1.1534 -0.6601
   37POPC   H7S 4963  -0.273   4.474   7.543 -0.4360  0.6543  1.2564
   37POPC   C28 4964  -0.211   4.387   7.735  0.4631 -1.2090 -0.6951
   37POPC   H8R 4965  -0.118   4.350   7.783 -0.1586 -0.7436  0.9410
   37POPC   H8S 4966  -0.270   4.293   7.727 -0.6518 -0.5337 -0.7169
   37POPC   C29 4967  -0.295   4.481   7.818 -0.0688 -0.8757  0.7082
   37POPC   H91 4968  -0.400   4.477   7.786  0.2221 -1.1121 -0.2576
   37POPC  C210 4969  -0.267   4.548   7.932  0.1676 -0.0165 -0.3982
   37POPC  H101 4970  -0.348   4.604   7.980 -1.5959 -1.4992 -1.5293
   37POPC  C211 4971  -0.130   4.548   7.995 -0.1164  0.0299  0.5076
   37POPC  H11R 4972  -0.067   4.471   7.947  0.5703  0.2415  1.0599
   37POPC  H11S 4973  -0.119   4.518   8.101  1.8346 -0.9921  0.0495
   37POPC  C212 4974  -0.068   4.692   7.960 -0.6243  0.2794 -0.0933
   37POPC  H12R 4975  -0.077   4.727   7.855  0.4183 -0.7608 -0.5489
   37POPC  H12S 4976   0.039   4.663   7.973 -1.0371 -1.3495 -0.0267
   37POPC  C213 4977  -0.103   4.793   8.060 -0.0503 -1.0235 -0.1813
   37POPC  H13R 4978  -0.076   4.760   8.163  0.9098  2.0935  0.6892
   37POPC  H13S 4979  -0.213   4.805   8.068  0.1965  2.5475 -0.7152
   37POPC  C214 4980  -0.063   4.938   8.040 -0.3256  0.9884  0.4770
   37POPC  H14R 4981  -0.109   4.976   7.946 -0.6338  0.7632  0.5358
   37POPC  H14S 4982   0.045   4.927   8.015 -1.1443 -3.0860 -2.0973
   37POPC  C215 4983  -0.082   5.036   8.157 -0.1591  0.3615 -0.3380
   37POPC  H15R 4984  -0.182   5.030   8.206  0.3897  0.8699  0.8714
   37POPC  H15S 4985  -0.074   5.139   8.115  1.2473 -0.0119 -1.0259
   37POPC  C216 4986   0.022   5.018   8.280 -0.1116 -0.4460  1.0541
   37POPC  H16R 4987   0.124   5.051   8.250 -1.5468  1.0455 -2.8103
   37POPC  H16S 4988   0.029   4.908   8.293 -0.7116 -0.3747  2.0239
   37POPC  C217 4989  -0.018   5.084   8.411 -0.3415  0.1878  0.2816
   37POPC  H17R 4990   0.060   5.050   8.482  0.2249  0.6020 -0.1339
   37POPC  H17S 4991  -0.121   5.051   8.437 -0.5735  0.4992 -0.2317
   37POPC  C218 4992  -0.009   5.238   8.405 -0.5116  0.0821 -0.0882
   37POPC  H18R 4993  -0.040   5.284   8.501  1.4690 -2.0567  1.6953
   37POPC  H18S 4994  -0.068   5.280   8.321  0.5649  0.9849 -0.4171
   37POPC  H18T 4995   0.090   5.273   8.369 -1.0700  0.5080 -1.2509
   37POPC   C33 4996   0.496   4.575   7.716  0.4220  0.0796 -0.3248
   37POPC   H3X 4997   0.558   4.624   7.794  1.7937  0.8415 -1.8332
   37POPC   H3Y 4998   0.457   4.490   7.775  0.5740  1.0545  1.2533
   37POPC   C34 4999   0.367   4.655   7.674 -1.0054  0.1291  0.3329
   37POPC   H4X 5000   0.296   4.589   7.620 -0.5272 -1.4190  1.5341
   37POPC   H4Y 5001   0.394   4.737   7.603 -1.6384  0.8701  0.9440
   37POPC   C35 5002   0.304   4.730   7.788  0.2965 -0.2553 -0.0757
   37POPC   H5X 5003   0.309   4.661   7.875  0.5974 -0.6437 -0.4007
   37POPC   H5Y 5004   0.197   4.759   7.778  0.3927  1.3172  2.4410
   37POPC   C36 5005   0.386   4.851   7.832 -0.3473  0.1242 -0.6468
   37POPC   H6X 5006   0.359   4.944   7.778  1.5030  0.3536 -1.2332
   37POPC   H6Y 5007   0.490   4.828   7.800 -0.5814 -1.5052 -0.3548
   37POPC   C37 5008   0.379   4.888   7.986 -0.1027 -0.3760  0.3088
   37POPC   H7X 5009   0.443   4.819   8.045 -2.4903 -2.0733  1.0857
   37POPC   H7Y 5010   0.276   4.861   8.016 -0.0256 -0.9027  0.1161
   37POPC   C38 5011   0.414   5.033   8.010  0.3109  0.3282  0.1704
   37POPC   H8X 5012   0.349   5.113   7.969  0.2868  0.8049  1.1059
   37POPC   H8Y 5013   0.513   5.054   7.966 -0.4940  1.1872 -1.2814
   37POPC   C39 5014   0.436   5.063   8.152 -0.4301  0.4125 -0.0050
   37POPC   H9X 5015   0.482   4.979   8.208  1.4632  1.6702  0.3868
   37POPC   H9Y 5016   0.331   5.061   8.188 -0.3657  1.0708  0.2289
   37POPC  C310 5017   0.515   5.197   8.187 -0.2952  0.3314  0.1490
   37POPC  H10X 5018   0.478   5.280   8.123 -0.8841  0.5699  0.7954
   37POPC  H10Y 5019   0.623   5.184   8.163 -0.4399  1.6531 -1.3369
   37POPC  C311 5020   0.495   5.230   8.335 -0.2403 -0.0509 -0.6099
   37POPC  H11X 5021   0.542   5.138   8.376  0.2202  0.6487  0.4914
   37POPC  H11Y 5022   0.389   5.235   8.368 -0.3973  1.7336 -1.2919
   37POPC  C312 5023   0.592   5.337   8.390  0.5788 -0.3383  0.2124
   37POPC  H12X 5024   0.550   5.438   8.372  0.2811 -0.8453 -2.2190
   37POPC  H12Y 5025   0.688   5.326   8.336  0.0000  0.1021 -0.9292
   37POPC  C313 5026   0.609   5.332   8.545  0.2231  0.5671 -0.3339
   37POPC  H13X 5027   0.644   5.232   8.578 -0.2720  0.0189 -1.4090
   37POPC  H13Y 5028   0.500   5.346   8.564  0.4305  1.4903  0.2743
   37POPC  C314 5029   0.679   5.443   8.611  0.3742 -0.3550 -0.4763
   37POPC  H14X 5030   0.638   5.539   8.573  0.3308  0.0114  0.4674
   37POPC  H14Y 5031   0.785   5.437   8.578  0.4081 -0.7572 -0.2946
   37POPC  C315 5032   0.666   5.427   8.764  0.6289  0.7489 -0.5239
   37POPC  H15X 5033   0.715   5.333   8.797 -1.4957  0.1875  1.2735
   37POPC  H15Y 5034   0.557   5.417   8.784  0.9753 -2.2902  0.2216
   37POPC  C316 5035   0.719   5.539   8.853  0.5797  0.1698 -0.1611
   37POPC  H16X 5036   0.830   5.538   8.860  0.4951 -0.5709  1.8401
   37POPC  H16Y 5037   0.690   5.532   8.960 -2.1247  0.3635 -0.7929
   37POPC  H16Z 5038   0.676   5.632   8.811 -1.2103 -0.9974 -1.0335
   38POPC     N 5039   2.137   1.840   6.205 -0.1383  0.0313 -0.5289
   38POPC   C12 5040   2.072   1.786   6.328 -0.3970  0.4886 -0.3135
   38POPC  H12A 5041   2.031   1.871   6.380 -1.7522 -0.1830 -0.2373
   38POPC  H12B 5042   2.148   1.736   6.386  2.7536  1.2067 -3.4415
   38POPC   C13 5043   2.034   1.913   6.126 -0.3360  0.1064 -0.6926
   38POPC  H13A 5044   1.996   1.995   6.186 -2.6956 -1.4273  0.0263
   38POPC  H13B 5045   2.076   1.954   6.035  0.1544 -1.0865 -1.0160
   38POPC  H13C 5046   1.945   1.857   6.102 -0.6163  0.7075 -1.1101
   38POPC   C14 5047   2.241   1.943   6.235  0.2437  0.0084 -0.7372
   38POPC  H14A 5048   2.199   2.031   6.281 -1.2443 -1.0757  0.0689
   38POPC  H14B 5049   2.318   1.904   6.301 -2.4789 -2.6917  1.1290
   38POPC  H14C 5050   2.287   1.970   6.141 -0.5565  0.4635 -1.0007
   38POPC   C15 5051   2.195   1.739   6.123  0.0495  0.0260 -0.2616
   38POPC  H15A 5052   2.127   1.661   6.091  0.3728 -0.4234  0.1315
   38POPC  H15B 5053   2.278   1.687   6.169  1.0672 -0.7576 -2.7650
   38POPC  H15C 5054   2.224   1.781   6.028 -0.3588  3.8839  1.1577
   38POPC   C11 5055   1.947   1.703   6.301 -0.2985 -0.4554  0.5913
   38POPC  H11A 5056   1.934   1.639   6.391 -1.5742 -1.2144 -0.0830
   38POPC  H11B 5057   1.953   1.644   6.207 -2.0883  0.9047 -0.4523
   38POPC     P 5058   1.716   1.787   6.381 -0.1343 -0.3117 -0.2105
   38POPC   O13 5059   1.661   1.652   6.363  0.0521  0.4735 -0.0332
   38POPC   O14 5060   1.637   1.910   6.364  0.8250  0.0400  0.5759
   38POPC   O12 5061   1.835   1.790   6.281 -0.6768  0.0573  0.1065
   38POPC   O11 5062   1.794   1.794   6.521 -0.5904 -1.0973  0.3872
   38POPC    C1 5063   1.815   1.920   6.587  0.8851 -0.5065 -0.2520
   38POPC    HA 5064   1.778   2.003   6.523 -1.6051 -2.3286 -1.3413
   38POPC    HB 5065   1.923   1.933   6.606  0.6800 -0.8827  1.2475
   38POPC    C2 5066   1.744   1.926   6.727  0.7402 -0.4608 -0.3367
   38POPC    HS 5067   1.777   2.023   6.769 -2.0337 -0.0946  1.2109
   38POPC   O21 5068   1.786   1.820   6.821 -0.0079 -0.2439  1.1801
   38POPC   C21 5069   1.779   1.857   6.947 -0.3270  0.7578  0.0220
   38POPC   O22 5070   1.786   1.974   6.986  0.6978 -0.1232  0.0580
   38POPC   C22 5071   1.757   1.738   7.033 -0.0045  0.6412  0.1495
   38POPC   H2R 5072   1.819   1.654   6.994  2.6089  2.1008  0.9315
   38POPC   H2S 5073   1.651   1.704   7.032  1.3084 -4.3374  1.1624
   38POPC    C3 5074   1.586   1.921   6.702  0.6178  0.3027  0.3188
   38POPC    HX 5075   1.565   1.822   6.657 -3.3221  0.5124  1.3562
   38POPC    HY 5076   1.554   1.994   6.624  0.1927 -0.0263  0.1851
   38POPC   O31 5077   1.516   1.947   6.828 -0.3739  0.5229 -0.7755
   38POPC   C31 5078   1.387   1.938   6.810  0.1257 -0.2785  0.0471
   38POPC   O32 5079   1.332   1.922   6.702  0.7579  0.3077 -1.0128
   38POPC   C32 5080   1.307   1.957   6.933  0.0715 -0.5837 -0.5076
   38POPC   H2X 5081   1.221   1.887   6.927 -0.1281 -0.2268 -2.2607
   38POPC   H2Y 5082   1.260   2.057   6.925  1.1576  0.1074  1.1347
   38POPC   C23 5083   1.795   1.748   7.182  0.0845 -0.2539 -0.0717
   38POPC   H3R 5084   1.744   1.671   7.244 -0.1840  1.5839  2.1395
   38POPC   H3S 5085   1.745   1.842   7.217  0.6325  0.7659 -1.9175
   38POPC   C24 5086   1.947   1.758   7.215 -0.5899  0.0887 -0.5095
   38POPC   H4R 5087   1.990   1.846   7.163 -0.5567  0.6690  0.4832
   38POPC   H4S 5088   1.998   1.668   7.176 -1.0719 -0.5380  0.2699
   38POPC   C25 5089   1.971   1.766   7.366 -0.5642 -0.4003 -0.2283
   38POPC   H5R 5090   1.920   1.689   7.428  0.4716 -0.3737  0.6858
   38POPC   H5S 5091   1.934   1.867   7.396  0.3389  0.0839 -0.7225
   38POPC   C26 5092   2.122   1.746   7.404  0.8465  0.1780  0.0295
   38POPC   H6R 5093   2.183   1.836   7.380  1.9072 -0.4610  0.2572
   38POPC   H6S 5094   2.161   1.660   7.345  0.4223 -1.3462  1.8509
   38POPC   C27 5095   2.149   1.718   7.557 -0.8679 -0.3266  0.2361
   38POPC   H7R 5096   2.257   1.709   7.583  0.6207 -1.9160 -5.2844
   38POPC   H7S 5097   2.104   1.620   7.582  0.7806 -0.8185  1.5169
   38POPC   C28 5098   2.092   1.820   7.666  0.3692 -0.1914 -0.0238
   38POPC   H8R 5099   1.984   1.832   7.644  0.0308  0.5091  1.8570
   38POPC   H8S 5100   2.131   1.923   7.652 -0.8141  0.5511  1.8293
   38POPC   C29 5101   2.109   1.779   7.806 -0.3199  0.9512 -0.0176
   38POPC   H91 5102   2.074   1.682   7.846 -0.4845  1.1799  0.4107
   38POPC  C210 5103   2.176   1.854   7.891 -0.0789  0.4915 -0.4149
   38POPC  H101 5104   2.188   1.813   7.993 -2.6900  1.0298  0.1725
   38POPC  C211 5105   2.237   1.990   7.877 -0.1146  0.3394  0.4461
   38POPC  H11R 5106   2.155   2.040   7.821  0.7423 -0.5977 -1.7566
   38POPC  H11S 5107   2.330   1.982   7.818  0.4042 -1.8468  1.4470
   38POPC  C212 5108   2.250   2.082   7.994  0.0126 -0.5103 -0.1679
   38POPC  H12R 5109   2.150   2.112   8.032  0.4096  1.8390 -0.8356
   38POPC  H12S 5110   2.283   2.182   7.959 -0.8976  0.0896  0.5926
   38POPC  C213 5111   2.336   2.044   8.118  0.5389  0.2370  0.0447
   38POPC  H13R 5112   2.445   2.035   8.098  0.8767  0.7870  1.5454
   38POPC  H13S 5113   2.303   1.942   8.147  2.2712 -0.9562 -1.8395
   38POPC  C214 5114   2.323   2.137   8.238 -0.3115 -0.7789  0.7709
   38POPC  H14R 5115   2.214   2.142   8.258 -0.6764 -2.4506 -0.6324
   38POPC  H14S 5116   2.361   2.239   8.217  0.6411 -1.4892 -1.1920
   38POPC  C215 5117   2.388   2.065   8.357  0.0828  0.6762  0.0613
   38POPC  H15R 5118   2.494   2.039   8.336  0.0455 -0.1238  0.8071
   38POPC  H15S 5119   2.342   1.964   8.366  1.1952  0.1817  0.4424
   38POPC  C216 5120   2.370   2.137   8.491 -0.3275 -0.7722 -0.1409
   38POPC  H16R 5121   2.265   2.169   8.508  0.2261  0.9756  0.2233
   38POPC  H16S 5122   2.426   2.232   8.496 -0.8575 -0.5245  1.4889
   38POPC  C217 5123   2.417   2.054   8.610 -0.2585  0.5001 -0.9572
   38POPC  H17R 5124   2.364   1.957   8.618 -0.3684  0.6884  1.3357
   38POPC  H17S 5125   2.387   2.104   8.705  1.6037  0.1944 -0.1669
   38POPC  C218 5126   2.568   2.036   8.618 -0.1929 -0.3960 -0.8871
   38POPC  H18R 5127   2.605   1.959   8.689  0.4263  0.0832 -0.6860
   38POPC  H18S 5128   2.612   2.130   8.656  0.4058 -1.7479  2.0480
   38POPC  H18T 5129   2.613   2.008   8.520  1.0797  0.4313 -0.5546
   38POPC   C33 5130   1.387   1.947   7.066  0.0752  0.3365  0.1937
   38POPC   H3X 5131   1.449   2.038   7.076  1.9705 -0.7874 -0.7275
   38POPC   H3Y 5132   1.459   1.862   7.061 -1.8820 -1.3186 -1.8808
   38POPC   C34 5133   1.285   1.935   7.183 -0.2283 -0.0779 -0.0719
   38POPC   H4X 5134   1.229   1.843   7.158 -0.4448 -0.3255  1.2666
   38POPC   H4Y 5135   1.215   2.021   7.173 -1.3526 -1.1110 -1.4098
   38POPC   C35 5136   1.345   1.927   7.325  0.4180  0.6332  0.3917
   38POPC   H5X 5137   1.279   1.973   7.401 -0.5704  1.0560 -0.6958
   38POPC   H5Y 5138   1.435   1.992   7.333  0.3000  0.7423  0.8031
   38POPC   C36 5139   1.376   1.781   7.373  0.1040 -0.8028  0.4783
   38POPC   H6X 5140   1.462   1.736   7.319 -0.1894  0.6948 -1.3259
   38POPC   H6Y 5141   1.285   1.721   7.352 -0.7294  0.8088 -0.6575
   38POPC   C37 5142   1.412   1.781   7.518  0.2139 -0.6229 -0.0540
   38POPC   H7X 5143   1.400   1.680   7.564 -0.5201  0.6094  2.6934
   38POPC   H7Y 5144   1.347   1.853   7.572  2.1513 -0.8530  2.8428
   38POPC   C38 5145   1.566   1.800   7.547 -1.0321 -0.0084  0.5250
   38POPC   H8X 5146   1.612   1.891   7.502  1.4515 -0.6189  1.6588
   38POPC   H8Y 5147   1.631   1.716   7.517 -0.5423  0.3005  0.7022
   38POPC   C39 5148   1.601   1.817   7.696 -0.2464  0.0762 -0.7315
   38POPC   H9X 5149   1.519   1.877   7.739 -1.9491 -0.2129 -3.3785
   38POPC   H9Y 5150   1.701   1.866   7.706  0.3853 -0.8148 -2.2652
   38POPC  C310 5151   1.614   1.680   7.772 -0.4463  0.2369  0.3471
   38POPC  H10X 5152   1.708   1.627   7.748  2.0887  4.3117  0.3921
   38POPC  H10Y 5153   1.526   1.624   7.734  0.7575 -1.8789  0.5348
   38POPC  C311 5154   1.597   1.682   7.919  0.4985  0.0901 -0.0764
   38POPC  H11X 5155   1.494   1.721   7.936 -0.3141 -1.6745 -0.7103
   38POPC  H11Y 5156   1.676   1.753   7.951  1.3942  0.0099 -1.9567
   38POPC  C312 5157   1.627   1.549   7.983 -0.3583  0.0541 -0.0385
   38POPC  H12X 5158   1.737   1.533   7.978 -0.0235  2.3430 -1.9368
   38POPC  H12Y 5159   1.577   1.467   7.927 -0.4755  0.0896  0.0133
   38POPC  C313 5160   1.596   1.532   8.130 -0.0675 -0.3245  0.6137
   38POPC  H13X 5161   1.486   1.515   8.129 -0.5797  2.5064 -0.1699
   38POPC  H13Y 5162   1.610   1.627   8.187 -0.2705  0.8402 -1.1840
   38POPC  C314 5163   1.678   1.422   8.206  0.1806 -0.3613  0.5032
   38POPC  H14X 5164   1.710   1.472   8.300  0.6126  0.0977  0.1192
   38POPC  H14Y 5165   1.774   1.411   8.152  0.1918  1.4987  0.0525
   38POPC  C315 5166   1.601   1.296   8.233  0.1016 -0.0580 -0.4049
   38POPC  H15X 5167   1.672   1.219   8.271  0.8362  0.8814  0.1844
   38POPC  H15Y 5168   1.556   1.259   8.139 -0.5909 -0.5732  0.1105
   38POPC  C316 5169   1.496   1.315   8.347  0.0168 -0.6558  0.1639
   38POPC  H16X 5170   1.427   1.395   8.314  0.6235  0.8167  2.2497
   38POPC  H16Y 5171   1.550   1.356   8.435 -0.8372  3.2507 -0.9301
   38POPC  H16Z 5172   1.437   1.225   8.372  1.0772 -1.4984 -0.2418
   39POPC     N 5173   5.667   3.565   5.805 -0.3727  0.3315  0.1805
   39POPC   C12 5174   5.702   3.705   5.759 -0.1148  0.1236 -0.1796
   39POPC  H12A 5175   5.620   3.759   5.716 -0.1125 -1.4219 -2.2381
   39POPC  H12B 5176   5.778   3.691   5.683 -0.1711 -0.8171 -0.0694
   39POPC   C13 5177   5.789   3.491   5.836 -0.7281  0.5076  0.7283
   39POPC  H13A 5178   5.765   3.395   5.878  2.1033  0.1105  1.6587
   39POPC  H13B 5179   5.855   3.479   5.751 -1.1667  1.4903  0.2355
   39POPC  H13C 5180   5.860   3.542   5.899  0.8895  1.9191 -2.0103
   39POPC   C14 5181   5.578   3.578   5.928 -0.4314 -0.1651 -0.3099
   39POPC  H14A 5182   5.635   3.629   6.004 -2.7222 -0.7371  1.9203
   39POPC  H14B 5183   5.481   3.624   5.914  0.3444  2.0757  1.2358
   39POPC  H14C 5184   5.556   3.490   5.987 -1.0542  1.9961  2.9136
   39POPC   C15 5185   5.586   3.487   5.703 -0.3185 -0.3465  0.2338
   39POPC  H15A 5186   5.639   3.479   5.610  1.4349  1.1513  1.0311
   39POPC  H15B 5187   5.492   3.538   5.689  1.0915  2.1808 -0.6415
   39POPC  H15C 5188   5.566   3.387   5.739  2.6306 -1.2561 -0.3822
   39POPC   C11 5189   5.767   3.805   5.858  0.3637 -0.1903  0.1910
   39POPC  H11A 5190   5.817   3.881   5.795  2.4629 -0.5909  1.2848
   39POPC  H11B 5191   5.848   3.749   5.910  0.7721  0.2324  0.0164
   39POPC     P 5192   5.731   3.955   6.070 -0.0518 -0.1263  0.3218
   39POPC   O13 5193   5.645   4.066   6.097  0.4764  0.1638  0.2574
   39POPC   O14 5194   5.867   3.993   6.034 -0.3757  0.3105  0.2105
   39POPC   O12 5195   5.673   3.861   5.949  0.1415 -0.5911  0.4485
   39POPC   O11 5196   5.736   3.858   6.190 -0.7262 -0.0153 -0.1875
   39POPC    C1 5197   5.624   3.817   6.260  0.1917 -0.0887 -0.2288
   39POPC    HA 5198   5.650   3.710   6.279  1.4170  0.7434  3.7073
   39POPC    HB 5199   5.532   3.825   6.197  0.6029 -1.1898 -1.0183
   39POPC    C2 5200   5.610   3.895   6.396 -0.0761  1.1217 -0.2311
   39POPC    HS 5201   5.640   4.000   6.376 -0.3346  0.9419 -1.7108
   39POPC   O21 5202   5.710   3.835   6.478 -0.0613 -0.0494  0.2258
   39POPC   C21 5203   5.770   3.911   6.570 -0.2049  0.1422 -0.2789
   39POPC   O22 5204   5.739   4.027   6.597  0.0986  0.8503 -0.0625
   39POPC   C22 5205   5.874   3.825   6.634 -0.3550 -0.1236 -0.2338
   39POPC   H2R 5206   5.957   3.899   6.638 -1.4371  1.0934  2.7668
   39POPC   H2S 5207   5.896   3.731   6.579 -3.0611 -2.0664  1.7306
   39POPC    C3 5208   5.473   3.880   6.468 -0.1983 -0.5489  0.3715
   39POPC    HX 5209   5.428   3.780   6.452 -0.9608 -0.8620  3.6825
   39POPC    HY 5210   5.395   3.935   6.411 -0.6060 -1.0009  0.4850
   39POPC   O31 5211   5.468   3.918   6.605  0.0664  0.3287 -0.0894
   39POPC   C31 5212   5.487   3.835   6.703 -0.7758 -0.0489 -0.5410
   39POPC   O32 5213   5.517   3.716   6.687  1.0465  0.5031  0.2572
   39POPC   C32 5214   5.492   3.901   6.837  0.2005 -0.3566  0.4734
   39POPC   H2X 5215   5.569   3.982   6.836  0.7572 -0.7852 -2.8324
   39POPC   H2Y 5216   5.391   3.946   6.843 -0.1038 -0.6861 -1.5043
   39POPC   C23 5217   5.834   3.795   6.780 -0.8690  0.0269 -0.3917
   39POPC   H3R 5218   5.771   3.703   6.783 -1.5174  0.4494  2.7316
   39POPC   H3S 5219   5.771   3.876   6.824 -0.3897 -0.3617  1.0495
   39POPC   C24 5220   5.951   3.790   6.880 -0.1271 -0.0248  0.7497
   39POPC   H4R 5221   5.988   3.891   6.905  0.6741 -0.3867  1.0648
   39POPC   H4S 5222   6.029   3.726   6.834 -0.6798  0.0781 -0.3718
   39POPC   C25 5223   5.900   3.736   7.013 -0.2252 -0.1240 -0.2468
   39POPC   H5R 5224   5.850   3.638   6.994 -1.9353  0.8414 -0.9939
   39POPC   H5S 5225   5.818   3.798   7.056 -1.0892 -0.6229 -1.1203
   39POPC   C26 5226   6.009   3.718   7.126  0.0491 -0.1809  0.5045
   39POPC   H6R 5227   6.007   3.821   7.167 -2.2249 -1.5246  4.1935
   39POPC   H6S 5228   6.105   3.696   7.075  0.6360  2.0934  0.5236
   39POPC   C27 5229   5.969   3.603   7.218 -0.0948  0.4505  0.6132
   39POPC   H7R 5230   5.966   3.503   7.170  2.8599  0.6409 -0.1927
   39POPC   H7S 5231   5.875   3.615   7.275 -0.3227 -3.7555  1.4329
   39POPC   C28 5232   6.087   3.585   7.321  0.2458  0.4285  0.3862
   39POPC   H8R 5233   6.184   3.571   7.268 -0.5072 -0.6330 -0.7659
   39POPC   H8S 5234   6.074   3.487   7.372  3.7037 -0.8532 -0.8311
   39POPC   C29 5235   6.110   3.700   7.417 -0.0240 -0.1695 -0.0383
   39POPC   H91 5236   6.116   3.797   7.366 -2.6616  1.1237  1.9014
   39POPC  C210 5237   6.135   3.695   7.544 -0.3291  0.5981 -1.1587
   39POPC  H101 5238   6.155   3.792   7.592 -0.2981 -0.0042  0.0792
   39POPC  C211 5239   6.136   3.573   7.627 -0.5783 -0.1655 -0.1967
   39POPC  H11R 5240   6.157   3.486   7.562 -1.2703  0.8581 -1.8572
   39POPC  H11S 5241   6.032   3.558   7.665  0.2990 -0.1484  2.4350
   39POPC  C212 5242   6.231   3.544   7.739 -0.1653 -0.3794 -0.4906
   39POPC  H12R 5243   6.208   3.436   7.751 -1.0509 -0.6156 -3.3477
   39POPC  H12S 5244   6.206   3.604   7.828  0.3071 -0.7434 -0.1076
   39POPC  C213 5245   6.376   3.574   7.692 -0.0431  0.4646  0.0068
   39POPC  H13R 5246   6.404   3.682   7.691 -1.0922  0.7541 -1.5392
   39POPC  H13S 5247   6.392   3.520   7.597 -1.2144 -2.7188  1.4951
   39POPC  C214 5248   6.478   3.519   7.792 -0.3366  0.0717 -0.2111
   39POPC  H14R 5249   6.571   3.495   7.736 -0.7461 -1.1497 -0.3961
   39POPC  H14S 5250   6.452   3.413   7.814  2.3311 -1.3858 -3.1702
   39POPC  C215 5251   6.500   3.601   7.918  0.1964  0.3079 -0.1247
   39POPC  H15R 5252   6.408   3.597   7.979 -0.3720  0.2288 -0.9640
   39POPC  H15S 5253   6.513   3.711   7.914 -0.3309  0.4347  1.1097
   39POPC  C216 5254   6.617   3.537   7.993  0.2048  0.6945  0.0794
   39POPC  H16R 5255   6.610   3.428   8.011  0.1014  0.9701  1.8698
   39POPC  H16S 5256   6.607   3.566   8.100 -0.8310 -1.1030  0.5220
   39POPC  C217 5257   6.753   3.565   7.934 -0.1706 -0.1495 -0.2288
   39POPC  H17R 5258   6.756   3.539   7.826 -1.6108 -0.9435 -0.1052
   39POPC  H17S 5259   6.817   3.487   7.980  1.0827  0.2242 -1.3013
   39POPC  C218 5260   6.805   3.706   7.946 -0.3502  0.5026  0.9530
   39POPC  H18R 5261   6.746   3.787   7.898  1.7233  2.1730  1.0748
   39POPC  H18S 5262   6.903   3.718   7.896  0.3404  0.7212  2.3196
   39POPC  H18T 5263   6.815   3.741   8.051 -1.6045  1.4175  0.7966
   39POPC   C33 5264   5.527   3.792   6.942 -0.1219 -0.2022 -0.4421
   39POPC   H3X 5265   5.613   3.723   6.930 -0.4794 -1.0683  1.5851
   39POPC   H3Y 5266   5.440   3.722   6.944  0.2779 -0.6981 -0.3274
   39POPC   C34 5267   5.553   3.860   7.086  0.0061  0.4858  0.5454
   39POPC   H4X 5268   5.465   3.923   7.109 -0.0993  0.6234 -0.2172
   39POPC   H4Y 5269   5.646   3.921   7.075  3.0669 -3.9674 -2.0483
   39POPC   C35 5270   5.570   3.757   7.197 -0.2772  0.0295 -0.7306
   39POPC   H5X 5271   5.673   3.719   7.182 -0.2483  0.0297 -0.5400
   39POPC   H5Y 5272   5.491   3.680   7.196 -1.6730  1.3502  0.9329
   39POPC   C36 5273   5.559   3.816   7.345 -0.5001 -0.3312  0.1109
   39POPC   H6X 5274   5.459   3.863   7.355 -0.6785 -0.8337  0.7638
   39POPC   H6Y 5275   5.639   3.893   7.354  1.1839 -1.3786 -3.7218
   39POPC   C37 5276   5.590   3.716   7.457  0.5701 -0.7251 -0.1444
   39POPC   H7X 5277   5.687   3.664   7.440  2.2717  2.1592 -0.0121
   39POPC   H7Y 5278   5.508   3.641   7.451 -1.4822  1.4491 -0.5145
   39POPC   C38 5279   5.584   3.770   7.604  0.5263  0.6453 -0.2353
   39POPC   H8X 5280   5.481   3.807   7.622  0.6423  0.5971  0.5309
   39POPC   H8Y 5281   5.653   3.856   7.614  1.0120  0.3595 -1.0231
   39POPC   C39 5282   5.620   3.664   7.704 -0.4188 -0.0499  0.0434
   39POPC   H9X 5283   5.727   3.640   7.689  0.0194  1.6853  0.2534
   39POPC   H9Y 5284   5.564   3.568   7.693  1.3864 -1.2972  1.0895
   39POPC  C310 5285   5.603   3.715   7.846  0.2046  0.1190  0.8809
   39POPC  H10X 5286   5.515   3.782   7.846  0.0757  0.0337 -1.2798
   39POPC  H10Y 5287   5.688   3.777   7.882  0.8779 -0.7759  0.8987
   39POPC  C311 5288   5.599   3.604   7.947  0.4083  0.0562  0.6674
   39POPC  H11X 5289   5.698   3.557   7.967  0.2152 -0.3780  0.6240
   39POPC  H11Y 5290   5.523   3.532   7.910 -0.6772  2.6881 -2.6694
   39POPC  C312 5291   5.557   3.647   8.084 -0.6283  0.2197  0.3518
   39POPC  H12X 5292   5.531   3.557   8.144 -0.2591 -0.6796 -0.8045
   39POPC  H12Y 5293   5.468   3.714   8.088  0.8023  2.2038  0.9072
   39POPC  C313 5294   5.674   3.731   8.152  0.2411 -0.3489  0.5100
   39POPC  H13X 5295   5.696   3.828   8.103 -1.9429  0.3080  0.7005
   39POPC  H13Y 5296   5.769   3.676   8.135  0.2976 -0.7660  1.9897
   39POPC  C314 5297   5.640   3.757   8.302  0.0736  0.5190 -0.6045
   39POPC  H14X 5298   5.593   3.664   8.338  0.9647  0.1180 -0.4383
   39POPC  H14Y 5299   5.561   3.835   8.312  0.7720  1.3356 -1.2369
   39POPC  C315 5300   5.760   3.802   8.384  0.3627  0.5138 -0.3892
   39POPC  H15X 5301   5.810   3.897   8.353  0.0793  0.8938  0.2913
   39POPC  H15Y 5302   5.836   3.721   8.387 -1.8422 -1.6536  0.1807
   39POPC  C316 5303   5.723   3.808   8.534 -0.6622 -0.0458 -0.0014
   39POPC  H16X 5304   5.817   3.802   8.592 -0.9561  1.4650  0.6778
   39POPC  H16Y 5305   5.661   3.716   8.543 -1.3090  0.2174 -1.4975
   39POPC  H16Z 5306   5.669   3.904   8.549  1.3865  1.0778  0.5228
   40POPC     N 5307   5.681   3.396   6.505  0.1297  0.4524 -0.1670
   40POPC   C12 5308   5.567   3.315   6.561  0.0085 -0.0616  0.0886
   40POPC  H12A 5309   5.477   3.364   6.528 -1.3840 -1.2046  1.9446
   40POPC  H12B 5310   5.566   3.319   6.669  1.5313 -0.9664  0.1688
   40POPC   C13 5311   5.671   3.533   6.540  0.3372 -0.1911  0.2365
   40POPC  H13A 5312   5.582   3.569   6.492  0.6553  1.5089  0.8464
   40POPC  H13B 5313   5.649   3.563   6.642 -2.4022 -0.6876 -0.1312
   40POPC  H13C 5314   5.754   3.588   6.497  1.2945 -2.4881 -1.0190
   40POPC   C14 5315   5.810   3.350   6.557  0.7486 -0.3017  0.4706
   40POPC  H14A 5316   5.818   3.243   6.542  0.4677 -0.4484  1.2799
   40POPC  H14B 5317   5.893   3.389   6.501  0.1371 -1.3696 -1.2676
   40POPC  H14C 5318   5.811   3.376   6.662 -1.5484  1.9636  0.0393
   40POPC   C15 5319   5.690   3.377   6.353 -0.6512  0.5322 -0.5318
   40POPC  H15A 5320   5.707   3.274   6.325 -1.9442  0.7069 -2.1144
   40POPC  H15B 5321   5.770   3.439   6.315 -0.5937  0.3944 -0.6326
   40POPC  H15C 5322   5.594   3.396   6.306  0.8411  0.5840 -3.7875
   40POPC   C11 5323   5.548   3.167   6.518  0.2319 -0.5726 -0.6856
   40POPC  H11A 5324   5.500   3.106   6.598  1.7909 -0.1087  0.6560
   40POPC  H11B 5325   5.649   3.124   6.499  1.1321  1.4033 -0.5706
   40POPC     P 5326   5.319   3.195   6.400  0.0811 -0.1657 -0.2999
   40POPC   O13 5327   5.270   3.198   6.259 -0.0986 -0.1974 -0.5541
   40POPC   O14 5328   5.298   3.317   6.480 -0.0055  0.4818 -0.0143
   40POPC   O12 5329   5.474   3.164   6.399 -0.4257 -0.5548  0.2980
   40POPC   O11 5330   5.252   3.074   6.476  0.4385  0.6396  0.1859
   40POPC    C1 5331   5.147   3.091   6.573 -0.3878  0.0653 -0.4971
   40POPC    HA 5332   5.087   2.997   6.572 -1.6536  0.8504 -0.2743
   40POPC    HB 5333   5.084   3.181   6.561  1.4731  1.1626 -2.5077
   40POPC    C2 5334   5.212   3.098   6.719  0.0132 -0.4805 -0.9315
   40POPC    HS 5335   5.276   3.188   6.720  0.0513 -0.4803  1.2292
   40POPC   O21 5336   5.277   2.972   6.750  0.3251 -0.2660  0.1773
   40POPC   C21 5337   5.370   2.989   6.837 -0.1213 -0.0291 -0.1702
   40POPC   O22 5338   5.413   3.095   6.883 -0.2414  0.0941  0.3244
   40POPC   C22 5339   5.398   2.847   6.889  0.0930  0.5392  0.2567
   40POPC   H2R 5340   5.377   2.767   6.816  0.7928 -0.6003  1.2658
   40POPC   H2S 5341   5.320   2.829   6.966 -0.6459 -1.2962 -0.8600
   40POPC    C3 5342   5.091   3.115   6.817 -0.2742  0.0655  0.7085
   40POPC    HX 5343   5.029   3.023   6.806  1.6594 -1.3902  1.2442
   40POPC    HY 5344   5.022   3.187   6.768 -0.5911 -0.3587  0.5192
   40POPC   O31 5345   5.122   3.154   6.957 -0.2010 -0.0247  0.3047
   40POPC   C31 5346   5.123   3.061   7.044 -0.1040  0.7254 -0.2755
   40POPC   O32 5347   5.087   2.944   7.029 -0.4549  0.3849  0.1558
   40POPC   C32 5348   5.183   3.115   7.176  0.5847  0.3465  0.0049
   40POPC   H2X 5349   5.130   3.207   7.210  0.8832  0.1850  0.9501
   40POPC   H2Y 5350   5.284   3.146   7.143  0.0613  2.0189 -0.1156
   40POPC   C23 5351   5.539   2.824   6.942 -0.1171 -0.0722  0.4056
   40POPC   H3R 5352   5.591   2.915   6.981  0.2067 -1.5396  3.7486
   40POPC   H3S 5353   5.596   2.782   6.857  0.4019  1.2592  0.0624
   40POPC   C24 5354   5.550   2.730   7.070  0.7133 -0.9038  1.1732
   40POPC   H4R 5355   5.640   2.666   7.057  0.8402 -0.2280 -2.1148
   40POPC   H4S 5356   5.464   2.660   7.061 -1.5641  1.9084 -1.3030
   40POPC   C25 5357   5.554   2.806   7.204 -0.4328 -0.1019  0.1905
   40POPC   H5R 5358   5.469   2.877   7.213  1.4513  2.3749 -0.1789
   40POPC   H5S 5359   5.648   2.865   7.218 -0.0965 -0.7860  0.8970
   40POPC   C26 5360   5.571   2.710   7.324 -0.5021 -0.2238  1.1329
   40POPC   H6R 5361   5.667   2.654   7.317 -0.1260  0.3257  1.7319
   40POPC   H6S 5362   5.487   2.637   7.320 -1.3616  0.8119 -0.4908
   40POPC   C27 5363   5.560   2.790   7.455 -0.4835 -0.4179  0.2687
   40POPC   H7R 5364   5.458   2.833   7.449 -0.3794  0.0623  1.6279
   40POPC   H7S 5365   5.635   2.871   7.453  2.3758 -2.9066 -0.8099
   40POPC   C28 5366   5.575   2.704   7.584 -0.3363  0.6621 -0.3964
   40POPC   H8R 5367   5.674   2.655   7.573 -0.8683 -0.2387 -1.3045
   40POPC   H8S 5368   5.500   2.623   7.590  0.3524  0.0023 -0.5726
   40POPC   C29 5369   5.565   2.789   7.709  0.0239 -0.0285 -0.2050
   40POPC   H91 5370   5.634   2.874   7.701  0.5479 -0.4428 -0.0995
   40POPC  C210 5371   5.476   2.789   7.806  0.1897 -0.3538  0.4658
   40POPC  H101 5372   5.492   2.859   7.889  0.6697  0.1209 -0.0250
   40POPC  C211 5373   5.367   2.691   7.827  0.2479  0.0655 -0.5740
   40POPC  H11R 5374   5.357   2.620   7.742  1.5020  0.2077 -0.8617
   40POPC  H11S 5375   5.271   2.746   7.831  0.0711 -0.2578 -0.3121
   40POPC  C212 5376   5.384   2.607   7.953  0.3720 -0.0484  0.3650
   40POPC  H12R 5377   5.487   2.565   7.956 -0.2352 -1.5869  0.8533
   40POPC  H12S 5378   5.310   2.524   7.945  0.3823  0.0215 -0.6046
   40POPC  C213 5379   5.359   2.685   8.084 -0.4443 -0.2850 -0.4797
   40POPC  H13R 5380   5.256   2.727   8.080 -0.5653 -0.6743 -1.7621
   40POPC  H13S 5381   5.434   2.767   8.090 -1.3614  0.6927 -1.7595
   40POPC  C214 5382   5.381   2.601   8.215  0.1516  0.1552  0.2298
   40POPC  H14R 5383   5.368   2.665   8.304 -1.3112  1.9302 -1.1678
   40POPC  H14S 5384   5.481   2.555   8.227  0.2418 -0.1291 -1.3525
   40POPC  C215 5385   5.270   2.498   8.236  0.0111 -0.6272  0.0954
   40POPC  H15R 5386   5.276   2.420   8.157 -1.5476  0.2054 -0.8916
   40POPC  H15S 5387   5.179   2.560   8.218  0.3676 -0.5001 -1.4243
   40POPC  C216 5388   5.268   2.428   8.371 -0.2625  0.0635  0.0255
   40POPC  H16R 5389   5.262   2.514   8.441 -0.9676 -0.2357  0.3436
   40POPC  H16S 5390   5.356   2.361   8.388 -0.8159 -0.6196  0.2262
   40POPC  C217 5391   5.141   2.348   8.401 -0.3829  0.6051  0.4437
   40POPC  H17R 5392   5.149   2.313   8.506 -1.9944 -0.1290  0.3504
   40POPC  H17S 5393   5.139   2.255   8.340 -1.8637  1.0073 -0.1614
   40POPC  C218 5394   5.008   2.415   8.380 -1.4230 -0.0916 -0.5014
   40POPC  H18R 5395   4.931   2.335   8.367 -0.4960 -1.4334  1.6961
   40POPC  H18S 5396   5.003   2.482   8.292 -1.6882  1.7474  0.8613
   40POPC  H18T 5397   4.985   2.482   8.465  0.2736  0.4834 -0.4735
   40POPC   C33 5398   5.171   2.997   7.278 -0.8789  0.1426  0.2210
   40POPC   H3X 5399   5.249   2.918   7.269  0.3269  1.4112 -0.9038
   40POPC   H3Y 5400   5.072   2.946   7.279 -0.0038 -1.7078 -1.3172
   40POPC   C34 5401   5.170   3.046   7.419  0.4640  0.4765 -0.6270
   40POPC   H4X 5402   5.088   3.120   7.433  0.8755  0.2755  4.9006
   40POPC   H4Y 5403   5.267   3.095   7.442  0.2074  0.4730  0.5412
   40POPC   C35 5404   5.133   2.928   7.516 -0.4040 -0.2469  0.5644
   40POPC   H5X 5405   5.205   2.847   7.489 -0.2105  0.2562 -0.4560
   40POPC   H5Y 5406   5.035   2.888   7.485  0.8487 -2.0210 -1.4209
   40POPC   C36 5407   5.154   2.959   7.666  0.0656  0.8495 -0.4467
   40POPC   H6X 5408   5.258   2.993   7.685  0.6179 -1.4014  0.9270
   40POPC   H6Y 5409   5.133   2.870   7.729 -1.9028  1.7695  0.2634
   40POPC   C37 5410   5.062   3.069   7.729  0.3757 -0.5264 -0.8002
   40POPC   H7X 5411   4.960   3.055   7.688  1.2610 -1.0966 -2.9442
   40POPC   H7Y 5412   5.106   3.164   7.691  0.6419 -0.4284 -0.2518
   40POPC   C38 5413   5.045   3.067   7.877 -0.6140  0.0074  0.3196
   40POPC   H8X 5414   5.002   2.969   7.908 -2.6716  0.7908  0.0634
   40POPC   H8Y 5415   4.979   3.149   7.911 -1.7663 -0.9761  0.5206
   40POPC   C39 5416   5.172   3.084   7.962 -0.0081  0.0430 -0.3649
   40POPC   H9X 5417   5.220   3.181   7.938  0.1874 -0.1506 -0.7636
   40POPC   H9Y 5418   5.250   3.015   7.923  0.0020 -0.4938  0.5692
   40POPC  C310 5419   5.141   3.056   8.109  0.4650 -0.3936  0.6223
   40POPC  H10X 5420   5.064   2.978   8.123  1.7638 -1.7800  0.2757
   40POPC  H10Y 5421   5.098   3.152   8.144  0.9527  0.5297 -1.1779
   40POPC  C311 5422   5.261   3.016   8.195 -0.1464 -0.1333 -0.4517
   40POPC  H11X 5423   5.341   3.093   8.206 -1.1347  0.8173  0.3482
   40POPC  H11Y 5424   5.308   2.938   8.132 -0.3425 -1.4591  0.9924
   40POPC  C312 5425   5.227   2.965   8.343 -0.6287  0.2395 -0.1910
   40POPC  H12X 5426   5.328   2.985   8.384  0.4433 -0.0770 -2.4926
   40POPC  H12Y 5427   5.186   2.862   8.346 -1.4585  0.5732  0.1365
   40POPC  C313 5428   5.139   3.065   8.429 -0.2711 -0.0497  0.2523
   40POPC  H13X 5429   5.154   3.170   8.395 -0.6993 -0.3937 -1.0671
   40POPC  H13Y 5430   5.160   3.052   8.537 -0.5722 -2.2852  0.0905
   40POPC  C314 5431   4.987   3.029   8.415 -1.1499 -0.6435 -0.0406
   40POPC  H14X 5432   4.958   3.033   8.308 -0.9044  1.1203 -0.0622
   40POPC  H14Y 5433   4.935   3.110   8.470  2.2484  1.6900  0.0487
   40POPC  C315 5434   4.944   2.900   8.478  0.6582  0.2798 -0.0606
   40POPC  H15X 5435   4.945   2.914   8.589 -2.4492  2.8051 -0.1907
   40POPC  H15Y 5436   5.017   2.822   8.448  0.0646 -0.0500 -0.6680
   40POPC  C316 5437   4.800   2.851   8.447 -0.2785  0.3604 -0.3360
   40POPC  H16X 5438   4.726   2.924   8.487 -0.5120  0.5432 -1.0813
   40POPC  H16Y 5439   4.780   2.753   8.496 -0.1600 -0.2528 -1.4749
   40POPC  H16Z 5440   4.782   2.834   8.339  1.3194  1.6342 -0.8362
   41CHL1    C3 5441   3.763   0.750  10.049  0.7141 -0.3636 -0.1458
   41CHL1    H3 5442   3.845   0.825  10.042  0.4588 -0.0517  0.1450
   41CHL1    O3 5443   3.751   0.726  10.186  0.2128 -0.0662 -0.7416
   41CHL1   H3' 5444   3.843   0.719  10.213 -0.2112  0.0418  0.8316
   41CHL1    C4 5445   3.624   0.804   9.986 -0.0474  0.3912  0.2305
   41CHL1   H4A 5446   3.553   0.727  10.024 -1.1533  0.1772 -2.0835
   41CHL1   H4B 5447   3.608   0.903  10.033  1.8322  0.4214  0.8867
   41CHL1    C5 5448   3.615   0.800   9.836  0.2067  0.2937  0.0903
   41CHL1    C6 5449   3.571   0.908   9.773  0.2053  0.3719  0.4177
   41CHL1    H6 5450   3.544   1.000   9.827  2.2727 -0.3586  2.9431
   41CHL1    C7 5451   3.560   0.912   9.624  0.5658  0.0326 -0.1364
   41CHL1   H7A 5452   3.473   0.979   9.607  1.5767  0.9216 -2.2285
   41CHL1   H7B 5453   3.645   0.967   9.577  0.7774 -0.8209 -0.7730
   41CHL1    C8 5454   3.563   0.775   9.555  0.6396 -0.1576  0.9672
   41CHL1    H8 5455   3.469   0.720   9.577  0.4459 -1.6567 -2.8706
   41CHL1   C14 5456   3.587   0.794   9.400 -0.0855 -0.1716 -0.6630
   41CHL1   H14 5457   3.691   0.834   9.392 -0.2706  0.2608 -0.9805
   41CHL1   C15 5458   3.492   0.881   9.320 -0.1615  0.0858 -0.2333
   41CHL1  H15A 5459   3.389   0.862   9.359  0.1372  1.7157  1.5262
   41CHL1  H15B 5460   3.513   0.989   9.338  0.0353  0.4663 -2.4491
   41CHL1   C16 5461   3.524   0.853   9.171  0.3881  0.3258  0.3082
   41CHL1  H16A 5462   3.425   0.827   9.127  0.6203 -1.7071  0.8939
   41CHL1  H16B 5463   3.573   0.930   9.108 -1.7186 -0.4499 -2.4818
   41CHL1   C17 5464   3.607   0.722   9.167 -0.1958  0.1307  0.1680
   41CHL1   H17 5465   3.714   0.753   9.165  0.1020 -0.8788 -1.1745
   41CHL1   C13 5466   3.593   0.666   9.310  0.6021  0.0377 -0.1800
   41CHL1   C18 5467   3.454   0.603   9.327 -0.2336  0.0444  0.1049
   41CHL1  H18A 5468   3.365   0.666   9.307  1.5493  2.5898 -0.3899
   41CHL1  H18B 5469   3.449   0.512   9.264 -1.2153  0.8916 -1.0697
   41CHL1  H18C 5470   3.442   0.556   9.427  0.8620 -1.4836 -0.4444
   41CHL1   C12 5471   3.710   0.575   9.365 -0.2725 -0.4535 -0.5405
   41CHL1  H12A 5472   3.691   0.476   9.318  1.6823 -1.0374 -0.1983
   41CHL1  H12B 5473   3.812   0.606   9.335  0.3455 -2.1991 -0.3929
   41CHL1   C11 5474   3.703   0.560   9.522 -0.2794  0.1581 -0.7099
   41CHL1  H11A 5475   3.629   0.478   9.530  0.7045 -0.7784 -1.0618
   41CHL1  H11B 5476   3.803   0.523   9.552 -0.8058 -2.1922 -1.6465
   41CHL1    C9 5477   3.677   0.691   9.607 -0.0364  0.2419  0.3563
   41CHL1    H9 5478   3.770   0.749   9.587  1.3393 -0.7564  3.2608
   41CHL1   C10 5479   3.669   0.675   9.765  0.0026 -0.0131  0.1474
   41CHL1   C19 5480   3.569   0.555   9.787 -1.1088 -0.6329 -0.7861
   41CHL1  H19A 5481   3.533   0.565   9.892 -3.1881 -2.0570 -1.3090
   41CHL1  H19B 5482   3.478   0.562   9.724 -2.9025  2.3926  1.8387
   41CHL1  H19C 5483   3.611   0.453   9.798 -1.6842 -1.0097 -1.9787
   41CHL1    C1 5484   3.807   0.643   9.819  0.2484  0.1886  0.3364
   41CHL1   H1A 5485   3.842   0.552   9.766  1.3676  0.0707  1.2279
   41CHL1   H1B 5486   3.865   0.733   9.793 -0.0470  0.2933  0.0267
   41CHL1    C2 5487   3.813   0.628   9.973  0.2903  0.3834  0.3756
   41CHL1   H2A 5488   3.910   0.603  10.021  0.3272 -0.9159 -0.2977
   41CHL1   H2B 5489   3.751   0.539   9.998 -0.5929  1.0448  0.6118
   41CHL1   C20 5490   3.564   0.633   9.051  0.5435  0.3395 -0.3910
   41CHL1   H20 5491   3.459   0.604   9.070  0.2859  2.3442  1.6935
   41CHL1   C21 5492   3.651   0.504   9.035  0.0070  0.2867 -0.0245
   41CHL1  H21A 5493   3.659   0.452   9.133  1.5754  0.5410  0.0068
   41CHL1  H21B 5494   3.753   0.532   9.000 -0.3980 -2.7094 -4.4987
   41CHL1  H21C 5495   3.610   0.434   8.959  0.0395  0.1619  0.0719
   41CHL1   C22 5496   3.568   0.710   8.920 -0.1347 -0.1633 -0.8488
   41CHL1  H22A 5497   3.523   0.649   8.839  2.6653 -2.2117 -1.0071
   41CHL1  H22B 5498   3.489   0.789   8.928 -2.2478 -2.2434  0.2064
   41CHL1   C23 5499   3.703   0.762   8.872 -0.2009  0.5016  0.6966
   41CHL1  H23A 5500   3.733   0.838   8.947  1.9627 -0.3667  0.7808
   41CHL1  H23B 5501   3.777   0.680   8.860 -2.1500 -1.4182  1.1771
   41CHL1   C24 5502   3.710   0.846   8.742 -0.0951 -0.7915  0.1394
   41CHL1  H24A 5503   3.665   0.780   8.665  1.2136  0.0724 -1.4373
   41CHL1  H24B 5504   3.654   0.939   8.768 -0.9759 -1.8338  2.2069
   41CHL1   C25 5505   3.858   0.876   8.688  0.5654 -0.5468  0.3894
   41CHL1   H25 5506   3.919   0.866   8.781  0.5001  1.6992  0.7340
   41CHL1   C26 5507   3.908   0.771   8.586  0.8618 -0.2761  0.1996
   41CHL1  H26A 5508   4.016   0.791   8.568  0.5472  1.3146 -0.0853
   41CHL1  H26B 5509   3.883   0.665   8.608 -1.6432 -0.4438 -2.8822
   41CHL1  H26C 5510   3.865   0.785   8.485  2.7030 -2.5024 -0.9726
   41CHL1   C27 5511   3.858   1.022   8.637 -0.1669 -0.4501  0.0485
   41CHL1  H27A 5512   3.780   1.049   8.562 -0.2798 -1.1016 -0.0734
   41CHL1  H27B 5513   3.839   1.093   8.719 -0.7084 -0.8696  0.2868
   41CHL1  H27C 5514   3.964   1.043   8.609  0.0429  2.7120  2.6281
   42CHL1    C3 5515   4.358   6.287   9.994 -0.6308  0.1275 -0.0528
   42CHL1    H3 5516   4.458   6.285   9.946 -0.4103 -1.5041  0.4040
   42CHL1    O3 5517   4.362   6.290  10.135  0.5067 -0.3612 -0.3124
   42CHL1   H3' 5518   4.270   6.308  10.156  0.3165  1.2192 -2.2196
   42CHL1    C4 5519   4.278   6.413   9.947 -0.3888  0.4506  0.4288
   42CHL1   H4A 5520   4.184   6.420  10.006  0.0225 -0.0575  1.1700
   42CHL1   H4B 5521   4.337   6.505   9.966  0.6912 -0.2473  0.5837
   42CHL1    C5 5522   4.242   6.401   9.798  0.3997 -0.0979 -1.3319
   42CHL1    C6 5523   4.265   6.506   9.722  0.7134  0.2059  0.7346
   42CHL1    H6 5524   4.295   6.597   9.776  1.9981  0.5234 -0.4645
   42CHL1    C7 5525   4.222   6.514   9.575 -0.2920  0.4672  0.2003
   42CHL1   H7A 5526   4.170   6.606   9.540 -2.0916 -0.9349 -1.0310
   42CHL1   H7B 5527   4.312   6.509   9.511 -0.4987  1.8540 -0.2440
   42CHL1    C8 5528   4.131   6.396   9.536  0.0953  0.9756 -0.1649
   42CHL1    H8 5529   4.031   6.431   9.568 -0.7681 -2.0740  0.7990
   42CHL1   C14 5530   4.114   6.385   9.385  0.7052 -0.6771 -0.3512
   42CHL1   H14 5531   4.213   6.352   9.348  0.7022  0.3639 -1.3539
   42CHL1   C15 5532   4.092   6.513   9.291  0.3767 -0.6606 -0.7315
   42CHL1  H15A 5533   4.017   6.580   9.338  2.8130  0.3326  2.1246
   42CHL1  H15B 5534   4.185   6.574   9.290 -0.1503  0.1738 -0.1210
   42CHL1   C16 5535   4.047   6.451   9.160  0.4787 -0.1654  0.4780
   42CHL1  H16A 5536   3.944   6.485   9.133  1.0499  1.0592 -0.2456
   42CHL1  H16B 5537   4.112   6.471   9.072  0.6412 -2.5752 -0.0307
   42CHL1   C17 5538   4.038   6.292   9.183  0.3299  0.0498 -0.4271
   42CHL1   H17 5539   4.138   6.253   9.153  0.2684 -0.8511  0.5008
   42CHL1   C13 5540   4.023   6.279   9.337 -0.3026 -0.3264  0.6363
   42CHL1   C18 5541   3.873   6.312   9.384  0.7056 -0.2667 -0.9105
   42CHL1  H18A 5542   3.809   6.223   9.364  0.7981 -1.0368  1.8549
   42CHL1  H18B 5543   3.866   6.340   9.491 -2.6266  0.2787 -1.1491
   42CHL1  H18C 5544   3.836   6.395   9.319 -1.5875  0.3407  1.0353
   42CHL1   C12 5545   4.066   6.145   9.401  0.4213  0.5642  0.1161
   42CHL1  H12A 5546   3.990   6.066   9.386 -0.0421  1.4778 -3.2248
   42CHL1  H12B 5547   4.153   6.106   9.343 -0.4233 -0.5662 -0.4319
   42CHL1   C11 5548   4.083   6.153   9.551 -0.4174 -0.3909  0.7155
   42CHL1  H11A 5549   3.978   6.176   9.580 -0.4562  2.8701 -1.4873
   42CHL1  H11B 5550   4.111   6.057   9.601  1.6915  0.8640  2.1331
   42CHL1    C9 5551   4.173   6.268   9.599 -0.4819  0.2576  0.2650
   42CHL1    H9 5552   4.275   6.246   9.559 -0.1167 -1.2553  1.8870
   42CHL1   C10 5553   4.188   6.265   9.756  0.3207  0.1933 -0.4938
   42CHL1   C19 5554   4.047   6.245   9.819 -0.0084 -0.6477  0.0754
   42CHL1  H19A 5555   4.033   6.278   9.924  0.4082  2.0642 -0.6296
   42CHL1  H19B 5556   3.975   6.302   9.757 -0.0254  1.3119  1.7610
   42CHL1  H19C 5557   4.024   6.137   9.816 -1.6606 -0.2945 -2.5792
   42CHL1    C1 5558   4.278   6.149   9.798  0.3134  1.0007  0.5383
   42CHL1   H1A 5559   4.234   6.049   9.775  2.1268 -0.0698  1.4241
   42CHL1   H1B 5560   4.375   6.151   9.744 -0.8134  0.1468 -1.6578
   42CHL1    C2 5561   4.306   6.143   9.952 -0.0234 -0.3118 -0.3967
   42CHL1   H2A 5562   4.379   6.062   9.974 -0.6499 -0.4509  1.3058
   42CHL1   H2B 5563   4.216   6.126  10.015  0.1272  1.3319  0.3289
   42CHL1   C20 5564   3.934   6.219   9.089 -0.1970 -0.3115  0.1941
   42CHL1   H20 5565   3.834   6.261   9.112 -0.3582  0.3424 -1.5490
   42CHL1   C21 5566   3.925   6.069   9.113  0.0499 -0.2255 -0.2770
   42CHL1  H21A 5567   3.868   6.058   9.207  0.3025  1.1990  0.0556
   42CHL1  H21B 5568   4.026   6.022   9.110  0.5655  0.7592 -4.6242
   42CHL1  H21C 5569   3.853   6.012   9.051 -0.0515 -1.5235  0.9843
   42CHL1   C22 5570   3.957   6.250   8.939 -0.6013  0.3686  0.0252
   42CHL1  H22A 5571   3.863   6.219   8.889 -2.0417  1.3732  1.9871
   42CHL1  H22B 5572   3.959   6.359   8.918 -2.3559  0.3956 -0.1542
   42CHL1   C23 5573   4.090   6.193   8.874  0.4172  0.1566  0.1708
   42CHL1  H23A 5574   4.114   6.251   8.783  0.6052 -0.7840 -0.4009
   42CHL1  H23B 5575   4.173   6.211   8.945  1.3532 -1.5703 -0.4129
   42CHL1   C24 5576   4.095   6.046   8.824  0.3335 -0.1794 -0.1543
   42CHL1  H24A 5577   4.196   6.028   8.781  0.8612  0.4493  0.7915
   42CHL1  H24B 5578   4.079   5.973   8.906  1.6312  1.1082  1.2873
   42CHL1   C25 5579   3.998   6.013   8.709 -0.0287 -0.2305 -0.3836
   42CHL1   H25 5580   3.895   6.030   8.749  0.5142  0.3478  0.8173
   42CHL1   C26 5581   4.029   6.086   8.580 -0.0113  0.2978  0.5092
   42CHL1  H26A 5582   4.138   6.079   8.559 -0.1260 -1.4554  0.3478
   42CHL1  H26B 5583   3.965   6.041   8.501  0.0458 -1.3578  1.3825
   42CHL1  H26C 5584   4.016   6.196   8.590  1.6870  0.8107 -1.8682
   42CHL1   C27 5585   4.015   5.868   8.677 -0.6136 -0.2321  0.2925
   42CHL1  H27A 5586   4.090   5.843   8.599  0.0928 -0.3096  0.9804
   42CHL1  H27B 5587   4.048   5.817   8.770  1.9556 -0.2957 -0.5847
   42CHL1  H27C 5588   3.918   5.827   8.642  0.5327 -0.5211 -2.8696
   43CHL1    C3 5589   4.713   6.566   9.988 -0.2853  0.0627  0.7428
   43CHL1    H3 5590   4.689   6.458   9.999  1.7299 -0.5463 -0.2260
   43CHL1    O3 5591   4.716   6.627  10.119 -0.2505 -0.1478 -0.3606
   43CHL1   H3' 5592   4.629   6.610  10.157 -1.1541  1.1365 -1.6950
   43CHL1    C4 5593   4.850   6.579   9.926  0.1242  0.0244 -0.4285
   43CHL1   H4A 5594   4.889   6.682   9.935  0.2454  0.1750 -2.3366
   43CHL1   H4B 5595   4.927   6.524   9.984  0.8338 -1.1065 -2.3377
   43CHL1    C5 5596   4.855   6.537   9.778  0.1921  0.3657 -0.3713
   43CHL1    C6 5597   4.925   6.424   9.744  0.0486 -0.8700 -0.2085
   43CHL1    H6 5598   4.983   6.375   9.824  0.9862  1.3837  0.5880
   43CHL1    C7 5599   4.933   6.379   9.602  0.3271  0.4191  0.7251
   43CHL1   H7A 5600   5.035   6.350   9.570  0.8106 -0.5408  2.9443
   43CHL1   H7B 5601   4.873   6.288   9.580  2.9816 -0.9497 -1.5563
   43CHL1    C8 5602   4.882   6.478   9.496  0.6247 -0.2860 -0.5526
   43CHL1    H8 5603   4.957   6.559   9.483  2.6021 -2.2246 -1.9215
   43CHL1   C14 5604   4.854   6.412   9.363  0.1088 -1.2902  0.2152
   43CHL1   H14 5605   4.774   6.338   9.387 -0.9624  0.4162  2.2548
   43CHL1   C15 5606   4.966   6.330   9.306  0.4893  0.1135 -0.5272
   43CHL1  H15A 5607   5.068   6.372   9.316  0.1221  0.6134  1.7289
   43CHL1  H15B 5608   4.973   6.235   9.363 -0.3315  0.3368 -0.0309
   43CHL1   C16 5609   4.938   6.317   9.150  0.5205  0.0951 -0.5597
   43CHL1  H16A 5610   5.032   6.352   9.103  0.7910 -0.8008 -0.6992
   43CHL1  H16B 5611   4.910   6.213   9.126 -4.6049  1.2388 -0.6318
   43CHL1   C17 5612   4.814   6.407   9.122  0.0201 -0.0162  0.4853
   43CHL1   H17 5613   4.720   6.347   9.115  1.0208 -2.1693  3.3926
   43CHL1   C13 5614   4.804   6.497   9.248 -0.1138 -0.1073  0.2396
   43CHL1   C18 5615   4.899   6.614   9.224 -0.7822 -0.2815 -0.7572
   43CHL1  H18A 5616   4.916   6.668   9.320 -3.2340  0.9217 -0.9051
   43CHL1  H18B 5617   4.994   6.569   9.190 -0.3865  0.0810 -0.1490
   43CHL1  H18C 5618   4.862   6.696   9.158 -2.6514  3.2182  3.9869
   43CHL1   C12 5619   4.661   6.532   9.295  0.5373 -0.1178  0.3823
   43CHL1  H12A 5620   4.615   6.608   9.228  1.2991  0.6671  0.7300
   43CHL1  H12B 5621   4.592   6.447   9.312 -0.6576  0.7608  0.0356
   43CHL1   C11 5622   4.678   6.615   9.425 -0.3762 -0.1163 -0.1563
   43CHL1  H11A 5623   4.724   6.715   9.412 -1.8547  0.4335 -1.3372
   43CHL1  H11B 5624   4.579   6.639   9.469  0.0980  1.7038  0.0001
   43CHL1    C9 5625   4.750   6.534   9.545 -0.5342  0.2237  0.1695
   43CHL1    H9 5626   4.685   6.448   9.569 -1.0072  0.8879  1.3887
   43CHL1   C10 5627   4.760   6.609   9.681  0.0745 -0.7441 -0.1467
   43CHL1   C19 5628   4.807   6.754   9.658  0.4241 -0.0491  0.7265
   43CHL1  H19A 5629   4.899   6.760   9.597  0.0917 -2.1113 -0.0625
   43CHL1  H19B 5630   4.726   6.815   9.612 -1.2416 -0.7944  2.5198
   43CHL1  H19C 5631   4.823   6.811   9.752  0.7688  1.3042 -0.1323
   43CHL1    C1 5632   4.620   6.611   9.743  0.3647 -0.4828 -0.2494
   43CHL1   H1A 5633   4.550   6.680   9.691 -0.1771  1.8462  3.2356
   43CHL1   H1B 5634   4.584   6.507   9.725 -0.3089  0.2100 -3.4172
   43CHL1    C2 5635   4.608   6.637   9.898 -0.3809  0.0453 -0.3849
   43CHL1   H2A 5636   4.508   6.605   9.936  0.0821  0.0785  0.9441
   43CHL1   H2B 5637   4.628   6.745   9.916  1.7366 -0.4024  0.1300
   43CHL1   C20 5638   4.818   6.472   8.984  0.0121  0.4886  0.0958
   43CHL1   H20 5639   4.905   6.540   8.979 -0.6177  1.2322 -2.8961
   43CHL1   C21 5640   4.689   6.554   8.948  0.0767 -0.1956 -0.0171
   43CHL1  H21A 5641   4.704   6.607   8.851  3.1340 -3.6039 -1.6785
   43CHL1  H21B 5642   4.688   6.632   9.027 -0.0638  3.2770 -3.1698
   43CHL1  H21C 5643   4.598   6.492   8.934  0.0062 -0.2140  0.5214
   43CHL1   C22 5644   4.853   6.368   8.873  0.2381  0.3373 -0.2777
   43CHL1  H22A 5645   4.951   6.319   8.894  0.0486 -1.3675 -2.8720
   43CHL1  H22B 5646   4.780   6.284   8.876  1.0964 -0.4068  0.6855
   43CHL1   C23 5647   4.860   6.421   8.730 -0.1015  0.1484 -0.1160
   43CHL1  H23A 5648   4.756   6.454   8.710  0.0623 -0.6643 -2.6563
   43CHL1  H23B 5649   4.932   6.505   8.726 -0.4895  0.5767  1.2838
   43CHL1   C24 5650   4.899   6.313   8.626  0.1437 -0.7372  0.4724
   43CHL1  H24A 5651   5.001   6.282   8.655  0.1734  1.1674  2.6130
   43CHL1  H24B 5652   4.835   6.225   8.649 -1.5108  0.7260  1.7859
   43CHL1   C25 5653   4.870   6.344   8.475 -0.1063  0.1372  0.2283
   43CHL1   H25 5654   4.759   6.355   8.473 -0.1637  0.3721  2.1575
   43CHL1   C26 5655   4.959   6.466   8.432  0.2931  0.0235  0.0964
   43CHL1  H26A 5656   4.968   6.483   8.323 -0.5455  0.6802  0.1156
   43CHL1  H26B 5657   4.921   6.560   8.478  0.9931  1.1077 -1.4744
   43CHL1  H26C 5658   5.054   6.460   8.489 -0.5008 -0.8786  1.4053
   43CHL1   C27 5659   4.909   6.226   8.379  0.0517 -0.3502  0.1659
   43CHL1  H27A 5660   4.883   6.253   8.274 -0.7405 -2.0971 -0.1149
   43CHL1  H27B 5661   5.020   6.220   8.382  0.2193  1.7972 -0.2213
   43CHL1  H27C 5662   4.855   6.140   8.425  0.7695  0.0388  1.8274
   44CHL1    C3 5663   4.828   0.439  10.148  0.1755  0.6436 -0.2908
   44CHL1    H3 5664   4.856   0.547  10.151  2.1344  0.2021 -1.0857
   44CHL1    O3 5665   4.799   0.387  10.282 -0.0538 -0.4388  0.7666
   44CHL1   H3' 5666   4.794   0.292  10.270 -1.0863 -0.1426 -1.9050
   44CHL1    C4 5667   4.700   0.439  10.058 -0.5367 -0.2228 -0.2824
   44CHL1   H4A 5668   4.651   0.342  10.078  0.0478 -0.2919  0.9334
   44CHL1   H4B 5669   4.634   0.526  10.080 -0.9876 -0.5557 -0.3305
   44CHL1    C5 5670   4.720   0.455   9.910 -0.4463 -0.4134 -0.2239
   44CHL1    C6 5671   4.651   0.533   9.828 -0.4144  0.1667 -0.4903
   44CHL1    H6 5672   4.566   0.594   9.863 -0.9239 -1.0389  0.4363
   44CHL1    C7 5673   4.664   0.543   9.679 -0.5237  0.3373 -0.6074
   44CHL1   H7A 5674   4.568   0.540   9.624 -1.2537  0.5790  0.6074
   44CHL1   H7B 5675   4.705   0.644   9.654 -0.5036  0.2556 -0.8999
   44CHL1    C8 5676   4.755   0.432   9.622 -0.2035 -1.2214  0.1045
   44CHL1    H8 5677   4.687   0.345   9.616 -2.5109  0.4288  0.7379
   44CHL1   C14 5678   4.797   0.464   9.478 -0.1880  0.4330  0.2281
   44CHL1   H14 5679   4.860   0.554   9.494 -0.8060  0.4142  3.4744
   44CHL1   C15 5680   4.690   0.496   9.368 -0.1062 -0.0459 -1.0235
   44CHL1  H15A 5681   4.609   0.422   9.355  1.5532 -2.1396 -0.1366
   44CHL1  H15B 5682   4.644   0.597   9.376 -1.5002 -0.8202  1.7168
   44CHL1   C16 5683   4.778   0.499   9.242 -0.3855  0.1628  0.0688
   44CHL1  H16A 5684   4.718   0.466   9.155  1.6150 -0.4363 -1.1504
   44CHL1  H16B 5685   4.801   0.606   9.224 -2.7843  0.7635  0.2655
   44CHL1   C17 5686   4.907   0.421   9.275 -0.8336  0.8066 -0.0733
   44CHL1   H17 5687   4.987   0.497   9.286  0.5747 -0.5311 -0.7897
   44CHL1   C13 5688   4.887   0.364   9.414 -0.1279  0.3862 -0.0695
   44CHL1   C18 5689   4.814   0.232   9.406  0.3399  0.7581 -0.2585
   44CHL1  H18A 5690   4.879   0.149   9.374  0.9318  0.6966  1.0239
   44CHL1  H18B 5691   4.776   0.188   9.501 -3.4060  1.1342 -1.4047
   44CHL1  H18C 5692   4.729   0.228   9.335  0.4042  0.4594 -0.3212
   44CHL1   C12 5693   5.015   0.358   9.504  0.0758 -1.2029 -0.1451
   44CHL1  H12A 5694   5.094   0.290   9.464 -0.3941 -3.2306  2.1705
   44CHL1  H12B 5695   5.059   0.460   9.505  0.0159 -1.1641 -0.7244
   44CHL1   C11 5696   4.977   0.313   9.645  0.3231  0.1025 -0.0572
   44CHL1  H11A 5697   4.939   0.209   9.638  1.8721 -0.5482  0.5734
   44CHL1  H11B 5698   5.077   0.312   9.694  0.4042  1.3383 -0.1664
   44CHL1    C9 5699   4.883   0.409   9.717  0.1705 -0.8732  1.3991
   44CHL1    H9 5700   4.938   0.505   9.729 -1.4902  0.1739  0.8766
   44CHL1   C10 5701   4.845   0.372   9.855 -0.1688  0.2781 -0.2203
   44CHL1   C19 5702   4.812   0.222   9.854 -0.7093  0.0291  0.4671
   44CHL1  H19A 5703   4.784   0.186   9.955  0.5737 -0.6264  0.6059
   44CHL1  H19B 5704   4.737   0.204   9.774  0.2467 -1.5930 -0.1081
   44CHL1  H19C 5705   4.907   0.170   9.833  0.1285  1.5686  0.2756
   44CHL1    C1 5706   4.969   0.388   9.945 -0.2549  0.4082  0.0958
   44CHL1   H1A 5707   5.049   0.317   9.914 -0.5393  0.6466 -1.2232
   44CHL1   H1B 5708   5.014   0.488   9.928 -0.6922  0.8096  1.1888
   44CHL1    C2 5709   4.946   0.362  10.093 -0.2324 -0.4767  0.6317
   44CHL1   H2A 5710   5.036   0.383  10.156 -0.4612  1.5240  0.3503
   44CHL1   H2B 5711   4.935   0.252  10.101  1.8721 -0.7474  0.3435
   44CHL1   C20 5712   4.946   0.328   9.159 -0.2794 -0.5239  0.0919
   44CHL1   H20 5713   4.880   0.239   9.172  1.3090 -1.5712  1.5128
   44CHL1   C21 5714   5.093   0.281   9.171 -0.6893 -0.9058 -0.1739
   44CHL1  H21A 5715   5.158   0.371   9.169  1.1064 -2.1398  0.1602
   44CHL1  H21B 5716   5.125   0.205   9.097 -1.5687  0.2852 -1.8448
   44CHL1  H21C 5717   5.121   0.238   9.270 -1.5831  1.3677  1.1569
   44CHL1   C22 5718   4.930   0.388   9.014  0.3179 -0.6597 -0.4378
   44CHL1  H22A 5719   4.825   0.419   8.995  0.6695  0.8951  0.0210
   44CHL1  H22B 5720   4.987   0.483   9.006  0.0918 -0.1910  2.3930
   44CHL1   C23 5721   4.963   0.300   8.889 -0.0821 -0.0426 -0.2788
   44CHL1  H23A 5722   4.954   0.365   8.799  2.4144  2.3286  1.0305
   44CHL1  H23B 5723   5.069   0.270   8.903 -0.0285  0.0997 -0.3661
   44CHL1   C24 5724   4.888   0.167   8.875  0.5430 -0.5599  0.2292
   44CHL1  H24A 5725   4.899   0.110   8.970 -1.0382  0.0909  0.8261
   44CHL1  H24B 5726   4.781   0.187   8.855  1.0060  0.9701 -0.9329
   44CHL1   C25 5727   4.954   0.085   8.756  0.8987 -0.1744  0.0368
   44CHL1   H25 5728   4.997   0.157   8.682 -0.3233  1.4803  0.8690
   44CHL1   C26 5729   5.065  -0.010   8.808  0.0113 -0.6301  0.3322
   44CHL1  H26A 5730   5.141   0.043   8.870  0.2963  0.9427 -1.2802
   44CHL1  H26B 5731   5.018  -0.089   8.870 -1.3587  0.4238  0.6848
   44CHL1  H26C 5732   5.119  -0.055   8.722 -3.5856 -1.2697 -1.7854
   44CHL1   C27 5733   4.844   0.004   8.683 -0.3014 -0.0110 -0.2814
   44CHL1  H27A 5734   4.781   0.065   8.615  1.3304  2.4442  0.2591
   44CHL1  H27B 5735   4.885  -0.080   8.623 -1.8972 -1.2881  0.3424
   44CHL1  H27C 5736   4.779  -0.037   8.764  0.3897  0.0028  0.2922
   45CHL1    C3 5737   2.281   4.335  10.283  0.1178 -0.2903 -0.6849
   45CHL1    H3 5738   2.223   4.426  10.309 -0.7376 -0.9345 -0.2704
   45CHL1    O3 5739   2.326   4.282  10.399 -0.0853  0.0659 -0.5562
   45CHL1   H3' 5740   2.360   4.348  10.460 -1.2494 -1.2870  1.6899
   45CHL1    C4 5741   2.196   4.246  10.196 -0.2223  0.3193 -0.2334
   45CHL1   H4A 5742   2.265   4.160  10.180  0.4436  0.7293  0.3644
   45CHL1   H4B 5743   2.111   4.192  10.244  1.5936 -0.4065  2.4348
   45CHL1    C5 5744   2.145   4.320  10.076  0.1540  0.2044 -0.6515
   45CHL1    C6 5745   2.013   4.337  10.052  0.6702 -0.1257  0.1633
   45CHL1    H6 5746   1.937   4.305  10.124 -0.3540  0.7950 -0.4863
   45CHL1    C7 5747   1.961   4.406   9.930 -0.1177  1.1510  0.6922
   45CHL1   H7A 5748   1.870   4.350   9.897  1.8361 -2.5059  0.9523
   45CHL1   H7B 5749   1.949   4.513   9.958  1.8825  1.5544  0.1319
   45CHL1    C8 5750   2.064   4.421   9.814 -0.5555  0.8193  0.7488
   45CHL1    H8 5751   2.035   4.507   9.749  0.8412  0.4143 -0.4631
   45CHL1   C14 5752   2.069   4.302   9.719 -0.3030 -0.3173  0.0184
   45CHL1   H14 5753   2.091   4.214   9.782 -1.3872 -0.0097  0.8506
   45CHL1   C15 5754   1.938   4.276   9.639  0.2266  0.0123 -0.0614
   45CHL1  H15A 5755   1.933   4.166   9.625  2.9164  0.0963 -2.6496
   45CHL1  H15B 5756   1.844   4.301   9.691 -0.8325  0.6067 -2.1239
   45CHL1   C16 5757   1.944   4.358   9.511  0.4165 -0.0326 -0.2471
   45CHL1  H16A 5758   1.911   4.290   9.430 -0.4504  0.5788 -0.4164
   45CHL1  H16B 5759   1.884   4.451   9.515 -0.3546 -0.5558  2.6196
   45CHL1   C17 5760   2.094   4.401   9.503  0.4350 -0.3289 -0.3766
   45CHL1   H17 5761   2.104   4.508   9.532  0.4138 -0.8791  1.8522
   45CHL1   C13 5762   2.175   4.324   9.607  0.0390 -0.4727  0.3225
   45CHL1   C18 5763   2.202   4.182   9.549 -0.3013 -0.1468  0.4973
   45CHL1  H18A 5764   2.239   4.117   9.631 -0.4193 -0.5935  0.1994
   45CHL1  H18B 5765   2.116   4.138   9.493  0.9053 -2.2025  0.1714
   45CHL1  H18C 5766   2.290   4.174   9.482 -0.6279 -2.3451  0.2362
   45CHL1   C12 5767   2.308   4.385   9.646 -0.7583 -0.0019 -0.4000
   45CHL1  H12A 5768   2.378   4.304   9.677 -1.3025  0.3645  2.0638
   45CHL1  H12B 5769   2.353   4.431   9.556 -0.9004  1.0999  0.0841
   45CHL1   C11 5770   2.298   4.494   9.749  0.5207 -1.2398 -0.1974
   45CHL1  H11A 5771   2.400   4.514   9.787  1.1462 -2.5741 -1.1175
   45CHL1  H11B 5772   2.256   4.587   9.704  1.7937 -0.8806 -0.6770
   45CHL1    C9 5773   2.204   4.457   9.870 -0.1873  0.2365 -0.3964
   45CHL1    H9 5774   2.193   4.547   9.933  0.7246 -0.0884  0.2525
   45CHL1   C10 5775   2.263   4.367   9.986 -0.0965  0.1159 -0.1218
   45CHL1   C19 5776   2.353   4.250   9.934 -0.5293  0.2451 -0.3755
   45CHL1  H19A 5777   2.392   4.178  10.009  0.5056  0.5531 -0.5991
   45CHL1  H19B 5778   2.294   4.190   9.862  2.4223  0.3740 -3.1461
   45CHL1  H19C 5779   2.443   4.296   9.886 -0.0072  1.4353  1.6231
   45CHL1    C1 5780   2.358   4.451  10.074  0.8511 -0.2243 -0.4079
   45CHL1   H1A 5781   2.450   4.482  10.020  0.5370  2.0382  0.2755
   45CHL1   H1B 5782   2.306   4.544  10.105  3.1378  0.3045  2.1992
   45CHL1    C2 5783   2.402   4.381  10.202 -0.3787  0.3398 -0.0026
   45CHL1   H2A 5784   2.456   4.458  10.262  0.4829 -0.5764  0.4217
   45CHL1   H2B 5785   2.467   4.292  10.194 -0.2369  0.2992  1.4262
   45CHL1   C20 5786   2.160   4.404   9.358  0.2969 -0.2185 -0.3107
   45CHL1   H20 5787   2.243   4.330   9.361  1.0723  0.6497  2.2427
   45CHL1   C21 5788   2.219   4.543   9.345  0.8578 -0.6869  0.1236
   45CHL1  H21A 5789   2.301   4.557   9.418  1.8256  0.6116 -1.1808
   45CHL1  H21B 5790   2.140   4.621   9.348  2.3716  1.0039 -2.0110
   45CHL1  H21C 5791   2.272   4.562   9.249 -0.7769  1.9247 -0.3649
   45CHL1   C22 5792   2.065   4.378   9.234 -0.0555  0.2039  0.0364
   45CHL1  H22A 5793   2.025   4.276   9.254  0.6140 -0.5626 -2.2558
   45CHL1  H22B 5794   1.979   4.447   9.235 -0.9015 -0.8304 -0.0014
   45CHL1   C23 5795   2.130   4.371   9.097 -0.1324 -0.2286 -0.0545
   45CHL1  H23A 5796   2.178   4.470   9.085  2.6497 -1.2344  1.6718
   45CHL1  H23B 5797   2.210   4.294   9.093 -0.2955 -0.3611 -1.3843
   45CHL1   C24 5798   2.027   4.339   8.985 -0.3381  0.5300 -0.5578
   45CHL1  H24A 5799   2.099   4.329   8.901 -0.7753 -0.7199 -0.7999
   45CHL1  H24B 5800   1.977   4.242   9.005  1.7787 -0.6758 -0.8911
   45CHL1   C25 5801   1.920   4.448   8.946  0.1450  0.9379 -0.4575
   45CHL1   H25 5802   1.858   4.470   9.035 -0.9828  1.8894 -1.4438
   45CHL1   C26 5803   1.985   4.581   8.907 -0.4098 -0.4335  0.4455
   45CHL1  H26A 5804   2.038   4.622   8.995  0.3320 -0.4192  0.0004
   45CHL1  H26B 5805   2.066   4.564   8.833 -1.2926 -2.7795 -0.0770
   45CHL1  H26C 5806   1.913   4.658   8.871 -0.3438 -0.2878  0.6259
   45CHL1   C27 5807   1.844   4.388   8.825 -0.6836  0.2249  0.0372
   45CHL1  H27A 5808   1.761   4.457   8.800 -0.6595 -0.5346 -2.3476
   45CHL1  H27B 5809   1.911   4.388   8.736 -0.4388  0.8802  0.2123
   45CHL1  H27C 5810   1.798   4.289   8.846 -0.2451  0.2380  1.1682
   46CHL1    C3 5811   4.526   3.466  10.036 -0.0653 -0.0233  0.3012
   46CHL1    H3 5812   4.600   3.527   9.980 -1.6290  0.9897 -0.7336
   46CHL1    O3 5813   4.558   3.459  10.176  0.0084  0.2894 -0.4882
   46CHL1   H3' 5814   4.544   3.368  10.202 -0.1396  0.7034  0.9505
   46CHL1    C4 5815   4.395   3.539  10.025 -0.0291 -0.1356  0.1596
   46CHL1   H4A 5816   4.314   3.482  10.076 -0.5398 -0.2231 -0.7391
   46CHL1   H4B 5817   4.401   3.637  10.079 -0.4041 -0.5114  0.9030
   46CHL1    C5 5818   4.367   3.546   9.875 -0.8430  0.5394 -0.3800
   46CHL1    C6 5819   4.342   3.658   9.811  0.4875 -0.8238 -0.1404
   46CHL1    H6 5820   4.335   3.749   9.872 -0.8770 -0.2660 -1.0935
   46CHL1    C7 5821   4.306   3.678   9.668 -0.3255 -0.1999 -0.3816
   46CHL1   H7A 5822   4.224   3.752   9.658  0.6903  1.0926  0.5424
   46CHL1   H7B 5823   4.399   3.720   9.627 -1.0432  1.8886  0.0292
   46CHL1    C8 5824   4.271   3.544   9.606 -0.1641 -0.4566  0.4899
   46CHL1    H8 5825   4.169   3.505   9.628 -0.4813 -1.5593 -2.4893
   46CHL1   C14 5826   4.302   3.560   9.459  0.3398 -0.7846 -0.0364
   46CHL1   H14 5827   4.413   3.562   9.455  0.3096 -0.9675 -1.4029
   46CHL1   C15 5828   4.265   3.694   9.380  0.0677 -0.3013  0.3343
   46CHL1  H15A 5829   4.167   3.724   9.423  0.1338 -1.9245  1.7426
   46CHL1  H15B 5830   4.341   3.770   9.405  1.2040 -1.7678  1.5217
   46CHL1   C16 5831   4.261   3.647   9.229  0.7214 -0.3435 -0.0396
   46CHL1  H16A 5832   4.156   3.640   9.193 -0.5234 -0.4194  3.2294
   46CHL1  H16B 5833   4.331   3.705   9.166 -1.2171  0.9639 -1.0687
   46CHL1   C17 5834   4.301   3.496   9.233  0.0633  0.1444  0.0858
   46CHL1   H17 5835   4.412   3.493   9.229  0.1778  1.8792  1.0983
   46CHL1   C13 5836   4.263   3.443   9.378  0.5929 -0.5832  0.3303
   46CHL1   C18 5837   4.105   3.419   9.396  0.3900 -0.2883  0.2465
   46CHL1  H18A 5838   4.045   3.508   9.368 -1.2267 -1.7018 -1.0246
   46CHL1  H18B 5839   4.069   3.339   9.327  0.1966  0.0667 -0.0709
   46CHL1  H18C 5840   4.071   3.392   9.498  0.6591  1.9407  0.9737
   46CHL1   C12 5841   4.345   3.321   9.422  0.3036 -0.2902 -0.0324
   46CHL1  H12A 5842   4.305   3.238   9.360  2.1705 -0.6778 -0.7843
   46CHL1  H12B 5843   4.451   3.338   9.393 -0.1454 -0.4164 -1.8484
   46CHL1   C11 5844   4.326   3.298   9.573 -0.2058 -0.4407  0.7389
   46CHL1  H11A 5845   4.220   3.264   9.577 -0.2684 -0.7383 -1.7357
   46CHL1  H11B 5846   4.387   3.210   9.604  1.6192  0.6577  0.4228
   46CHL1    C9 5847   4.361   3.423   9.653  0.7179 -0.1568 -0.2613
   46CHL1    H9 5848   4.464   3.447   9.620  0.9885  1.9437  1.8618
   46CHL1   C10 5849   4.370   3.404   9.804  0.5087 -0.4563  0.3434
   46CHL1   C19 5850   4.240   3.331   9.848  0.1894 -0.3901 -0.5140
   46CHL1  H19A 5851   4.246   3.311   9.957  3.4283  1.7934 -0.1539
   46CHL1  H19B 5852   4.147   3.389   9.833 -0.7915 -1.6407  0.4723
   46CHL1  H19C 5853   4.228   3.231   9.800 -0.8687  0.7871 -2.8800
   46CHL1    C1 5854   4.495   3.319   9.831 -0.4864 -0.3130  0.0167
   46CHL1   H1A 5855   4.483   3.212   9.804  0.4700  0.4277 -4.0126
   46CHL1   H1B 5856   4.587   3.352   9.778  0.3554  0.3736  1.8338
   46CHL1    C2 5857   4.522   3.324   9.981 -1.1180  0.8359  0.1638
   46CHL1   H2A 5858   4.619   3.274  10.005 -0.8715  0.9286 -0.6220
   46CHL1   H2B 5859   4.450   3.256  10.032 -0.4646 -2.3505 -2.7759
   46CHL1   C20 5860   4.245   3.422   9.109 -0.0813 -1.0591  0.0147
   46CHL1   H20 5861   4.135   3.426   9.121 -0.2029  1.9380 -1.1433
   46CHL1   C21 5862   4.294   3.282   9.103  0.2675  0.0287 -0.0037
   46CHL1  H21A 5863   4.404   3.272   9.117  0.1275 -1.3457  0.2696
   46CHL1  H21B 5864   4.281   3.238   9.001  2.8483 -2.9957  0.8030
   46CHL1  H21C 5865   4.235   3.203   9.155  1.5392 -1.6341 -0.9520
   46CHL1   C22 5866   4.270   3.503   8.975 -0.5616 -0.5469 -0.1190
   46CHL1  H22A 5867   4.212   3.466   8.888  0.1001  0.1178 -0.8546
   46CHL1  H22B 5868   4.240   3.610   8.978 -0.4811 -0.5255  2.6366
   46CHL1   C23 5869   4.416   3.503   8.934  0.2021 -0.3912 -0.5261
   46CHL1  H23A 5870   4.478   3.544   9.017  2.0858 -2.8216 -0.6126
   46CHL1  H23B 5871   4.460   3.402   8.920  0.5446 -0.8749  3.0336
   46CHL1   C24 5872   4.446   3.588   8.803 -0.6477  0.6074 -0.2407
   46CHL1  H24A 5873   4.431   3.697   8.821  0.8852  0.5747  1.5046
   46CHL1  H24B 5874   4.553   3.563   8.789 -1.0733 -3.6195  2.4527
   46CHL1   C25 5875   4.370   3.550   8.676  0.7900  0.7617 -0.1021
   46CHL1   H25 5876   4.261   3.534   8.691  0.3903  2.0339 -1.4729
   46CHL1   C26 5877   4.388   3.657   8.575 -0.1670  0.6569  0.3862
   46CHL1  H26A 5878   4.350   3.752   8.618  0.4354  0.5543  1.1843
   46CHL1  H26B 5879   4.496   3.665   8.549 -0.4238 -1.1708 -1.5087
   46CHL1  H26C 5880   4.334   3.635   8.480 -1.3506  1.3761  0.8706
   46CHL1   C27 5881   4.415   3.415   8.616  0.0824 -0.3175  0.2352
   46CHL1  H27A 5882   4.525   3.421   8.599 -0.2522 -0.8875 -2.7976
   46CHL1  H27B 5883   4.381   3.340   8.691 -0.2545  0.7845  1.2024
   46CHL1  H27C 5884   4.368   3.393   8.518  1.3433 -0.3679 -0.3774
   47CHL1    C3 5885   5.306   6.729  10.119  0.1596 -0.9214 -0.0825
   47CHL1    H3 5886   5.390   6.655  10.114  0.1757 -0.9808  0.8555
   47CHL1    O3 5887   5.272   6.752  10.251  0.4726 -0.1611  0.0769
   47CHL1   H3' 5888   5.210   6.826  10.250  0.7789  0.1135 -1.8232
   47CHL1    C4 5889   5.327   6.863  10.055 -0.2088  0.6298  0.3059
   47CHL1   H4A 5890   5.232   6.919  10.070 -0.9083 -0.4512  0.0691
   47CHL1   H4B 5891   5.406   6.921  10.107 -2.5262  1.8924  2.6640
   47CHL1    C5 5892   5.361   6.842   9.910 -0.3252  0.0565  0.6311
   47CHL1    C6 5893   5.477   6.886   9.860 -0.3619  0.0569  0.3471
   47CHL1    H6 5894   5.555   6.939   9.918  0.9265 -1.2894 -0.0928
   47CHL1    C7 5895   5.532   6.877   9.716  0.2095  0.5181 -0.4507
   47CHL1   H7A 5896   5.574   6.975   9.687  1.2338 -0.1614 -1.3239
   47CHL1   H7B 5897   5.613   6.802   9.702  0.2353  0.2722  0.8513
   47CHL1    C8 5898   5.407   6.834   9.634  0.2118 -0.5828  0.2646
   47CHL1    H8 5899   5.346   6.926   9.627 -0.5606 -1.1676 -0.9672
   47CHL1   C14 5900   5.457   6.789   9.498  0.6097  0.8620  0.0661
   47CHL1   H14 5901   5.528   6.706   9.519  1.5500  1.3511 -1.0599
   47CHL1   C15 5902   5.541   6.890   9.423  0.2841  0.1717  0.5616
   47CHL1  H15A 5903   5.480   6.983   9.417  0.9422  0.7073  1.7708
   47CHL1  H15B 5904   5.630   6.933   9.474  1.1126 -1.4803  0.5549
   47CHL1   C16 5905   5.550   6.820   9.288  0.0428  0.0575  0.4278
   47CHL1  H16A 5906   5.546   6.889   9.201 -1.8139  0.1306  0.5350
   47CHL1  H16B 5907   5.649   6.771   9.281 -0.1030 -0.1651 -0.1880
   47CHL1   C17 5908   5.441   6.713   9.275 -1.0118 -0.1768 -0.1807
   47CHL1   H17 5909   5.484   6.611   9.279  0.3610  0.3095 -1.6201
   47CHL1   C13 5910   5.352   6.729   9.398  0.0700 -0.3384  0.4857
   47CHL1   C18 5911   5.242   6.832   9.363 -0.0956 -0.2850  0.6048
   47CHL1  H18A 5912   5.292   6.917   9.311  0.3485 -1.3531 -0.7713
   47CHL1  H18B 5913   5.151   6.789   9.316 -1.9061  2.3544  1.4380
   47CHL1  H18C 5914   5.210   6.890   9.452 -2.9900 -2.0516  0.8404
   47CHL1   C12 5915   5.289   6.611   9.459 -0.6779  0.6047  0.7787
   47CHL1  H12A 5916   5.207   6.571   9.395  1.5717  0.8427 -2.4847
   47CHL1  H12B 5917   5.373   6.539   9.470 -0.6604  0.3783 -0.6267
   47CHL1   C11 5918   5.227   6.651   9.600  0.5355  0.1256  1.2721
   47CHL1  H11A 5919   5.146   6.723   9.578  1.3414 -0.1313 -3.7304
   47CHL1  H11B 5920   5.191   6.557   9.647  1.9402 -2.0794 -1.6689
   47CHL1    C9 5921   5.322   6.721   9.696  0.0613 -0.0277  0.1695
   47CHL1    H9 5922   5.401   6.650   9.728  1.9662  2.1511  0.5240
   47CHL1   C10 5923   5.261   6.762   9.829  1.1900 -0.2695 -0.0765
   47CHL1   C19 5924   5.147   6.863   9.801  0.0034 -0.4183  0.2370
   47CHL1  H19A 5925   5.062   6.818   9.746 -1.7240 -0.7410  2.9807
   47CHL1  H19B 5926   5.103   6.892   9.899  2.4749  2.4660  0.6703
   47CHL1  H19C 5927   5.176   6.955   9.745  0.0924 -0.2633  0.5359
   47CHL1    C1 5928   5.212   6.633   9.909  0.2186  0.2806 -0.1264
   47CHL1   H1A 5929   5.121   6.590   9.864  1.3581  0.2028 -2.4868
   47CHL1   H1B 5930   5.282   6.549   9.886  0.1315  0.4526 -1.0631
   47CHL1    C2 5931   5.187   6.660  10.052 -0.2296  0.7664  0.1080
   47CHL1   H2A 5932   5.161   6.571  10.112  4.1298 -2.1469 -1.8315
   47CHL1   H2B 5933   5.096   6.722  10.068 -1.2579 -0.5273 -0.5139
   47CHL1   C20 5934   5.388   6.714   9.123 -1.0527 -0.6838 -0.0743
   47CHL1   H20 5935   5.344   6.812   9.093 -0.6595 -0.3454  0.4477
   47CHL1   C21 5936   5.275   6.605   9.116  0.1668  0.1198  0.3178
   47CHL1  H21A 5937   5.314   6.503   9.138  1.1069  0.4382  0.1957
   47CHL1  H21B 5938   5.234   6.591   9.013 -2.5618  0.4329  1.2926
   47CHL1  H21C 5939   5.193   6.629   9.187  0.1312  0.0695  0.2939
   47CHL1   C22 5940   5.494   6.688   9.020  0.0928  0.3348  0.4487
   47CHL1  H22A 5941   5.594   6.732   9.039  1.3546 -1.8746 -0.6141
   47CHL1  H22B 5942   5.510   6.580   9.041 -1.2521  0.3731  1.8769
   47CHL1   C23 5943   5.460   6.714   8.872  0.3948 -0.0005 -0.4194
   47CHL1  H23A 5944   5.365   6.662   8.846  0.0700  0.0281  0.6749
   47CHL1  H23B 5945   5.435   6.822   8.874 -0.0935 -0.1088 -0.5288
   47CHL1   C24 5946   5.582   6.704   8.786  0.5400  0.0370  0.3913
   47CHL1  H24A 5947   5.546   6.742   8.688  0.4508 -1.1352 -0.0485
   47CHL1  H24B 5948   5.667   6.771   8.811 -0.2082  2.0223 -1.9639
   47CHL1   C25 5949   5.634   6.560   8.757 -0.6515 -0.0540  0.0094
   47CHL1   H25 5950   5.666   6.526   8.858 -1.3671 -1.4824 -0.2085
   47CHL1   C26 5951   5.523   6.471   8.695  0.5054  0.5296  0.2072
   47CHL1  H26A 5952   5.438   6.440   8.759  0.6530 -1.5292 -0.5137
   47CHL1  H26B 5953   5.570   6.381   8.650 -1.0247 -0.2249  0.0664
   47CHL1  H26C 5954   5.485   6.524   8.605 -0.3697 -2.3349 -1.2204
   47CHL1   C27 5955   5.755   6.557   8.668 -0.7047 -0.5545 -0.3559
   47CHL1  H27A 5956   5.760   6.452   8.634 -3.0456 -0.5532 -0.9177
   47CHL1  H27B 5957   5.735   6.620   8.578  1.3755  1.6306  0.6159
   47CHL1  H27C 5958   5.837   6.607   8.724 -0.8496 -0.3160 -0.3543
   48CHL1    C3 5959   5.967   6.105  10.130  0.4591  0.2694  0.1846
   48CHL1    H3 5960   5.927   6.208  10.117  0.9746  0.1369 -3.7466
   48CHL1    O3 5961   5.928   6.049  10.253 -0.0260 -0.5124  0.5310
   48CHL1   H3' 5962   5.995   5.982  10.271 -0.8578 -1.3196  0.7263
   48CHL1    C4 5963   5.922   6.017  10.015  0.5852 -0.1737 -0.0785
   48CHL1   H4A 5964   5.953   5.912  10.032 -0.3755 -0.6082 -0.9024
   48CHL1   H4B 5965   5.811   6.017  10.025  0.3759  3.2560 -1.1240
   48CHL1    C5 5966   5.970   6.070   9.881  0.4006 -0.3387  0.1902
   48CHL1    C6 5967   5.880   6.085   9.781  0.4321  0.2539 -0.0110
   48CHL1    H6 5968   5.774   6.055   9.787 -0.1954  2.4503  0.8348
   48CHL1    C7 5969   5.915   6.144   9.647  0.1721  0.1511 -0.3812
   48CHL1   H7A 5970   5.849   6.088   9.577 -0.7625 -0.1934  0.7321
   48CHL1   H7B 5971   5.881   6.249   9.634  1.1331  0.4579 -0.4598
   48CHL1    C8 5972   6.069   6.143   9.630  0.2066 -0.0958 -0.7807
   48CHL1    H8 5973   6.104   6.038   9.625  0.9706 -0.0180  1.8750
   48CHL1   C14 5974   6.105   6.221   9.508 -0.1073 -1.0419 -0.4280
   48CHL1   H14 5975   6.074   6.325   9.531 -1.2190 -1.1569 -1.3300
   48CHL1   C15 5976   6.034   6.192   9.373 -0.3899 -0.0909 -0.7425
   48CHL1  H15A 5977   6.046   6.082   9.365  1.9189  0.1497 -1.3761
   48CHL1  H15B 5978   5.925   6.215   9.376 -0.1185  1.4126 -1.2513
   48CHL1   C16 5979   6.114   6.267   9.273  0.2809  0.1179  0.1288
   48CHL1  H16A 5980   6.138   6.189   9.197  2.8483 -0.7142  1.6799
   48CHL1  H16B 5981   6.064   6.353   9.224  0.2788  3.1094  4.7439
   48CHL1   C17 5982   6.251   6.305   9.343 -0.3044 -0.1116 -0.3309
   48CHL1   H17 5983   6.235   6.411   9.372 -1.8574 -0.5245  0.4197
   48CHL1   C13 5984   6.253   6.223   9.478  0.2599  0.0560  0.1402
   48CHL1   C18 5985   6.308   6.093   9.451 -0.5987  0.8917  1.0986
   48CHL1  H18A 5986   6.260   6.035   9.369  2.2111 -0.5190  0.3300
   48CHL1  H18B 5987   6.417   6.104   9.433 -0.7575  1.3016  0.3567
   48CHL1  H18C 5988   6.309   6.029   9.542  2.3026 -1.3812 -0.3540
   48CHL1   C12 5989   6.328   6.295   9.592  0.2589 -0.2156  0.1768
   48CHL1  H12A 5990   6.436   6.276   9.580  0.2125 -0.0456 -0.5712
   48CHL1  H12B 5991   6.304   6.404   9.591  1.0783 -0.0199  0.9918
   48CHL1   C11 5992   6.301   6.246   9.732  0.1276  0.3527 -0.2455
   48CHL1  H11A 5993   6.352   6.150   9.755 -3.4630 -1.0182  2.9936
   48CHL1  H11B 5994   6.335   6.310   9.817 -0.1258 -1.4638  1.2812
   48CHL1    C9 5995   6.149   6.208   9.742  0.1640 -0.5252 -0.9440
   48CHL1    H9 5996   6.101   6.305   9.765  3.2660  1.3435 -1.7114
   48CHL1   C10 5997   6.119   6.121   9.872 -0.2603  0.0924 -0.1996
   48CHL1   C19 5998   6.198   5.989   9.870 -0.2822  0.5635 -0.3595
   48CHL1  H19A 5999   6.306   6.007   9.894 -0.8923  0.7792  2.6693
   48CHL1  H19B 6000   6.158   5.919   9.947  1.5830 -1.7968 -1.4006
   48CHL1  H19C 6001   6.187   5.936   9.773 -4.4768 -0.3586  0.4512
   48CHL1    C1 6002   6.151   6.199  10.000  0.0710  0.3219  0.2074
   48CHL1   H1A 6003   6.261   6.220  10.005  0.1538 -0.1754  0.5609
   48CHL1   H1B 6004   6.106   6.300   9.988  0.2966  0.1864 -2.1741
   48CHL1    C2 6005   6.112   6.132  10.137  0.5697 -0.8812  0.5285
   48CHL1   H2A 6006   6.143   6.195  10.223 -1.2795 -0.3836  0.8766
   48CHL1   H2B 6007   6.159   6.031  10.137 -0.8534 -1.5611 -0.1795
   48CHL1   C20 6008   6.370   6.293   9.241 -0.2013 -0.0714 -0.2010
   48CHL1   H20 6009   6.372   6.187   9.209 -2.1370  0.1963 -1.3956
   48CHL1   C21 6010   6.508   6.325   9.308  0.0319  0.6082  0.1029
   48CHL1  H21A 6011   6.524   6.260   9.397  0.8220  0.8271  0.1370
   48CHL1  H21B 6012   6.510   6.432   9.339  1.1566  0.5592  0.2613
   48CHL1  H21C 6013   6.596   6.317   9.240  0.1179  0.5609  0.2186
   48CHL1   C22 6014   6.341   6.385   9.117  0.1670 -0.0194  0.3242
   48CHL1  H22A 6015   6.242   6.367   9.070  0.3019 -2.0951  0.7145
   48CHL1  H22B 6016   6.337   6.489   9.155  1.2875 -0.2791  1.2432
   48CHL1   C23 6017   6.458   6.374   9.012  0.3540 -0.6396 -0.0976
   48CHL1  H23A 6018   6.536   6.446   9.044 -0.2669  0.3624 -0.7850
   48CHL1  H23B 6019   6.505   6.273   9.013  2.8319  0.3629 -2.8075
   48CHL1   C24 6020   6.398   6.414   8.878 -0.5221  0.7249 -0.4214
   48CHL1  H24A 6021   6.324   6.336   8.849  1.1382 -0.5247 -1.4526
   48CHL1  H24B 6022   6.361   6.519   8.881  0.8631  1.2216  1.6867
   48CHL1   C25 6023   6.495   6.412   8.753  0.5032 -0.6396 -0.7456
   48CHL1   H25 6024   6.431   6.434   8.665 -1.5965  0.3739  0.9303
   48CHL1   C26 6025   6.602   6.524   8.765  0.7191  0.7042  0.2966
   48CHL1  H26A 6026   6.678   6.520   8.685 -1.8168  2.5978 -2.4088
   48CHL1  H26B 6027   6.559   6.624   8.785  1.9083  1.1974  0.4640
   48CHL1  H26C 6028   6.661   6.490   8.853  0.1906 -2.4302 -0.4410
   48CHL1   C27 6029   6.569   6.279   8.744 -0.2608 -0.3212  0.6690
   48CHL1  H27A 6030   6.494   6.197   8.735 -0.5298  0.1686 -2.6054
   48CHL1  H27B 6031   6.642   6.269   8.661 -0.9512  1.2919 -0.1608
   48CHL1  H27C 6032   6.636   6.255   8.830  1.8026  3.1899  0.2549
   49CHL1    C3 6033   4.804   2.687  10.134 -0.6818 -0.6939 -0.6358
   49CHL1    H3 6034   4.843   2.599  10.076 -2.4460 -1.2136 -1.1036
   49CHL1    O3 6035   4.807   2.658  10.274 -0.1971  0.5552  0.2001
   49CHL1   H3' 6036   4.739   2.592  10.289  0.4748 -0.3327 -0.5277
   49CHL1    C4 6037   4.891   2.811  10.105 -0.6215 -0.3365  0.2892
   49CHL1   H4A 6038   4.856   2.898  10.165 -0.3563 -0.0766  0.0695
   49CHL1   H4B 6039   4.994   2.784  10.134 -1.4739 -3.7408  0.6257
   49CHL1    C5 6040   4.880   2.840   9.956  0.0363  0.0457 -0.4636
   49CHL1    C6 6041   4.991   2.846   9.877  0.7405  0.6936  0.5099
   49CHL1    H6 6042   5.089   2.828   9.923  0.7020  2.8196  1.5741
   49CHL1    C7 6043   4.977   2.862   9.728 -0.1619 -0.5080  0.1428
   49CHL1   H7A 6044   5.057   2.922   9.680  0.5306 -3.1943 -2.3085
   49CHL1   H7B 6045   4.994   2.763   9.680 -2.9247 -0.0704 -2.0090
   49CHL1    C8 6046   4.843   2.930   9.680  0.2207 -0.9728 -0.8500
   49CHL1    H8 6047   4.845   3.037   9.712 -0.8219 -0.7862 -1.3746
   49CHL1   C14 6048   4.835   2.916   9.529 -0.0127  0.7634 -0.0206
   49CHL1   H14 6049   4.835   2.805   9.528 -0.5363  0.6860  2.2972
   49CHL1   C15 6050   4.941   2.966   9.438  0.7233 -0.0050 -0.3497
   49CHL1  H15A 6051   4.945   3.076   9.449 -0.4550 -0.2207  5.4686
   49CHL1  H15B 6052   5.043   2.923   9.448  0.4448 -0.2583  1.9149
   49CHL1   C16 6053   4.886   2.937   9.295  0.7435  0.2525  0.8063
   49CHL1  H16A 6054   4.891   3.030   9.235 -3.1287  1.4520  2.0259
   49CHL1  H16B 6055   4.949   2.859   9.247 -1.4783 -0.0042 -1.9301
   49CHL1   C17 6056   4.740   2.893   9.319  0.0336 -0.6238  0.2413
   49CHL1   H17 6057   4.731   2.782   9.325 -1.6679 -0.6908 -2.0041
   49CHL1   C13 6058   4.700   2.947   9.460 -0.2273  0.0644  0.0783
   49CHL1   C18 6059   4.682   3.106   9.458  0.4338 -0.5929 -0.6012
   49CHL1  H18A 6060   4.576   3.135   9.442 -0.1050 -1.7005  0.8189
   49CHL1  H18B 6061   4.706   3.149   9.557  0.7237  0.3459 -1.0641
   49CHL1  H18C 6062   4.737   3.159   9.377 -0.3977 -0.8183 -1.3289
   49CHL1   C12 6063   4.590   2.865   9.531  0.0369 -0.3124  0.1782
   49CHL1  H12A 6064   4.492   2.895   9.488  0.7994  1.3913 -0.4809
   49CHL1  H12B 6065   4.608   2.755   9.529 -2.1861 -0.7202  0.0937
   49CHL1   C11 6066   4.592   2.893   9.682  0.4917 -0.1271  0.2134
   49CHL1  H11A 6067   4.572   3.002   9.688 -0.9352 -0.4394  2.5036
   49CHL1  H11B 6068   4.505   2.853   9.739  0.0622  1.2235  0.5447
   49CHL1    C9 6069   4.723   2.860   9.749  0.0677  0.1442 -1.4025
   49CHL1    H9 6070   4.733   2.755   9.714 -1.6128  0.6715 -3.7648
   49CHL1   C10 6071   4.730   2.854   9.905  0.1052  0.4033 -0.3094
   49CHL1   C19 6072   4.673   2.988   9.959  0.2095 -0.0805 -0.2965
   49CHL1  H19A 6073   4.680   3.010  10.068  0.7937  0.8495 -0.5070
   49CHL1  H19B 6074   4.730   3.074   9.917  0.7006  0.5771  1.6182
   49CHL1  H19C 6075   4.565   2.994   9.933 -0.3503 -0.7582  1.6998
   49CHL1    C1 6076   4.625   2.748   9.955 -0.4084  0.3678 -0.7135
   49CHL1   H1A 6077   4.518   2.775   9.946 -0.5206 -0.1348 -0.9251
   49CHL1   H1B 6078   4.651   2.657   9.895 -1.5839 -0.3241 -0.1923
   49CHL1    C2 6079   4.656   2.702  10.099  0.3463 -0.2920 -0.5433
   49CHL1   H2A 6080   4.609   2.602  10.113  0.7171 -1.0643 -3.9634
   49CHL1   H2B 6081   4.610   2.772  10.172  0.6658  0.9860 -1.5397
   49CHL1   C20 6082   4.658   2.933   9.189 -0.2034 -0.1913 -0.3608
   49CHL1   H20 6083   4.674   3.041   9.165  1.4399 -1.0404 -3.6438
   49CHL1   C21 6084   4.504   2.918   9.218  0.5563  0.4581  0.2200
   49CHL1  H21A 6085   4.488   2.814   9.253  0.2025  0.0895 -0.9944
   49CHL1  H21B 6086   4.445   2.934   9.125  0.9732  1.1460  0.0629
   49CHL1  H21C 6087   4.467   2.988   9.296 -0.1489 -0.9992  1.2319
   49CHL1   C22 6088   4.704   2.843   9.074 -0.3854 -0.1593 -0.0510
   49CHL1  H22A 6089   4.815   2.836   9.073 -0.2341  0.2105  3.1919
   49CHL1  H22B 6090   4.681   2.741   9.111 -1.0430  0.8778  2.6479
   49CHL1   C23 6091   4.652   2.862   8.930  0.2403  0.6849  0.0715
   49CHL1  H23A 6092   4.679   2.781   8.859  0.0081 -0.9702  1.7903
   49CHL1  H23B 6093   4.541   2.867   8.929  0.2183  0.3070 -1.6021
   49CHL1   C24 6094   4.696   3.000   8.881  0.3847  0.4588  0.3278
   49CHL1  H24A 6095   4.654   3.077   8.949  0.1986  0.7050 -0.0650
   49CHL1  H24B 6096   4.807   2.996   8.889  0.4157 -0.7697 -0.3801
   49CHL1   C25 6097   4.665   3.042   8.740  0.2049 -0.3800 -0.3738
   49CHL1   H25 6098   4.698   2.961   8.672  1.2927 -1.7439  1.6704
   49CHL1   C26 6099   4.522   3.076   8.726  0.1608 -0.0257  0.0756
   49CHL1  H26A 6100   4.448   2.996   8.748 -0.0817 -0.1869 -1.2306
   49CHL1  H26B 6101   4.491   3.161   8.792  3.1893  2.5621 -1.5783
   49CHL1  H26C 6102   4.500   3.102   8.620 -0.1115 -1.4304 -0.2242
   49CHL1   C27 6103   4.745   3.165   8.693 -0.3886 -0.4881 -0.0383
   49CHL1  H27A 6104   4.713   3.188   8.590 -0.3514 -2.3309 -0.5080
   49CHL1  H27B 6105   4.728   3.258   8.750  0.2436 -0.9485  0.9362
   49CHL1  H27C 6106   4.854   3.145   8.686  0.7616  3.8887  2.1588
   50CHL1    C3 6107   1.041   4.553   9.951  0.0874  0.1139  0.4893
   50CHL1    H3 6108   0.939   4.539   9.910 -0.7661  1.6838  1.9413
   50CHL1    O3 6109   1.019   4.598  10.082  0.4282 -0.4011  0.2379
   50CHL1   H3' 6110   1.109   4.603  10.117  0.4226  0.0107  0.2041
   50CHL1    C4 6111   1.124   4.417   9.944  0.1051 -0.7493  0.4770
   50CHL1   H4A 6112   1.219   4.424  10.002 -0.6809  0.8069  1.6676
   50CHL1   H4B 6113   1.060   4.348  10.003 -0.6931  1.5774  2.5571
   50CHL1    C5 6114   1.161   4.355   9.811 -0.0398  0.2775  0.3391
   50CHL1    C6 6115   1.129   4.229   9.784 -0.2038  0.1789  0.6221
   50CHL1    H6 6116   1.072   4.167   9.855  1.2983 -0.1536  1.5814
   50CHL1    C7 6117   1.147   4.173   9.645 -0.2696  0.0379  0.2230
   50CHL1   H7A 6118   1.206   4.079   9.652  1.7112  1.2334  0.4884
   50CHL1   H7B 6119   1.049   4.140   9.604  0.2013 -1.3585  0.1827
   50CHL1    C8 6120   1.225   4.258   9.551 -0.4383  0.6724 -0.3588
   50CHL1    H8 6121   1.328   4.235   9.586 -0.3719  1.7444  0.1914
   50CHL1   C14 6122   1.211   4.206   9.407 -0.2224 -0.1725  0.3885
   50CHL1   H14 6123   1.110   4.244   9.382  0.3691 -0.2336 -2.5373
   50CHL1   C15 6124   1.221   4.063   9.386 -0.0966  0.6051 -0.1386
   50CHL1  H15A 6125   1.313   4.034   9.440 -0.6870  0.2658  0.7037
   50CHL1  H15B 6126   1.135   4.003   9.424  0.0560  0.3390 -0.2063
   50CHL1   C16 6127   1.230   4.047   9.233  0.6887  0.8849 -0.4526
   50CHL1  H16A 6128   1.291   3.960   9.200 -0.9531 -0.5110  0.0600
   50CHL1  H16B 6129   1.128   4.025   9.195  0.3831  0.0474  0.7662
   50CHL1   C17 6130   1.255   4.193   9.185 -0.0984  0.0749  0.6634
   50CHL1   H17 6131   1.158   4.231   9.148 -0.7475  0.4307  2.6085
   50CHL1   C13 6132   1.303   4.273   9.308  0.5289  0.1929 -0.0825
   50CHL1   C18 6133   1.455   4.232   9.342  0.7459  0.1111  0.4315
   50CHL1  H18A 6134   1.520   4.271   9.260  1.8285 -0.1430  1.1517
   50CHL1  H18B 6135   1.486   4.280   9.437 -1.6320  0.1284  1.2441
   50CHL1  H18C 6136   1.480   4.124   9.344 -0.3085 -0.1273  2.1934
   50CHL1   C12 6137   1.293   4.427   9.310  0.3326 -0.4506 -0.5907
   50CHL1  H12A 6138   1.376   4.480   9.260  0.0824  0.2555 -0.2854
   50CHL1  H12B 6139   1.202   4.457   9.253  1.5278  1.9333 -1.3881
   50CHL1   C11 6140   1.286   4.482   9.450  0.5271  0.0106 -0.3085
   50CHL1  H11A 6141   1.388   4.469   9.491 -0.0390  1.2524  1.6368
   50CHL1  H11B 6142   1.265   4.591   9.447  0.3740  0.1142  2.3752
   50CHL1    C9 6143   1.196   4.402   9.553 -0.3696 -0.1471  0.4363
   50CHL1    H9 6144   1.090   4.412   9.519 -1.2964 -2.4578  2.3298
   50CHL1   C10 6145   1.207   4.455   9.705  0.0787 -0.4003 -0.4742
   50CHL1   C19 6146   1.357   4.482   9.754  0.6675  0.0662  0.3125
   50CHL1  H19A 6147   1.395   4.563   9.688 -0.0330  0.9028  0.9047
   50CHL1  H19B 6148   1.359   4.505   9.862  1.0023 -2.3769  0.8814
   50CHL1  H19C 6149   1.429   4.399   9.742  0.7358  0.2492 -0.6309
   50CHL1    C1 6150   1.116   4.587   9.714  0.3570  0.4426  0.2885
   50CHL1   H1A 6151   1.159   4.661   9.642 -2.3471 -0.1013 -2.0971
   50CHL1   H1B 6152   1.013   4.559   9.684  1.2619  0.6368 -3.5277
   50CHL1    C2 6153   1.109   4.651   9.857  0.3860  0.4511  0.2180
   50CHL1   H2A 6154   1.036   4.734   9.855 -1.1027 -0.7954  0.8301
   50CHL1   H2B 6155   1.208   4.690   9.888  0.9508  0.9382 -1.9978
   50CHL1   C20 6156   1.349   4.184   9.054 -0.0531  0.0076  0.1748
   50CHL1   H20 6157   1.441   4.140   9.099 -0.9665 -0.6148  1.5221
   50CHL1   C21 6158   1.361   4.323   8.985  0.5207 -0.8327 -0.5311
   50CHL1  H21A 6159   1.418   4.320   8.890 -2.9099 -2.1340 -2.7873
   50CHL1  H21B 6160   1.424   4.380   9.055 -0.5283  0.6277 -0.7187
   50CHL1  H21C 6161   1.262   4.370   8.964  1.0175  0.4674 -0.0778
   50CHL1   C22 6162   1.296   4.084   8.954 -0.1456  0.6770  0.0281
   50CHL1  H22A 6163   1.252   3.996   9.005 -3.7001  1.8997 -0.6151
   50CHL1  H22B 6164   1.211   4.123   8.893 -0.3672 -0.5214 -0.4711
   50CHL1   C23 6165   1.399   4.037   8.845 -0.0777  0.7704  0.8782
   50CHL1  H23A 6166   1.340   3.973   8.776  1.2151 -0.3579  0.7758
   50CHL1  H23B 6167   1.422   4.127   8.783  2.0640 -2.1743 -3.0228
   50CHL1   C24 6168   1.523   3.968   8.905  0.1972 -0.0310  0.2394
   50CHL1  H24A 6169   1.587   4.038   8.964 -1.6308  0.0602  2.2211
   50CHL1  H24B 6170   1.501   3.889   8.980  2.0654 -3.2133 -2.2889
   50CHL1   C25 6171   1.607   3.909   8.781 -0.0161  0.1227  0.1137
   50CHL1   H25 6172   1.557   3.814   8.754 -0.9359 -0.0530  2.2489
   50CHL1   C26 6173   1.603   4.011   8.671 -0.1742  0.4884  0.1271
   50CHL1  H26A 6174   1.688   3.989   8.603 -1.4986  0.7090 -1.6469
   50CHL1  H26B 6175   1.513   4.012   8.606  1.7895  3.0038 -2.8451
   50CHL1  H26C 6176   1.613   4.111   8.718  2.1907  0.5782 -0.4075
   50CHL1   C27 6177   1.751   3.874   8.825  0.1383  0.0566 -0.2234
   50CHL1  H27A 6178   1.802   3.968   8.856 -1.8077  0.5448  1.7575
   50CHL1  H27B 6179   1.755   3.805   8.912 -1.4087  0.7075  0.3974
   50CHL1  H27C 6180   1.799   3.834   8.733  1.2268 -0.8210  0.6881
   51CHL1    C3 6181   1.444   0.817  10.310 -0.0113 -0.2617 -0.7574
   51CHL1    H3 6182   1.466   0.708  10.307  1.4851 -0.1158  1.7573
   51CHL1    O3 6183   1.440   0.865  10.437 -0.3613 -0.1840  0.3325
   51CHL1   H3' 6184   1.406   0.955  10.435 -0.3013 -0.1471  0.8211
   51CHL1    C4 6185   1.549   0.892  10.232 -0.6024  0.0808  0.1893
   51CHL1   H4A 6186   1.527   0.999  10.251 -2.0752 -0.2527  0.4235
   51CHL1   H4B 6187   1.651   0.875  10.273 -0.6802 -0.0749  0.3182
   51CHL1    C5 6188   1.558   0.859  10.087 -0.1115 -0.2654  0.2529
   51CHL1    C6 6189   1.670   0.815  10.034 -0.1133  0.4884 -0.8974
   51CHL1    H6 6190   1.753   0.796  10.103 -0.0401 -1.1253 -1.4039
   51CHL1    C7 6191   1.681   0.781   9.890 -0.3180  0.0153  1.2294
   51CHL1   H7A 6192   1.779   0.809   9.846 -1.4469  2.7201  0.1832
   51CHL1   H7B 6193   1.668   0.672   9.874  0.4369  0.3091 -2.4379
   51CHL1    C8 6194   1.569   0.849   9.801 -0.1664 -0.7147 -0.3213
   51CHL1    H8 6195   1.578   0.960   9.792 -2.2448 -0.5325 -0.6245
   51CHL1   C14 6196   1.572   0.794   9.659 -0.7409  0.1352 -0.5873
   51CHL1   H14 6197   1.553   0.687   9.682 -0.4885  0.1944 -0.0921
   51CHL1   C15 6198   1.705   0.794   9.581  0.4612  0.0448  0.4118
   51CHL1  H15A 6199   1.755   0.893   9.577 -0.5628  0.5660 -3.3435
   51CHL1  H15B 6200   1.780   0.721   9.617  0.0961  0.5467  2.3193
   51CHL1   C16 6201   1.664   0.778   9.432  0.3512 -0.2747 -0.1623
   51CHL1  H16A 6202   1.701   0.864   9.371 -1.7534  0.5202 -0.4071
   51CHL1  H16B 6203   1.711   0.689   9.385  0.5500  0.5761 -1.6637
   51CHL1   C17 6204   1.506   0.769   9.437 -0.7550  0.0192 -0.1038
   51CHL1   H17 6205   1.481   0.662   9.447 -1.3257  0.2054  0.5261
   51CHL1   C13 6206   1.462   0.836   9.570  1.0250  0.1731  0.6780
   51CHL1   C18 6207   1.477   0.985   9.544  0.2813 -0.0247 -0.3916
   51CHL1  H18A 6208   1.569   1.017   9.491  1.0452 -1.6608 -0.1198
   51CHL1  H18B 6209   1.389   1.022   9.487 -0.0397  1.1747  0.8166
   51CHL1  H18C 6210   1.459   1.053   9.630  0.7077  2.3447 -2.0770
   51CHL1   C12 6211   1.325   0.804   9.639  0.6293 -0.1437 -0.1529
   51CHL1  H12A 6212   1.238   0.826   9.574 -0.6232 -2.0026  0.7980
   51CHL1  H12B 6213   1.318   0.694   9.656  0.9365 -0.5377 -2.3236
   51CHL1   C11 6214   1.319   0.862   9.782 -0.5194  0.5134 -0.2782
   51CHL1  H11A 6215   1.313   0.971   9.762  1.7971  0.5790 -0.9275
   51CHL1  H11B 6216   1.227   0.813   9.819  0.0115  0.3179  0.8233
   51CHL1    C9 6217   1.440   0.819   9.868  0.2145  0.0130  0.3234
   51CHL1    H9 6218   1.431   0.709   9.873  0.1284 -0.0283 -0.6644
   51CHL1   C10 6219   1.427   0.875  10.011  0.3111 -0.8670 -0.4938
   51CHL1   C19 6220   1.387   1.026  10.001 -0.7270 -0.3784 -0.0968
   51CHL1  H19A 6221   1.285   1.031   9.959 -0.1481  0.8767 -1.4532
   51CHL1  H19B 6222   1.386   1.076  10.101  0.8547  1.6027 -0.9880
   51CHL1  H19C 6223   1.456   1.080   9.932 -0.4112 -0.5137  0.1103
   51CHL1    C1 6224   1.317   0.800  10.094 -0.5846 -0.1981 -1.8177
   51CHL1   H1A 6225   1.216   0.823  10.054 -1.4833  1.4052  1.1086
   51CHL1   H1B 6226   1.342   0.692  10.094 -0.0936 -0.1895  1.8621
   51CHL1    C2 6227   1.302   0.830  10.246  0.0487 -0.1589 -0.0809
   51CHL1   H2A 6228   1.229   0.759  10.291 -1.2937 -0.4532 -2.5589
   51CHL1   H2B 6229   1.270   0.934  10.270  1.8627  0.1700  1.0761
   51CHL1   C20 6230   1.435   0.816   9.309 -0.1298 -0.1833  0.5029
   51CHL1   H20 6231   1.434   0.927   9.300  0.3662 -0.1970  0.2774
   51CHL1   C21 6232   1.296   0.753   9.312  0.3788 -0.1065  0.3156
   51CHL1  H21A 6233   1.221   0.825   9.351  0.5512 -0.1623  0.7601
   51CHL1  H21B 6234   1.279   0.670   9.384 -0.1802  0.3325  0.7001
   51CHL1  H21C 6235   1.266   0.712   9.214  0.4638  2.9480 -1.0866
   51CHL1   C22 6236   1.515   0.773   9.186 -0.1522  0.6842 -0.0750
   51CHL1  H22A 6237   1.619   0.812   9.189 -0.6402  2.0312 -0.1485
   51CHL1  H22B 6238   1.511   0.662   9.185 -1.8622  0.6758  1.8852
   51CHL1   C23 6239   1.454   0.827   9.055 -0.0839  0.9813  0.2989
   51CHL1  H23A 6240   1.361   0.776   9.022  1.8247 -0.3445 -3.6796
   51CHL1  H23B 6241   1.429   0.932   9.079 -0.5334  0.7050  1.0891
   51CHL1   C24 6242   1.560   0.824   8.944  0.4597 -0.1450  0.3769
   51CHL1  H24A 6243   1.651   0.880   8.974  0.6014  0.3219 -0.9010
   51CHL1  H24B 6244   1.600   0.724   8.917 -0.3230 -0.0764 -1.1352
   51CHL1   C25 6245   1.507   0.891   8.814  0.2100 -0.3007 -1.3841
   51CHL1   H25 6246   1.452   0.985   8.836  1.2335  0.1701 -0.7717
   51CHL1   C26 6247   1.620   0.919   8.712 -0.1579 -0.0712  0.2195
   51CHL1  H26A 6248   1.582   0.978   8.626  0.2790  0.2775  0.2616
   51CHL1  H26B 6249   1.696   0.982   8.763 -1.3840  1.9151 -0.2835
   51CHL1  H26C 6250   1.658   0.822   8.673  0.1487  0.2839 -0.3690
   51CHL1   C27 6251   1.402   0.804   8.749  0.2780 -0.6314  0.1506
   51CHL1  H27A 6252   1.436   0.704   8.716  2.4858  0.5555 -1.4109
   51CHL1  H27B 6253   1.320   0.783   8.822  0.8116  0.1448  0.9997
   51CHL1  H27C 6254   1.362   0.847   8.655 -0.2620 -0.0542  0.6349
   52CHL1    C3 6255   4.743   5.288  10.039  0.2810 -0.9805  0.0917
   52CHL1    H3 6256   4.815   5.333  10.110  2.0096 -2.1013 -0.9069
   52CHL1    O3 6257   4.618   5.268  10.108  0.6140 -0.2324  0.1289
   52CHL1   H3' 6258   4.560   5.345  10.113  0.6536 -0.2648  1.8089
   52CHL1    C4 6259   4.714   5.386   9.928 -0.4104 -0.6638  0.8779
   52CHL1   H4A 6260   4.623   5.363   9.869 -0.0172 -0.7260  0.2863
   52CHL1   H4B 6261   4.706   5.484   9.980  1.2576  0.0168 -0.0611
   52CHL1    C5 6262   4.839   5.381   9.836  0.2687  0.0858 -0.0207
   52CHL1    C6 6263   4.919   5.494   9.810  0.7827 -0.1270  0.3178
   52CHL1    H6 6264   4.874   5.586   9.851 -1.1625 -1.1098  0.4860
   52CHL1    C7 6265   5.034   5.498   9.710 -0.4170  0.0996 -0.5121
   52CHL1   H7A 6266   5.039   5.588   9.644 -0.6767  0.1844 -0.4164
   52CHL1   H7B 6267   5.133   5.502   9.760 -0.5925 -1.2008 -0.0348
   52CHL1    C8 6268   5.016   5.379   9.612 -0.1984  0.4921 -0.0256
   52CHL1    H8 6269   4.940   5.408   9.537 -3.2271  0.2519  2.7407
   52CHL1   C14 6270   5.155   5.370   9.537  0.3614 -0.0659 -0.0934
   52CHL1   H14 6271   5.224   5.361   9.624 -0.1990  0.3902  0.4045
   52CHL1   C15 6272   5.196   5.492   9.447  0.0002  0.8995  0.1413
   52CHL1  H15A 6273   5.120   5.521   9.371 -0.5662 -0.9158 -0.0300
   52CHL1  H15B 6274   5.233   5.578   9.507  1.7222  1.2400 -1.3294
   52CHL1   C16 6275   5.311   5.424   9.360 -0.0433  0.1418 -0.3322
   52CHL1  H16A 6276   5.270   5.434   9.257 -0.3340 -0.7233 -0.3118
   52CHL1  H16B 6277   5.399   5.489   9.379 -0.6485  0.2909  2.4882
   52CHL1   C17 6278   5.325   5.277   9.409  0.2037  0.7399  0.4367
   52CHL1   H17 6279   5.395   5.294   9.494 -0.1354 -1.6638  1.2537
   52CHL1   C13 6280   5.180   5.244   9.458 -1.1079 -0.3038  0.1068
   52CHL1   C18 6281   5.082   5.226   9.340 -0.0539 -0.4975  0.3111
   52CHL1  H18A 6282   4.979   5.236   9.381 -0.1253 -1.5581  0.4302
   52CHL1  H18B 6283   5.101   5.300   9.259  2.4106 -1.5371 -0.1596
   52CHL1  H18C 6284   5.097   5.127   9.290 -0.4954 -0.3273 -0.1750
   52CHL1   C12 6285   5.169   5.127   9.548  0.3206 -1.0322  0.3645
   52CHL1  H12A 6286   5.197   5.028   9.507 -0.8246 -1.3022  0.1960
   52CHL1  H12B 6287   5.250   5.135   9.624  0.7871  3.4397 -0.2825
   52CHL1   C11 6288   5.036   5.126   9.617 -0.2418 -0.1285 -0.0074
   52CHL1  H11A 6289   4.953   5.103   9.547 -2.3071  1.9148  1.6244
   52CHL1  H11B 6290   5.038   5.039   9.685  1.9530  0.1309  0.3521
   52CHL1    C9 6291   4.995   5.251   9.692 -0.2943  0.3766  0.1038
   52CHL1    H9 6292   5.076   5.261   9.768  0.2483  1.2582 -0.5811
   52CHL1   C10 6293   4.864   5.244   9.777 -0.5148  0.2511  0.2247
   52CHL1   C19 6294   4.747   5.212   9.683  0.1888  0.2780 -0.5434
   52CHL1  H19A 6295   4.648   5.197   9.729  0.8063 -0.4341  0.5867
   52CHL1  H19B 6296   4.734   5.281   9.597 -1.2011  0.9938  0.2126
   52CHL1  H19C 6297   4.761   5.107   9.650 -0.3592 -0.0797  0.3382
   52CHL1    C1 6298   4.888   5.142   9.893  0.3022  0.3499 -0.6731
   52CHL1   H1A 6299   4.900   5.036   9.863 -0.3699 -0.6853  2.3765
   52CHL1   H1B 6300   4.977   5.187   9.941  1.0418  2.1185 -3.4988
   52CHL1    C2 6301   4.772   5.146   9.994  0.1745  0.0939 -0.5402
   52CHL1   H2A 6302   4.806   5.080  10.076  1.7568  0.1055 -1.1390
   52CHL1   H2B 6303   4.677   5.107   9.951 -1.9445  3.2345  0.9472
   52CHL1   C20 6304   5.379   5.196   9.291 -0.2794  0.3804  0.2932
   52CHL1   H20 6305   5.305   5.193   9.208 -0.9715  0.7945  0.8876
   52CHL1   C21 6306   5.399   5.052   9.339 -0.1054 -0.9307  0.2033
   52CHL1  H21A 6307   5.418   5.049   9.449 -0.5405 -2.2786  0.2607
   52CHL1  H21B 6308   5.473   5.006   9.270 -0.6320  0.9042 -1.6545
   52CHL1  H21C 6309   5.305   5.000   9.311 -1.5895  2.8601 -2.5989
   52CHL1   C22 6310   5.503   5.258   9.223  0.3548  0.6930  0.5737
   52CHL1  H22A 6311   5.510   5.205   9.126 -1.3357  2.3510 -0.5278
   52CHL1  H22B 6312   5.495   5.366   9.196 -0.4359  0.5431  0.1947
   52CHL1   C23 6313   5.633   5.229   9.300 -0.1045  0.1627  0.0406
   52CHL1  H23A 6314   5.631   5.308   9.379  2.9080 -0.3671  0.7579
   52CHL1  H23B 6315   5.632   5.139   9.364 -2.2616 -0.3250 -0.5981
   52CHL1   C24 6316   5.762   5.218   9.218 -0.2649 -0.5005  0.5913
   52CHL1  H24A 6317   5.764   5.130   9.151  0.7415  0.2026 -0.3247
   52CHL1  H24B 6318   5.772   5.311   9.157  2.3156 -0.6617  0.6858
   52CHL1   C25 6319   5.895   5.211   9.298 -0.5654  0.8300 -0.2915
   52CHL1   H25 6320   5.972   5.230   9.221  1.2731  1.0251  1.5105
   52CHL1   C26 6321   5.903   5.326   9.399 -0.3718 -0.0895 -1.1727
   52CHL1  H26A 6322   5.839   5.305   9.487 -1.4862  0.1676 -1.9012
   52CHL1  H26B 6323   6.008   5.332   9.435 -0.4805  4.4050 -1.0871
   52CHL1  H26C 6324   5.876   5.420   9.345  2.4722  1.2956 -0.3713
   52CHL1   C27 6325   5.932   5.072   9.360  1.3266 -0.0354  0.4451
   52CHL1  H27A 6326   6.040   5.072   9.389  1.7443  1.9631 -0.8840
   52CHL1  H27B 6327   5.857   5.055   9.440 -0.8949  2.3171 -0.9725
   52CHL1  H27C 6328   5.918   4.992   9.284  0.1849  0.4071  0.1780
   53CHL1    C3 6329   0.635   4.716   9.960 -0.2096  1.1604 -0.4537
   53CHL1    H3 6330   0.683   4.617   9.942  3.0658  2.6250 -0.5697
   53CHL1    O3 6331   0.656   4.753  10.100  0.3244 -0.0278  0.0312
   53CHL1   H3' 6332   0.629   4.668  10.134  1.2459 -1.7470 -3.0993
   53CHL1    C4 6333   0.703   4.827   9.869  0.8348  0.3095  0.7154
   53CHL1   H4A 6334   0.650   4.922   9.891 -1.5069 -0.7097 -0.1692
   53CHL1   H4B 6335   0.810   4.833   9.900  0.9666  1.0364  0.1566
   53CHL1    C5 6336   0.689   4.781   9.725 -0.2067  0.0604 -0.0501
   53CHL1    C6 6337   0.796   4.760   9.646  0.1631  0.7397  0.2143
   53CHL1    H6 6338   0.895   4.765   9.693  0.2322  2.3262 -0.0593
   53CHL1    C7 6339   0.794   4.719   9.499 -0.4383  0.1871 -0.2315
   53CHL1   H7A 6340   0.871   4.786   9.456  0.5162  0.2942  1.5908
   53CHL1   H7B 6341   0.809   4.612   9.474 -1.2966 -0.1822  0.8015
   53CHL1    C8 6342   0.651   4.755   9.446 -0.1264 -0.4120 -0.5991
   53CHL1    H8 6343   0.650   4.866   9.447 -0.3592 -0.4085  0.5471
   53CHL1   C14 6344   0.622   4.698   9.310  0.1357  0.2747  0.0619
   53CHL1   H14 6345   0.629   4.589   9.331  2.2202  0.3554 -0.0134
   53CHL1   C15 6346   0.730   4.726   9.199  0.5284 -0.0076 -0.0017
   53CHL1  H15A 6347   0.760   4.833   9.210 -0.9838  0.6043 -1.4283
   53CHL1  H15B 6348   0.820   4.662   9.212  1.2167  1.2590  2.0241
   53CHL1   C16 6349   0.660   4.684   9.064 -0.3726 -0.4460 -0.5076
   53CHL1  H16A 6350   0.653   4.768   8.991  1.0659  0.6144  0.5094
   53CHL1  H16B 6351   0.695   4.591   9.014  0.1410 -0.8092  0.5088
   53CHL1   C17 6352   0.509   4.659   9.102 -0.5004  0.7317  0.8465
   53CHL1   H17 6353   0.497   4.549   9.114  0.6585  0.1181 -2.5567
   53CHL1   C13 6354   0.488   4.726   9.245 -0.1376 -0.0297 -0.1045
   53CHL1   C18 6355   0.464   4.885   9.238  0.1721  0.0143 -0.2353
   53CHL1  H18A 6356   0.485   4.940   9.333  1.0457  2.4320 -1.7493
   53CHL1  H18B 6357   0.525   4.931   9.158 -1.1773  1.0715 -0.6842
   53CHL1  H18C 6358   0.358   4.910   9.216 -0.0873 -0.3090  0.5855
   53CHL1   C12 6359   0.383   4.663   9.330  0.8899  0.0736  0.3963
   53CHL1  H12A 6360   0.278   4.678   9.298 -0.0905  2.3318  3.9589
   53CHL1  H12B 6361   0.402   4.554   9.339  0.1881 -0.2837 -1.9540
   53CHL1   C11 6362   0.390   4.727   9.470 -0.2300  0.8063  0.0765
   53CHL1  H11A 6363   0.345   4.828   9.480 -3.1184 -0.1964 -1.4458
   53CHL1  H11B 6364   0.324   4.664   9.534 -0.0961 -0.8521 -1.3235
   53CHL1    C9 6365   0.532   4.704   9.534  0.3301  0.0835 -0.0887
   53CHL1    H9 6366   0.551   4.595   9.525  1.6903  0.1930  1.0945
   53CHL1   C10 6367   0.542   4.768   9.679 -0.3129 -0.2529 -0.3252
   53CHL1   C19 6368   0.488   4.910   9.685 -0.4744  0.1748  0.3392
   53CHL1  H19A 6369   0.505   4.968   9.779  0.9611 -0.7017  0.6608
   53CHL1  H19B 6370   0.525   4.981   9.608  2.7062  0.2879  1.7995
   53CHL1  H19C 6371   0.378   4.901   9.673 -0.7255  2.0176  0.9209
   53CHL1    C1 6372   0.458   4.678   9.776 -0.5795 -0.8146 -0.7730
   53CHL1   H1A 6373   0.349   4.692   9.769 -0.9195 -1.9328  1.3358
   53CHL1   H1B 6374   0.482   4.571   9.758 -1.1002 -0.9068 -0.9157
   53CHL1    C2 6375   0.485   4.704   9.927  0.1327 -0.1385  0.3597
   53CHL1   H2A 6376   0.446   4.614   9.980 -0.9842 -1.0280 -1.8530
   53CHL1   H2B 6377   0.433   4.793   9.967  0.2900  0.3550 -0.5169
   53CHL1   C20 6378   0.414   4.700   8.988 -0.3669 -0.1326 -0.5255
   53CHL1   H20 6379   0.428   4.810   8.973 -1.8885 -0.3240 -4.7462
   53CHL1   C21 6380   0.267   4.648   9.027  0.4248  0.0570 -0.0352
   53CHL1  H21A 6381   0.201   4.666   8.939  0.3620  1.0562  0.1998
   53CHL1  H21B 6382   0.228   4.703   9.115  1.7503  1.8785 -0.5047
   53CHL1  H21C 6383   0.267   4.540   9.048  0.5509 -0.1782 -1.1444
   53CHL1   C22 6384   0.449   4.635   8.855 -1.3105  0.9584 -0.2933
   53CHL1  H22A 6385   0.555   4.641   8.823 -1.6534 -1.9583 -2.4865
   53CHL1  H22B 6386   0.425   4.528   8.872 -1.7799  1.4303  2.3189
   53CHL1   C23 6387   0.359   4.692   8.744 -0.1268  0.1385 -0.3039
   53CHL1  H23A 6388   0.252   4.661   8.755 -0.4005  0.5437 -1.5859
   53CHL1  H23B 6389   0.356   4.802   8.751 -1.9698  0.0278  1.7837
   53CHL1   C24 6390   0.405   4.653   8.600  0.0736  0.9649 -0.3781
   53CHL1  H24A 6391   0.511   4.684   8.591  0.3441 -0.0517 -0.8053
   53CHL1  H24B 6392   0.397   4.543   8.607  1.0984  0.9746  3.0066
   53CHL1   C25 6393   0.330   4.726   8.487 -0.0763  0.4249  0.6988
   53CHL1   H25 6394   0.225   4.690   8.487  0.0955 -0.3011 -1.9247
   53CHL1   C26 6395   0.339   4.879   8.492  0.5958 -0.5600  0.1340
   53CHL1  H26A 6396   0.440   4.924   8.482  0.1533  0.3056 -0.7581
   53CHL1  H26B 6397   0.286   4.915   8.400  1.3573 -1.6714 -0.7617
   53CHL1  H26C 6398   0.288   4.921   8.581  1.4434 -1.4020  1.0218
   53CHL1   C27 6399   0.366   4.663   8.355  0.6001 -0.2958 -0.5048
   53CHL1  H27A 6400   0.467   4.681   8.315 -0.1236 -0.0054 -2.2765
   53CHL1  H27B 6401   0.347   4.554   8.359 -0.1864 -0.1444  0.2360
   53CHL1  H27C 6402   0.303   4.691   8.268  2.0714  1.4748 -1.0596
   54CHL1    C3 6403   6.577   6.426  10.099  1.0485 -0.3732 -0.0374
   54CHL1    H3 6404   6.544   6.337  10.040 -0.1092 -1.3927  2.0441
   54CHL1    O3 6405   6.588   6.387  10.231 -0.4743 -0.3101  0.3060
   54CHL1   H3' 6406   6.650   6.452  10.264  0.8380 -1.2313 -0.2322
   54CHL1    C4 6407   6.710   6.473  10.030 -0.3698 -0.3150 -0.2826
   54CHL1   H4A 6408   6.755   6.552  10.095  0.5409 -0.3115 -0.8989
   54CHL1   H4B 6409   6.777   6.384  10.030  2.6754  1.7808  1.2013
   54CHL1    C5 6410   6.682   6.520   9.887 -0.1121  1.0613  0.2497
   54CHL1    C6 6411   6.743   6.455   9.784 -0.0251 -0.3128 -0.3175
   54CHL1    H6 6412   6.809   6.371   9.809 -0.7447 -0.4058  1.3969
   54CHL1    C7 6413   6.728   6.506   9.645 -0.2864 -0.1626  0.2974
   54CHL1   H7A 6414   6.824   6.507   9.589 -1.2647 -0.0911 -1.4439
   54CHL1   H7B 6415   6.668   6.434   9.586  1.0971 -1.8004  0.8331
   54CHL1    C8 6416   6.661   6.645   9.632  0.1347  1.1383 -0.6016
   54CHL1    H8 6417   6.737   6.716   9.671  1.6832 -1.0492  0.5340
   54CHL1   C14 6418   6.619   6.682   9.495 -0.0070  0.1456 -0.4135
   54CHL1   H14 6419   6.559   6.594   9.462  3.1978 -0.8441 -4.4088
   54CHL1   C15 6420   6.728   6.665   9.380 -0.0146  0.8410 -0.5288
   54CHL1  H15A 6421   6.826   6.695   9.424  0.7989 -0.3147 -1.4715
   54CHL1  H15B 6422   6.735   6.556   9.361  0.6229  0.4952  1.4478
   54CHL1   C16 6423   6.677   6.753   9.263  0.1424  0.0128 -0.1644
   54CHL1  H16A 6424   6.740   6.843   9.249  0.3065 -0.0900 -0.0892
   54CHL1  H16B 6425   6.685   6.689   9.172  0.4734 -2.7112  1.6540
   54CHL1   C17 6426   6.534   6.794   9.309  0.0026 -0.0029 -0.1027
   54CHL1   H17 6427   6.467   6.706   9.293  2.6768 -2.0273 -0.8864
   54CHL1   C13 6428   6.540   6.805   9.462 -0.0057  0.0994 -0.5910
   54CHL1   C18 6429   6.635   6.922   9.506 -0.2306  0.3682 -0.7043
   54CHL1  H18A 6430   6.668   6.910   9.611 -0.2396  1.8583 -0.5067
   54CHL1  H18B 6431   6.732   6.923   9.451 -0.2469 -2.1098 -0.8593
   54CHL1  H18C 6432   6.577   7.017   9.500 -0.6032  0.1238 -1.0005
   54CHL1   C12 6433   6.410   6.797   9.541  0.2773 -0.1093  0.3785
   54CHL1  H12A 6434   6.335   6.873   9.511  0.2400 -0.7342 -1.2140
   54CHL1  H12B 6435   6.347   6.710   9.510 -2.0127  0.8667  1.9944
   54CHL1   C11 6436   6.427   6.777   9.692 -0.6549 -0.0784 -0.2893
   54CHL1  H11A 6437   6.459   6.878   9.728  0.3061 -0.1112 -0.9832
   54CHL1  H11B 6438   6.328   6.758   9.738  0.2299 -0.0885  1.7033
   54CHL1    C9 6439   6.530   6.654   9.724 -0.7811 -0.1265  0.4550
   54CHL1    H9 6440   6.464   6.570   9.694 -3.2510  1.0401  2.3103
   54CHL1   C10 6441   6.571   6.630   9.871  0.0592 -0.1230  0.2963
   54CHL1   C19 6442   6.614   6.765   9.930  0.1912 -0.1265  1.2578
   54CHL1  H19A 6443   6.525   6.829   9.941  1.9994  2.6702  0.7264
   54CHL1  H19B 6444   6.676   6.749  10.021  0.5359 -1.6999  0.7874
   54CHL1  H19C 6445   6.671   6.817   9.849 -3.2043 -0.6559 -1.7544
   54CHL1    C1 6446   6.445   6.568   9.945 -0.4263 -0.1587 -0.3479
   54CHL1   H1A 6447   6.365   6.644   9.934 -1.2092 -0.9060  0.0947
   54CHL1   H1B 6448   6.407   6.476   9.897 -2.8255  0.3884  0.3663
   54CHL1    C2 6449   6.466   6.531  10.091  0.0652 -0.3568  0.0979
   54CHL1   H2A 6450   6.381   6.477  10.138  0.8145 -0.2606  1.6205
   54CHL1   H2B 6451   6.485   6.615  10.160 -0.5870  0.2973 -0.5020
   54CHL1   C20 6452   6.488   6.912   9.220  0.0033  0.0085 -0.5930
   54CHL1   H20 6453   6.538   7.007   9.249 -3.0469  1.4384  0.4731
   54CHL1   C21 6454   6.335   6.930   9.248  0.0228  0.0726  0.1713
   54CHL1  H21A 6455   6.313   6.985   9.342  0.8314 -2.4033  1.9067
   54CHL1  H21B 6456   6.280   6.833   9.252 -1.0236  0.6684  0.5114
   54CHL1  H21C 6457   6.299   6.996   9.166  0.6586 -0.9697 -0.9836
   54CHL1   C22 6458   6.516   6.885   9.069  0.7303  0.2747  0.3482
   54CHL1  H22A 6459   6.624   6.875   9.046  0.2340 -0.2661 -2.0316
   54CHL1  H22B 6460   6.470   6.789   9.039 -0.0152  0.6476  0.2540
   54CHL1   C23 6461   6.462   6.982   8.970  1.1081  0.0805  0.3125
   54CHL1  H23A 6462   6.353   7.002   8.975  0.9059 -0.8335 -0.2109
   54CHL1  H23B 6463   6.501   7.084   8.989 -1.7046  0.9710  1.8149
   54CHL1   C24 6464   6.488   6.923   8.831  0.6639  0.3878  0.9846
   54CHL1  H24A 6465   6.597   6.907   8.814  0.6193 -0.4642  1.4237
   54CHL1  H24B 6466   6.437   6.826   8.818 -0.7666  1.1826  0.4715
   54CHL1   C25 6467   6.441   7.006   8.705 -0.1974  0.6001 -0.2830
   54CHL1   H25 6468   6.334   7.033   8.716  0.3839  2.9428  0.0859
   54CHL1   C26 6469   6.507   7.141   8.712  0.1494 -0.1678  0.3565
   54CHL1  H26A 6470   6.617   7.140   8.692 -0.1003  0.1186 -1.1804
   54CHL1  H26B 6471   6.465   7.204   8.631  1.4239 -0.4462 -0.5618
   54CHL1  H26C 6472   6.499   7.195   8.808 -0.1687  0.4890 -0.0316
   54CHL1   C27 6473   6.466   6.930   8.572  0.3185 -0.7501 -0.0387
   54CHL1  H27A 6474   6.569   6.893   8.554 -0.1853 -1.1483 -2.2818
   54CHL1  H27B 6475   6.400   6.841   8.572  0.2470 -0.6963 -0.7462
   54CHL1  H27C 6476   6.421   6.999   8.498  2.2796  0.1128 -0.4807
   55CHL1    C3 6477   0.519   3.727  10.187 -0.1463  0.6014  0.1987
   55CHL1    H3 6478   0.415   3.689  10.171  0.6881 -2.0178  0.5615
   55CHL1    O3 6479   0.530   3.782  10.315 -0.3215 -0.2401 -0.0221
   55CHL1   H3' 6480   0.468   3.854  10.321 -1.1096 -0.9152  0.1962
   55CHL1    C4 6481   0.620   3.600  10.181  0.4065  0.4783 -0.1977
   55CHL1   H4A 6482   0.723   3.638  10.195  0.4115  0.0225  1.2232
   55CHL1   H4B 6483   0.600   3.530  10.266  0.1080 -1.0768 -1.5010
   55CHL1    C5 6484   0.604   3.523  10.050  0.2034  0.7283 -0.1856
   55CHL1    C6 6485   0.558   3.398  10.039 -0.0806 -0.0232 -0.0827
   55CHL1    H6 6486   0.526   3.351  10.133  3.6272 -0.9034  0.9197
   55CHL1    C7 6487   0.543   3.322   9.906 -0.2828  0.2490  0.1623
   55CHL1   H7A 6488   0.593   3.225   9.929  1.3849  1.0657  0.1466
   55CHL1   H7B 6489   0.439   3.304   9.871  0.7937 -3.3047 -1.7396
   55CHL1    C8 6490   0.621   3.402   9.793  0.3372  0.5954 -0.8120
   55CHL1    H8 6491   0.728   3.374   9.802  0.2800  0.4498 -0.5622
   55CHL1   C14 6492   0.578   3.355   9.658 -0.3413  0.5284  0.7857
   55CHL1   H14 6493   0.474   3.392   9.646 -0.2602  0.7306  0.6977
   55CHL1   C15 6494   0.556   3.202   9.623 -0.2148  0.9102 -0.9575
   55CHL1  H15A 6495   0.657   3.160   9.641 -1.5600 -1.7912  1.2080
   55CHL1  H15B 6496   0.482   3.154   9.691  1.1176 -0.7953 -0.6415
   55CHL1   C16 6497   0.519   3.210   9.472 -0.4336 -0.1453 -0.7557
   55CHL1  H16A 6498   0.548   3.109   9.438  1.9863 -0.2360  1.2793
   55CHL1  H16B 6499   0.408   3.218   9.466 -0.5783 -1.6901 -0.4294
   55CHL1   C17 6500   0.593   3.340   9.409  0.2091  0.3653  0.7124
   55CHL1   H17 6501   0.512   3.406   9.372  1.3380  1.5391  0.2345
   55CHL1   C13 6502   0.654   3.405   9.532  0.3368  0.2121  0.0987
   55CHL1   C18 6503   0.807   3.373   9.542  0.1842 -0.0828  0.1211
   55CHL1  H18A 6504   0.836   3.407   9.644 -3.5050  0.7786  1.0410
   55CHL1  H18B 6505   0.833   3.265   9.537  0.6422 -0.0778  1.9763
   55CHL1  H18C 6506   0.862   3.438   9.469  0.3996  0.1487  0.4848
   55CHL1   C12 6507   0.627   3.551   9.541 -0.2523  1.1227 -0.4349
   55CHL1  H12A 6508   0.694   3.597   9.466  2.3104  0.1111  1.0941
   55CHL1  H12B 6509   0.524   3.575   9.507  0.2879  1.3215 -1.9880
   55CHL1   C11 6510   0.664   3.619   9.673  0.2345 -0.0389 -0.4218
   55CHL1  H11A 6511   0.774   3.609   9.678  0.3103  0.5039 -0.8875
   55CHL1  H11B 6512   0.643   3.727   9.662 -1.5528 -0.2474  0.5707
   55CHL1    C9 6513   0.602   3.550   9.797 -0.1343  0.2030  0.2113
   55CHL1    H9 6514   0.495   3.559   9.771 -0.1109 -0.6834 -0.2426
   55CHL1   C10 6515   0.639   3.617   9.931 -0.5600  0.4529  0.7609
   55CHL1   C19 6516   0.782   3.663   9.926 -0.0437 -0.1569  0.2935
   55CHL1  H19A 6517   0.829   3.695  10.021  1.8954 -1.6751 -0.0950
   55CHL1  H19B 6518   0.858   3.588   9.895  0.6542  0.2397  1.0154
   55CHL1  H19C 6519   0.782   3.748   9.855 -2.1676  0.5321  1.0284
   55CHL1    C1 6520   0.567   3.752   9.947 -0.3405  0.7288  0.5023
   55CHL1   H1A 6521   0.610   3.831   9.882 -0.9674  0.4968 -0.2054
   55CHL1   H1B 6522   0.468   3.712   9.918  0.1110 -0.8618  1.0097
   55CHL1    C2 6523   0.563   3.824  10.077  0.3331 -0.0573 -0.1232
   55CHL1   H2A 6524   0.500   3.916  10.074 -0.3896 -0.4462  1.5925
   55CHL1   H2B 6525   0.666   3.862  10.100  0.4573 -0.2224 -0.4055
   55CHL1   C20 6526   0.680   3.308   9.287  0.1657 -0.6103  0.9302
   55CHL1   H20 6527   0.768   3.247   9.317  1.0846 -1.7723 -3.3918
   55CHL1   C21 6528   0.727   3.445   9.233 -0.2878  0.2554  0.3874
   55CHL1  H21A 6529   0.792   3.438   9.143 -0.5648 -0.0283  0.2058
   55CHL1  H21B 6530   0.776   3.506   9.311 -1.6163  0.6565  0.9511
   55CHL1  H21C 6531   0.641   3.509   9.203 -0.1469  0.6016  0.7223
   55CHL1   C22 6532   0.606   3.224   9.180  0.3126  0.1483 -0.1052
   55CHL1  H22A 6533   0.574   3.125   9.218 -2.0202  0.9193  0.1684
   55CHL1  H22B 6534   0.508   3.272   9.157 -0.5958 -1.1671  0.8667
   55CHL1   C23 6535   0.683   3.207   9.055 -0.3676 -0.4192  0.6152
   55CHL1  H23A 6536   0.673   3.301   8.996  0.2938 -1.7060 -1.6802
   55CHL1  H23B 6537   0.789   3.178   9.071 -0.7681 -1.4106  1.5534
   55CHL1   C24 6538   0.628   3.095   8.972  0.9763  0.7153  0.2984
   55CHL1  H24A 6539   0.614   3.015   9.048 -1.3759  0.5344 -0.2719
   55CHL1  H24B 6540   0.527   3.116   8.931  1.1827  1.5475  0.1824
   55CHL1   C25 6541   0.725   3.042   8.867  0.0926  0.1434 -0.2541
   55CHL1   H25 6542   0.826   3.024   8.910  0.2245  2.8297  0.7866
   55CHL1   C26 6543   0.676   2.913   8.797 -0.6238  0.2504 -0.6556
   55CHL1  H26A 6544   0.593   2.941   8.728 -0.5074 -0.8244 -1.2470
   55CHL1  H26B 6545   0.763   2.872   8.742 -0.3225 -0.1057  0.0603
   55CHL1  H26C 6546   0.648   2.827   8.863  2.0511 -0.2775 -0.0960
   55CHL1   C27 6547   0.740   3.152   8.758 -0.3990  0.8360  0.1859
   55CHL1  H27A 6548   0.798   3.232   8.808 -2.0952  0.8433  2.2939
   55CHL1  H27B 6549   0.800   3.106   8.676 -0.7416  1.3239 -0.3478
   55CHL1  H27C 6550   0.645   3.192   8.717 -1.3456  0.2088  1.6912
   56CHL1    C3 6551   5.387   3.645  10.166 -0.7650  0.9783  0.0947
   56CHL1    H3 6552   5.284   3.656  10.126 -1.4134 -0.5034  1.2700
   56CHL1    O3 6553   5.385   3.590  10.293 -0.3230  0.6691 -0.5029
   56CHL1   H3' 6554   5.467   3.619  10.335 -0.8392  0.8109  0.4282
   56CHL1    C4 6555   5.469   3.553  10.069 -0.8179 -0.4989 -0.3336
   56CHL1   H4A 6556   5.566   3.522  10.111 -1.0510 -0.7155  0.0485
   56CHL1   H4B 6557   5.407   3.461  10.058 -0.8380 -0.5119 -0.1066
   56CHL1    C5 6558   5.495   3.623   9.937  0.2686  0.2557 -0.0248
   56CHL1    C6 6559   5.453   3.566   9.820 -0.0892 -0.3829  0.4921
   56CHL1    H6 6560   5.407   3.467   9.827 -0.6069 -0.3636 -1.7425
   56CHL1    C7 6561   5.483   3.625   9.682  0.3931 -0.6745 -0.9929
   56CHL1   H7A 6562   5.521   3.546   9.613  3.2078  0.1817 -0.5583
   56CHL1   H7B 6563   5.395   3.674   9.635  1.5882  1.3002 -1.3100
   56CHL1    C8 6564   5.581   3.751   9.685 -0.1551 -0.7338  0.5840
   56CHL1    H8 6565   5.689   3.730   9.698 -0.0970 -1.7567 -1.1818
   56CHL1   C14 6566   5.557   3.831   9.556  0.0956 -0.5395 -0.4919
   56CHL1   H14 6567   5.449   3.854   9.554 -0.5384 -2.5730  2.5670
   56CHL1   C15 6568   5.580   3.767   9.409  0.8746  0.5365 -0.0432
   56CHL1  H15A 6569   5.666   3.696   9.409  1.0016  0.6833  0.6011
   56CHL1  H15B 6570   5.481   3.720   9.395  1.5316 -1.1491  0.6192
   56CHL1   C16 6571   5.597   3.890   9.318 -0.8034 -0.1878 -0.4322
   56CHL1  H16A 6572   5.683   3.888   9.247  1.2837  3.9968  1.6192
   56CHL1  H16B 6573   5.504   3.883   9.258 -1.0623 -1.1369  0.0508
   56CHL1   C17 6574   5.597   4.015   9.414 -0.5489 -0.3714 -0.1636
   56CHL1   H17 6575   5.490   4.048   9.414 -0.3274  0.4417 -1.7154
   56CHL1   C13 6576   5.632   3.964   9.550 -0.6842 -0.5393 -0.7114
   56CHL1   C18 6577   5.790   3.927   9.540 -0.0367 -0.1946  0.4372
   56CHL1  H18A 6578   5.858   4.009   9.510  1.1070 -0.9390  0.9228
   56CHL1  H18B 6579   5.832   3.895   9.638  1.4521  1.7738  0.4899
   56CHL1  H18C 6580   5.805   3.841   9.471 -1.2952  1.0620 -1.5150
   56CHL1   C12 6581   5.590   4.049   9.676 -0.4971 -0.4892 -0.8855
   56CHL1  H12A 6582   5.632   4.152   9.678 -2.8391  0.5306  0.8756
   56CHL1  H12B 6583   5.481   4.066   9.662 -0.8816  2.3619  3.4198
   56CHL1   C11 6584   5.622   3.967   9.801  0.4334 -0.0824  0.6333
   56CHL1  H11A 6585   5.732   3.950   9.794  0.1685 -1.3058 -1.9804
   56CHL1  H11B 6586   5.597   4.027   9.891 -1.1959  0.6805 -0.2836
   56CHL1    C9 6587   5.541   3.835   9.805 -0.5494 -0.4302 -0.0183
   56CHL1    H9 6588   5.433   3.855   9.791 -0.2985 -0.7299 -2.8343
   56CHL1   C10 6589   5.560   3.761   9.937  0.3677 -0.7486 -0.0935
   56CHL1   C19 6590   5.703   3.748   9.986 -1.0338 -0.1925  0.3341
   56CHL1  H19A 6591   5.745   3.850   9.995 -2.2071  0.2664  0.7426
   56CHL1  H19B 6592   5.722   3.693  10.081  1.7870 -0.4015 -0.2482
   56CHL1  H19C 6593   5.764   3.700   9.906  0.1921 -1.3300  1.8845
   56CHL1    C1 6594   5.478   3.845  10.049 -0.2387 -0.3355  0.0229
   56CHL1   H1A 6595   5.522   3.944  10.074 -2.2901  0.2434  1.5911
   56CHL1   H1B 6596   5.374   3.862  10.015  0.0448  3.6295  0.7047
   56CHL1    C2 6597   5.455   3.776  10.191  0.8951 -0.0946  0.0749
   56CHL1   H2A 6598   5.384   3.836  10.252 -1.0222 -0.1787 -1.9320
   56CHL1   H2B 6599   5.552   3.760  10.243  0.4814 -1.0871  0.5714
   56CHL1   C20 6600   5.656   4.143   9.350  1.1293 -0.0721  0.1105
   56CHL1   H20 6601   5.761   4.133   9.316  0.4576 -2.5781 -1.4642
   56CHL1   C21 6602   5.656   4.263   9.454 -0.8301 -0.1148 -0.3409
   56CHL1  H21A 6603   5.669   4.358   9.397 -2.5800  0.6117  0.3997
   56CHL1  H21B 6604   5.739   4.255   9.527  1.4125  1.9975 -2.4987
   56CHL1  H21C 6605   5.568   4.267   9.523 -0.1611  0.2170  0.5184
   56CHL1   C22 6606   5.563   4.188   9.234  0.0679 -0.2647 -0.8239
   56CHL1  H22A 6607   5.503   4.108   9.185 -1.3290  0.2536  0.0018
   56CHL1  H22B 6608   5.486   4.260   9.269  1.8239  1.1847  0.2256
   56CHL1   C23 6609   5.635   4.273   9.121  0.3652  0.5127 -0.0760
   56CHL1  H23A 6610   5.552   4.298   9.051  1.3673  3.4592 -0.3302
   56CHL1  H23B 6611   5.687   4.354   9.176  0.3913  1.0049 -0.8047
   56CHL1   C24 6612   5.737   4.195   9.049  0.1982  0.3634  0.7007
   56CHL1  H24A 6613   5.787   4.258   8.972 -0.7290 -0.8328 -0.9306
   56CHL1  H24B 6614   5.813   4.170   9.127  2.0524  1.6164 -0.6172
   56CHL1   C25 6615   5.690   4.077   8.972 -0.9286 -0.6326  0.2555
   56CHL1   H25 6616   5.638   4.002   9.035 -2.2712 -0.8384 -1.0376
   56CHL1   C26 6617   5.607   4.118   8.851  0.1647 -0.2534 -0.5192
   56CHL1  H26A 6618   5.661   4.164   8.765  1.8273 -0.2591  0.4685
   56CHL1  H26B 6619   5.566   4.023   8.811  1.0947 -0.5333 -0.8385
   56CHL1  H26C 6620   5.515   4.175   8.875 -0.9107 -1.0247 -2.5531
   56CHL1   C27 6621   5.820   4.002   8.919 -0.5539 -0.2615  0.3064
   56CHL1  H27A 6622   5.891   4.002   9.005 -0.2458 -0.6307  0.0553
   56CHL1  H27B 6623   5.798   3.899   8.883 -0.4919 -1.1033  2.4959
   56CHL1  H27C 6624   5.856   4.061   8.832 -0.1019 -3.2657 -1.6774
   57CHL1    C3 6625   1.937   5.474  10.379  0.2812  0.4473  0.5429
   57CHL1    H3 6626   1.892   5.570  10.347  2.1664  0.9058 -0.9300
   57CHL1    O3 6627   1.990   5.487  10.513  0.7938  0.6083 -0.0047
   57CHL1   H3' 6628   2.005   5.396  10.541 -1.2581  0.2203 -0.0616
   57CHL1    C4 6629   1.827   5.368  10.374  0.7005  0.6014 -0.7230
   57CHL1   H4A 6630   1.877   5.277  10.413 -0.4379  0.5094  0.6013
   57CHL1   H4B 6631   1.739   5.395  10.437 -0.1733 -3.0817 -0.1600
   57CHL1    C5 6632   1.773   5.338  10.236 -0.1506 -1.1120  0.4162
   57CHL1    C6 6633   1.645   5.344  10.208 -0.1064  0.2389 -0.2464
   57CHL1    H6 6634   1.571   5.371  10.285 -0.4969  2.3913 -1.2993
   57CHL1    C7 6635   1.583   5.330  10.068  0.0641 -0.3793 -0.5873
   57CHL1   H7A 6636   1.499   5.257  10.073  0.9474 -1.5698 -2.1850
   57CHL1   H7B 6637   1.532   5.426  10.045  0.2748  0.3875  1.8723
   57CHL1    C8 6638   1.685   5.283   9.962 -0.4924  0.2918  1.1961
   57CHL1    H8 6639   1.698   5.173   9.972 -0.8551  0.3361  2.2455
   57CHL1   C14 6640   1.627   5.317   9.829  0.0861  0.1579 -0.4147
   57CHL1   H14 6641   1.624   5.427   9.821 -0.6104  0.0292 -2.7145
   57CHL1   C15 6642   1.484   5.279   9.797 -0.1717 -0.0000 -1.0722
   57CHL1  H15A 6643   1.469   5.175   9.833 -1.3278  0.1515 -1.0652
   57CHL1  H15B 6644   1.404   5.348   9.832 -0.4472 -0.3056 -1.0951
   57CHL1   C16 6645   1.483   5.302   9.647  0.0191 -0.5631 -0.1597
   57CHL1  H16A 6646   1.451   5.206   9.601 -0.0718  0.2097 -1.7883
   57CHL1  H16B 6647   1.420   5.388   9.616 -1.0480 -0.9430  0.8941
   57CHL1   C17 6648   1.624   5.331   9.594 -0.3271 -0.4418  1.1261
   57CHL1   H17 6649   1.636   5.440   9.579 -0.1421 -0.7071 -0.9188
   57CHL1   C13 6650   1.713   5.285   9.706  0.8201 -0.2646  0.5490
   57CHL1   C18 6651   1.727   5.133   9.699 -0.7339 -0.4714  0.3106
   57CHL1  H18A 6652   1.793   5.098   9.617  0.9997  0.8660  1.0756
   57CHL1  H18B 6653   1.782   5.097   9.788  1.2285 -0.0039 -0.6623
   57CHL1  H18C 6654   1.629   5.081   9.701 -1.0271 -0.0565 -1.4280
   57CHL1   C12 6655   1.849   5.353   9.720 -0.1870  0.9243  0.2756
   57CHL1  H12A 6656   1.911   5.305   9.641  0.6785  0.9427  0.9353
   57CHL1  H12B 6657   1.834   5.463   9.710 -3.5169  0.6082  0.6324
   57CHL1   C11 6658   1.917   5.320   9.857 -0.6306 -0.0768 -0.2868
   57CHL1  H11A 6659   1.945   5.212   9.867 -0.5282  0.0042  0.3825
   57CHL1  H11B 6660   2.011   5.378   9.868  0.2831 -1.3409 -1.0555
   57CHL1    C9 6661   1.824   5.343   9.980 -0.5472  0.2130 -0.3247
   57CHL1    H9 6662   1.793   5.450   9.980  2.3656  1.1519 -1.2181
   57CHL1   C10 6663   1.883   5.323  10.122 -0.3284  0.2326  0.7776
   57CHL1   C19 6664   1.952   5.184  10.135  0.1254  0.1388 -0.2267
   57CHL1  H19A 6665   2.044   5.169  10.074  0.2372 -0.4306  0.0778
   57CHL1  H19B 6666   1.984   5.170  10.241  1.1239  0.9048 -0.4089
   57CHL1  H19C 6667   1.871   5.115  10.102  1.2615 -1.7445  0.7630
   57CHL1    C1 6668   1.998   5.431  10.138 -0.5571 -0.4668 -0.0995
   57CHL1   H1A 6669   2.077   5.395  10.069 -0.4049 -2.2435  0.9653
   57CHL1   H1B 6670   1.953   5.526  10.101 -0.3729 -0.9142 -1.5499
   57CHL1    C2 6671   2.056   5.442  10.283 -0.4028  1.0645  0.6447
   57CHL1   H2A 6672   2.127   5.528  10.279 -1.6961  2.1985  1.1985
   57CHL1   H2B 6673   2.117   5.353  10.308 -0.5932  0.5896 -0.5094
   57CHL1   C20 6674   1.641   5.267   9.453 -0.0716  0.1904  0.0975
   57CHL1   H20 6675   1.653   5.158   9.472  0.6084 -0.1444 -2.0368
   57CHL1   C21 6676   1.765   5.328   9.386  0.0003 -0.2970  1.1617
   57CHL1  H21A 6677   1.780   5.280   9.287  0.7535  1.3380  0.4398
   57CHL1  H21B 6678   1.856   5.308   9.446  0.5534 -0.9571  0.1281
   57CHL1  H21C 6679   1.744   5.435   9.366  0.4861 -0.5944 -1.2971
   57CHL1   C22 6680   1.521   5.289   9.358  0.0855 -0.0817  0.4984
   57CHL1  H22A 6681   1.424   5.281   9.412 -0.6137  3.9067  0.1124
   57CHL1  H22B 6682   1.530   5.390   9.312  0.8442  0.4164  1.6702
   57CHL1   C23 6683   1.529   5.186   9.243 -0.5882 -0.5387  0.1970
   57CHL1  H23A 6684   1.624   5.197   9.186 -0.6555  0.5437  0.2807
   57CHL1  H23B 6685   1.529   5.087   9.295  1.0609  0.1815  1.6951
   57CHL1   C24 6686   1.406   5.202   9.148 -0.7518 -0.1783 -0.0176
   57CHL1  H24A 6687   1.385   5.107   9.095 -1.7890 -0.5617  1.0347
   57CHL1  H24B 6688   1.310   5.203   9.205 -1.0169 -2.1835 -0.3823
   57CHL1   C25 6689   1.410   5.315   9.048 -0.4920  0.7313 -0.3877
   57CHL1   H25 6690   1.417   5.400   9.119 -1.6759 -1.4757  2.5568
   57CHL1   C26 6691   1.531   5.308   8.953  0.3400  0.4116  0.1128
   57CHL1  H26A 6692   1.534   5.202   8.918 -1.7918  0.0580  0.8379
   57CHL1  H26B 6693   1.515   5.380   8.871 -1.9954 -0.7177 -0.5142
   57CHL1  H26C 6694   1.627   5.336   9.001  0.2405  1.2093 -0.1477
   57CHL1   C27 6695   1.273   5.318   8.970 -0.3069  0.2007 -0.0725
   57CHL1  H27A 6696   1.183   5.320   9.036 -0.3491  1.1927 -0.1483
   57CHL1  H27B 6697   1.260   5.416   8.920 -0.7228  1.4887  2.4008
   57CHL1  H27C 6698   1.285   5.230   8.903 -1.7554 -1.3929  1.6044
   58CHL1    C3 6699   1.436   2.298  10.059 -0.0695  0.1096 -0.3325
   58CHL1    H3 6700   1.480   2.198  10.037  0.3359 -0.0064  0.9181
   58CHL1    O3 6701   1.484   2.351  10.182  0.0398  0.5324 -0.4180
   58CHL1   H3' 6702   1.415   2.331  10.246  0.7002 -1.2860 -0.2079
   58CHL1    C4 6703   1.480   2.397   9.951 -0.0538 -0.1744 -0.3109
   58CHL1   H4A 6704   1.435   2.497   9.972  0.3070 -0.1041  0.1269
   58CHL1   H4B 6705   1.589   2.413   9.948 -0.0764 -0.1079 -0.8587
   58CHL1    C5 6706   1.439   2.344   9.816 -0.1143 -0.3453 -1.0148
   58CHL1    C6 6707   1.527   2.352   9.715 -0.7965 -0.0834 -0.4893
   58CHL1    H6 6708   1.630   2.392   9.721 -0.9570  0.0578  3.0375
   58CHL1    C7 6709   1.477   2.338   9.574 -0.5031 -0.1634 -0.1100
   58CHL1   H7A 6710   1.495   2.431   9.517  0.5930 -0.5800 -0.4589
   58CHL1   H7B 6711   1.530   2.254   9.525  0.5484  0.1511  0.4687
   58CHL1    C8 6712   1.326   2.309   9.550  0.6674 -0.1367  0.3750
   58CHL1    H8 6713   1.276   2.408   9.550 -1.1235 -1.0052  1.0210
   58CHL1   C14 6714   1.293   2.237   9.420  0.1311  0.4796 -0.6841
   58CHL1   H14 6715   1.338   2.136   9.428 -1.7070 -0.2896  0.7176
   58CHL1   C15 6716   1.349   2.294   9.291  0.1046  0.2580  0.2317
   58CHL1  H15A 6717   1.329   2.403   9.292 -0.0133  0.2396  1.3063
   58CHL1  H15B 6718   1.458   2.282   9.277 -0.1176 -0.5330 -0.8799
   58CHL1   C16 6719   1.279   2.206   9.184 -0.5530  0.3274 -0.0293
   58CHL1  H16A 6720   1.221   2.260   9.106 -1.0302 -1.1784 -0.7565
   58CHL1  H16B 6721   1.360   2.138   9.153  0.1450  0.7629  0.7820
   58CHL1   C17 6722   1.159   2.130   9.263  0.0215  0.4398 -0.4289
   58CHL1   H17 6723   1.205   2.031   9.282 -0.3440  0.1810 -0.8728
   58CHL1   C13 6724   1.152   2.203   9.395  0.4688  0.2224 -0.7926
   58CHL1   C18 6725   1.068   2.335   9.381  0.3445  0.2452  0.3593
   58CHL1  H18A 6726   1.113   2.397   9.299  3.1777 -0.2977  1.3900
   58CHL1  H18B 6727   0.963   2.310   9.356  0.8414 -0.9290 -0.6864
   58CHL1  H18C 6728   1.077   2.397   9.472 -1.7541  0.2924  0.5756
   58CHL1   C12 6729   1.098   2.124   9.513 -0.0371 -0.0357  0.8807
   58CHL1  H12A 6730   0.990   2.112   9.493  0.1710 -0.2297 -0.2115
   58CHL1  H12B 6731   1.147   2.024   9.518  2.8300  1.1554 -0.5935
   58CHL1   C11 6732   1.115   2.201   9.642 -0.0944 -0.4171  0.4302
   58CHL1  H11A 6733   1.050   2.291   9.638 -0.8791 -1.0101 -1.2040
   58CHL1  H11B 6734   1.074   2.139   9.724 -2.1501 -1.0224 -0.9793
   58CHL1    C9 6735   1.264   2.231   9.673 -0.6041 -0.5765 -0.1352
   58CHL1    H9 6736   1.310   2.130   9.679 -0.5520 -0.4827  4.1086
   58CHL1   C10 6737   1.287   2.302   9.809  0.3342 -0.1649 -0.1134
   58CHL1   C19 6738   1.211   2.433   9.817 -1.1198  0.6664  0.3525
   58CHL1  H19A 6739   1.249   2.502   9.739 -1.3977 -0.1454 -0.5209
   58CHL1  H19B 6740   1.107   2.415   9.782 -0.5698  2.9478 -2.9578
   58CHL1  H19C 6741   1.204   2.488   9.913 -1.3671 -0.4820  1.0170
   58CHL1    C1 6742   1.246   2.211   9.929  0.2912 -0.4340 -0.1449
   58CHL1   H1A 6743   1.137   2.198   9.913  0.7999 -2.9991 -2.3162
   58CHL1   H1B 6744   1.298   2.113   9.920  0.8631 -0.1442 -0.0177
   58CHL1    C2 6745   1.290   2.276  10.063  0.3896 -0.4463 -0.1560
   58CHL1   H2A 6746   1.254   2.204  10.139 -1.0793 -1.2444 -1.5496
   58CHL1   H2B 6747   1.240   2.374  10.080  1.0788 -0.2213  0.6658
   58CHL1   C20 6748   1.034   2.103   9.173  0.3316  0.5966 -0.5318
   58CHL1   H20 6749   0.977   2.198   9.175 -1.4794 -0.4618  0.4315
   58CHL1   C21 6750   0.941   1.999   9.240 -0.5300  0.2404 -0.4221
   58CHL1  H21A 6751   1.003   1.908   9.258  2.8119  2.6620  1.5058
   58CHL1  H21B 6752   0.858   1.979   9.169 -0.6212  1.4227 -0.6665
   58CHL1  H21C 6753   0.893   2.038   9.332  0.4362  3.5235 -1.1797
   58CHL1   C22 6754   1.046   2.071   9.024 -0.1850 -0.4336  0.0024
   58CHL1  H22A 6755   0.943   2.065   8.983 -0.4879 -0.7148  0.7787
   58CHL1  H22B 6756   1.104   2.152   8.975 -0.1624 -0.0961  0.5716
   58CHL1   C23 6757   1.112   1.933   8.989 -0.3074  0.5793 -0.1345
   58CHL1  H23A 6758   1.213   1.929   9.033 -0.6355  2.0573  0.8317
   58CHL1  H23B 6759   1.058   1.847   9.036  0.1913  0.9372  1.1277
   58CHL1   C24 6760   1.135   1.906   8.834 -0.3932  0.3138  0.0962
   58CHL1  H24A 6761   1.192   1.812   8.825 -0.6118  0.3668 -2.8494
   58CHL1  H24B 6762   1.038   1.893   8.780  0.5864 -2.0810 -1.2333
   58CHL1   C25 6763   1.207   2.020   8.762  0.0186  0.0553  0.1983
   58CHL1   H25 6764   1.142   2.110   8.761  1.6390  1.2923 -1.0741
   58CHL1   C26 6765   1.346   2.051   8.821 -0.3657  0.0342  0.2051
   58CHL1  H26A 6766   1.398   2.143   8.786 -0.8508  0.5880  0.9239
   58CHL1  H26B 6767   1.339   2.062   8.931 -0.1126 -2.0165  0.4623
   58CHL1  H26C 6768   1.404   1.961   8.790 -2.2504 -0.8888 -0.8859
   58CHL1   C27 6769   1.217   1.989   8.611 -0.0038  0.1719  0.7086
   58CHL1  H27A 6770   1.112   2.004   8.575 -0.0020  0.6620  0.9049
   58CHL1  H27B 6771   1.279   2.061   8.553 -2.9061  0.9308 -1.7434
   58CHL1  H27C 6772   1.235   1.882   8.587 -0.2631  0.1989  0.3707
   59CHL1    C3 6773   0.872   1.851  10.374  0.5852  0.8083 -0.7617
   59CHL1    H3 6774   0.782   1.791  10.349  1.0396 -0.6809  0.9492
   59CHL1    O3 6775   0.881   1.868  10.519  0.2488  0.5258  0.0595
   59CHL1   H3' 6776   0.974   1.868  10.542  0.1996 -0.6978  0.3187
   59CHL1    C4 6777   0.996   1.771  10.340 -0.1698  0.2173 -0.1973
   59CHL1   H4A 6778   1.088   1.830  10.364  0.6596 -1.3429  0.6194
   59CHL1   H4B 6779   1.002   1.676  10.398  0.0846 -0.7616 -1.7663
   59CHL1    C5 6780   0.978   1.729  10.195  0.7609  0.0372 -0.6127
   59CHL1    C6 6781   0.968   1.597  10.157 -0.7004  0.0635  0.4314
   59CHL1    H6 6782   0.988   1.519  10.231 -4.2892  0.3349  1.9236
   59CHL1    C7 6783   0.930   1.544  10.022 -0.0819 -0.2918 -0.1015
   59CHL1   H7A 6784   0.982   1.454   9.983  1.8894  0.6115  0.2756
   59CHL1   H7B 6785   0.824   1.512  10.019 -0.4636  0.4768  2.6724
   59CHL1    C8 6786   0.952   1.656   9.918  0.1846 -0.2147  0.4523
   59CHL1    H8 6787   1.059   1.670   9.891  0.3246  0.9291  1.4980
   59CHL1   C14 6788   0.874   1.609   9.788  0.7051  0.4867  0.4449
   59CHL1   H14 6789   0.768   1.620   9.822  0.9099 -2.6586  2.5184
   59CHL1   C15 6790   0.901   1.466   9.744  0.2596  0.4037  0.2000
   59CHL1  H15A 6791   1.011   1.452   9.741  0.2092 -0.1505  0.6730
   59CHL1  H15B 6792   0.857   1.389   9.812 -1.1254  0.7822 -0.2348
   59CHL1   C16 6793   0.848   1.467   9.593  0.6929  0.2630 -0.4912
   59CHL1  H16A 6794   0.928   1.444   9.519 -1.0194 -1.4901 -1.9058
   59CHL1  H16B 6795   0.762   1.398   9.586  0.7368  0.0346  0.8808
   59CHL1   C17 6796   0.809   1.620   9.559 -0.1621  0.2395 -0.4287
   59CHL1   H17 6797   0.699   1.619   9.576 -0.2596  1.8750 -0.8224
   59CHL1   C13 6798   0.882   1.703   9.669  0.7932  0.1123 -0.0703
   59CHL1   C18 6799   1.033   1.725   9.627 -0.5493  0.4657 -0.8440
   59CHL1  H18A 6800   1.088   1.775   9.710 -1.8036 -0.6939  0.7581
   59CHL1  H18B 6801   1.093   1.632   9.610  0.4824  1.3092 -1.9811
   59CHL1  H18C 6802   1.043   1.783   9.533 -1.8627 -0.4838 -1.6004
   59CHL1   C12 6803   0.816   1.834   9.713 -0.0218  0.3306  0.9622
   59CHL1  H12A 6804   0.832   1.911   9.635  0.6327 -0.8355 -0.1090
   59CHL1  H12B 6805   0.706   1.827   9.724 -0.3101  1.6447 -0.6656
   59CHL1   C11 6806   0.887   1.892   9.839 -0.5506  0.5562 -0.3357
   59CHL1  H11A 6807   0.989   1.926   9.811  0.8994 -0.3429  3.2333
   59CHL1  H11B 6808   0.837   1.990   9.852  0.5273  1.2468 -1.1729
   59CHL1    C9 6809   0.894   1.786   9.956 -0.0706 -0.5973  1.0016
   59CHL1    H9 6810   0.787   1.765   9.978  0.1681 -1.7983  1.0784
   59CHL1   C10 6811   0.946   1.845  10.096 -0.3925  0.1933 -0.7701
   59CHL1   C19 6812   1.076   1.916  10.071  0.2918 -0.0195 -0.3399
   59CHL1  H19A 6813   1.133   1.930  10.166 -0.0542  0.5192 -0.2104
   59CHL1  H19B 6814   1.146   1.845  10.021 -0.1696 -0.6799 -0.0596
   59CHL1  H19C 6815   1.080   2.015  10.021 -1.5141 -0.6290 -1.7941
   59CHL1    C1 6816   0.848   1.950  10.151 -0.3115 -0.0479 -0.1452
   59CHL1   H1A 6817   0.860   2.043  10.091  0.1066 -1.6535 -2.7036
   59CHL1   H1B 6818   0.740   1.923  10.153 -0.5356 -0.4875 -5.1239
   59CHL1    C2 6819   0.875   1.981  10.301  0.1272 -0.0581 -0.2550
   59CHL1   H2A 6820   0.796   2.052  10.335  0.4694 -0.2836  1.0833
   59CHL1   H2B 6821   0.969   2.037  10.319  0.3101  0.4527 -2.5303
   59CHL1   C20 6822   0.829   1.662   9.407  0.7695  0.0389 -0.3187
   59CHL1   H20 6823   0.920   1.724   9.392  0.5907  0.6285  0.9410
   59CHL1   C21 6824   0.707   1.765   9.385 -0.1128 -0.3753  0.3081
   59CHL1  H21A 6825   0.615   1.720   9.341 -0.0852  0.6061 -0.7898
   59CHL1  H21B 6826   0.718   1.851   9.316 -1.4555 -0.0230  0.5080
   59CHL1  H21C 6827   0.680   1.816   9.479  2.3237  2.1702 -0.2441
   59CHL1   C22 6828   0.828   1.537   9.311 -0.2920 -0.0906 -0.2423
   59CHL1  H22A 6829   0.918   1.474   9.328  0.3922  0.6571 -0.9428
   59CHL1  H22B 6830   0.735   1.483   9.337  0.4534 -0.8875  0.8730
   59CHL1   C23 6831   0.836   1.569   9.157 -0.0281 -0.7658 -0.2977
   59CHL1  H23A 6832   0.745   1.630   9.141  1.5691  1.3415 -2.0133
   59CHL1  H23B 6833   0.926   1.633   9.139 -0.1605 -0.5933 -0.3449
   59CHL1   C24 6834   0.840   1.437   9.074  0.3419  0.1949  0.4708
   59CHL1  H24A 6835   0.929   1.377   9.104 -0.4634 -0.5972  1.3208
   59CHL1  H24B 6836   0.747   1.390   9.113 -0.5221  1.5123  0.0642
   59CHL1   C25 6837   0.825   1.435   8.921 -0.0844  0.1408  0.3254
   59CHL1   H25 6838   0.738   1.498   8.892 -0.4813 -0.0591  1.0545
   59CHL1   C26 6839   0.955   1.499   8.860  0.6401  0.6391  0.2900
   59CHL1  H26A 6840   1.034   1.435   8.905 -1.2958 -2.0878  0.0561
   59CHL1  H26B 6841   0.950   1.473   8.752 -1.1345  3.5297 -0.4381
   59CHL1  H26C 6842   0.961   1.610   8.867 -0.0731  0.6223  1.5246
   59CHL1   C27 6843   0.805   1.290   8.878  0.0151 -0.3822 -0.0190
   59CHL1  H27A 6844   0.728   1.243   8.944  1.4648 -1.0102  1.2890
   59CHL1  H27B 6845   0.766   1.283   8.774 -0.5719  1.2259  0.0496
   59CHL1  H27C 6846   0.900   1.237   8.899 -0.0522  0.0672  1.5415
   60CHL1    C3 6847   2.951   1.753  10.041 -0.0657  0.0969 -0.0779
   60CHL1    H3 6848   2.843   1.745  10.017 -0.0575  1.9809 -0.8888
   60CHL1    O3 6849   2.974   1.772  10.182 -0.5143 -0.6498  0.5058
   60CHL1   H3' 6850   3.064   1.750  10.206 -0.2843 -0.9684 -0.5709
   60CHL1    C4 6851   3.012   1.622  10.000  0.2278 -0.5694  0.1015
   60CHL1   H4A 6852   3.121   1.634  10.019  0.7641  0.0174 -2.7505
   60CHL1   H4B 6853   2.984   1.541  10.071  1.1189 -0.1694  0.9285
   60CHL1    C5 6854   3.002   1.595   9.849 -0.2268 -0.5388 -0.1805
   60CHL1    C6 6855   2.948   1.478   9.803 -0.0613 -0.0732  0.2703
   60CHL1    H6 6856   2.923   1.401   9.878 -0.8985 -0.5148 -0.4408
   60CHL1    C7 6857   2.948   1.442   9.660 -0.2382  0.4857  0.4844
   60CHL1   H7A 6858   3.000   1.345   9.656  0.5000  0.8779  0.4833
   60CHL1   H7B 6859   2.848   1.430   9.613 -1.1651 -0.9303  2.6396
   60CHL1    C8 6860   3.039   1.528   9.571 -0.3108  0.3461  1.0348
   60CHL1    H8 6861   3.149   1.518   9.583  0.3645 -1.5287 -3.9388
   60CHL1   C14 6862   3.008   1.494   9.420 -0.1393  0.8119 -0.3008
   60CHL1   H14 6863   2.903   1.521   9.398 -0.3530  0.6466  0.4562
   60CHL1   C15 6864   3.026   1.351   9.366 -0.4937 -0.4192 -0.7803
   60CHL1  H15A 6865   3.113   1.311   9.422 -0.8787 -1.1035 -0.6650
   60CHL1  H15B 6866   2.943   1.281   9.389 -0.8764  0.1025 -0.5291
   60CHL1   C16 6867   3.048   1.372   9.216 -0.7939 -0.6238  0.3464
   60CHL1  H16A 6868   3.143   1.328   9.181 -1.6993 -2.2884 -0.1523
   60CHL1  H16B 6869   2.966   1.314   9.167 -1.0735  0.6222 -0.7121
   60CHL1   C17 6870   3.029   1.527   9.192  0.0383 -0.4090  0.3409
   60CHL1   H17 6871   2.921   1.551   9.194  0.1260 -0.0304  0.4171
   60CHL1   C13 6872   3.085   1.589   9.324  0.4844 -0.6498  0.3848
   60CHL1   C18 6873   3.244   1.575   9.335  0.2173  0.2806  0.0339
   60CHL1  H18A 6874   3.280   1.471   9.320 -0.5651  0.2050 -1.5179
   60CHL1  H18B 6875   3.289   1.645   9.261  0.4501 -0.3511 -0.4310
   60CHL1  H18C 6876   3.279   1.601   9.437  1.9369  0.8345 -0.6664
   60CHL1   C12 6877   3.036   1.738   9.357 -0.2089  0.2640  0.2245
   60CHL1  H12A 6878   3.078   1.808   9.282 -1.3332 -0.4880 -1.1652
   60CHL1  H12B 6879   2.926   1.747   9.341 -0.2087 -2.1035 -1.6854
   60CHL1   C11 6880   3.067   1.777   9.500 -0.0705 -0.1843  0.1550
   60CHL1  H11A 6881   3.176   1.784   9.519 -0.3497  0.9670  1.4077
   60CHL1  H11B 6882   3.038   1.882   9.522  0.7798 -0.5038  3.3060
   60CHL1    C9 6883   3.012   1.678   9.607 -0.1953  0.1975 -0.0126
   60CHL1    H9 6884   2.902   1.692   9.611 -0.2657  0.0260 -1.0593
   60CHL1   C10 6885   3.059   1.709   9.760 -0.1495  0.0276 -0.0746
   60CHL1   C19 6886   3.210   1.725   9.768 -0.4634 -0.1345  0.3542
   60CHL1  H19A 6887   3.237   1.711   9.875  0.1142  0.7427  0.3277
   60CHL1  H19B 6888   3.253   1.647   9.701 -1.2156  0.4968 -0.8991
   60CHL1  H19C 6889   3.238   1.827   9.735 -2.0790  1.4302  3.3603
   60CHL1    C1 6890   3.003   1.847   9.815  0.5602 -0.7641  0.1661
   60CHL1   H1A 6891   3.047   1.932   9.758  0.4678 -1.2046 -0.5681
   60CHL1   H1B 6892   2.901   1.850   9.770  1.4301  2.0006 -1.9240
   60CHL1    C2 6893   3.010   1.873   9.966 -0.5336 -0.4884  0.0932
   60CHL1   H2A 6894   2.954   1.967   9.989 -0.7742 -0.7773  0.6963
   60CHL1   H2B 6895   3.114   1.886  10.002 -0.9001 -0.2414  1.0891
   60CHL1   C20 6896   3.101   1.562   9.060  0.6109 -0.7251  0.6149
   60CHL1   H20 6897   3.210   1.541   9.059  1.3238  2.5473 -0.1946
   60CHL1   C21 6898   3.082   1.713   9.035 -0.2681  0.0747 -0.2222
   60CHL1  H21A 6899   3.101   1.737   8.929  0.9852  0.1555  0.0070
   60CHL1  H21B 6900   3.165   1.754   9.097 -0.4003 -2.0356  1.4883
   60CHL1  H21C 6901   2.981   1.742   9.072  0.2157  0.7120  0.6263
   60CHL1   C22 6902   3.047   1.492   8.936  0.4562 -0.2081 -0.3826
   60CHL1  H22A 6903   3.090   1.544   8.848 -2.2007  2.1481 -0.4124
   60CHL1  H22B 6904   3.092   1.390   8.942  1.0258  0.0672  0.2657
   60CHL1   C23 6905   2.893   1.484   8.936 -0.1748 -0.1136  0.7576
   60CHL1  H23A 6906   2.848   1.450   9.032 -0.2354  1.5883  1.3699
   60CHL1  H23B 6907   2.871   1.591   8.913  1.0309 -0.2076 -0.9595
   60CHL1   C24 6908   2.832   1.399   8.827  0.0452  0.6519  0.0930
   60CHL1  H24A 6909   2.863   1.296   8.852 -0.2046  0.5895  0.1503
   60CHL1  H24B 6910   2.721   1.401   8.834  0.0556  0.9406  0.1788
   60CHL1   C25 6911   2.872   1.436   8.684 -0.5497  0.4050 -0.5863
   60CHL1   H25 6912   2.983   1.436   8.682 -0.4812  1.0759  1.4093
   60CHL1   C26 6913   2.821   1.348   8.567  0.0958  0.2823  1.3981
   60CHL1  H26A 6914   2.836   1.240   8.587  1.8447  0.0259 -0.9239
   60CHL1  H26B 6915   2.715   1.379   8.551 -0.5099 -0.8729  2.8389
   60CHL1  H26C 6916   2.870   1.378   8.472 -0.6196 -0.0624  0.9078
   60CHL1   C27 6917   2.833   1.581   8.646 -0.1537  0.0969 -0.6331
   60CHL1  H27A 6918   2.874   1.598   8.544  0.4439  1.0622 -0.2519
   60CHL1  H27B 6919   2.723   1.591   8.639  0.0288  2.2240 -1.2249
   60CHL1  H27C 6920   2.877   1.657   8.715  1.6782 -0.4712 -1.1172
   61CHL1    C3 6921   5.701   1.682  10.427  0.2452 -0.5311  0.0482
   61CHL1    H3 6922   5.595   1.716  10.426  1.0490  2.1714  0.3407
   61CHL1    O3 6923   5.750   1.671  10.558 -0.0763  0.6256 -0.7154
   61CHL1   H3' 6924   5.822   1.733  10.568 -0.0220  0.1652  2.5913
   61CHL1    C4 6925   5.716   1.558  10.339 -0.3201  0.1429 -0.6354
   61CHL1   H4A 6926   5.825   1.536  10.338  0.2647  2.7476 -0.4598
   61CHL1   H4B 6927   5.658   1.479  10.391 -0.9802  1.8754  1.3960
   61CHL1    C5 6928   5.669   1.562  10.196  0.2153 -0.1862  0.1362
   61CHL1    C6 6929   5.577   1.478  10.153 -0.6500 -0.5342  0.8497
   61CHL1    H6 6930   5.551   1.386  10.207 -0.4150  0.1045  2.0974
   61CHL1    C7 6931   5.538   1.488  10.009  0.9805  0.3857 -0.1008
   61CHL1   H7A 6932   5.548   1.392   9.955  1.7965  0.7989 -0.7224
   61CHL1   H7B 6933   5.432   1.522  10.008  0.5670 -0.8471  0.1190
   61CHL1    C8 6934   5.611   1.593   9.920 -0.8515  0.1840  0.4143
   61CHL1    H8 6935   5.709   1.550   9.891 -0.2435  1.5587  0.3206
   61CHL1   C14 6936   5.531   1.606   9.789  0.4198 -0.4280 -0.7087
   61CHL1   H14 6937   5.431   1.644   9.819  0.3017  0.5398 -2.2191
   61CHL1   C15 6938   5.509   1.484   9.695  0.4618 -0.6432 -0.1404
   61CHL1  H15A 6939   5.610   1.439   9.684  0.7288 -0.3886  1.0639
   61CHL1  H15B 6940   5.446   1.401   9.735 -1.6041 -0.3910 -2.6243
   61CHL1   C16 6941   5.449   1.547   9.566  0.5133  0.7103 -0.6536
   61CHL1  H16A 6942   5.504   1.498   9.483  0.9511 -3.4215  1.7924
   61CHL1  H16B 6943   5.341   1.520   9.557 -0.5044  3.4839  1.6600
   61CHL1   C17 6944   5.470   1.696   9.580 -0.8137  0.0849  1.0260
   61CHL1   H17 6945   5.381   1.740   9.629 -0.9334 -1.1913  2.0137
   61CHL1   C13 6946   5.584   1.708   9.686 -0.2083 -0.5608  0.4329
   61CHL1   C18 6947   5.726   1.669   9.632  0.6489  0.6884  0.5018
   61CHL1  H18A 6948   5.767   1.752   9.570  1.5221 -0.2583 -0.2377
   61CHL1  H18B 6949   5.799   1.650   9.714 -0.7149 -1.0539  1.3838
   61CHL1  H18C 6950   5.728   1.576   9.571  0.0778 -0.4916  2.2004
   61CHL1   C12 6951   5.588   1.846   9.767 -0.8930 -0.0438  0.8906
   61CHL1  H12A 6952   5.628   1.934   9.713 -1.7849  0.3323  0.8317
   61CHL1  H12B 6953   5.486   1.881   9.793 -0.2684  2.6346 -0.0069
   61CHL1   C11 6954   5.687   1.829   9.894  0.1142  0.5235  0.1233
   61CHL1  H11A 6955   5.784   1.797   9.849 -0.8094 -0.4800 -1.2080
   61CHL1  H11B 6956   5.693   1.925   9.950  0.8614  0.4139  0.2445
   61CHL1    C9 6957   5.633   1.722   9.990  0.3704  0.2951 -0.0048
   61CHL1    H9 6958   5.534   1.756  10.028 -0.3374 -1.5122 -0.1410
   61CHL1   C10 6959   5.714   1.688  10.121 -0.5576  0.1214  0.5874
   61CHL1   C19 6960   5.863   1.680  10.071  0.4309 -0.5287 -0.4960
   61CHL1  H19A 6961   5.909   1.770  10.025  0.9754 -0.3909  0.2997
   61CHL1  H19B 6962   5.927   1.652  10.158 -1.5916 -2.4277  0.4829
   61CHL1  H19C 6963   5.888   1.598  10.001  1.1186 -0.7470 -0.0110
   61CHL1    C1 6964   5.706   1.815  10.218 -0.4303  0.5950  0.6219
   61CHL1   H1A 6965   5.743   1.903  10.163 -0.5144  0.1474 -0.1617
   61CHL1   H1B 6966   5.599   1.845  10.226 -1.2633 -1.3222 -1.9741
   61CHL1    C2 6967   5.774   1.795  10.354 -0.0304  0.1775  0.5492
   61CHL1   H2A 6968   5.761   1.888  10.413  1.2810 -0.3672  1.7544
   61CHL1   H2B 6969   5.885   1.785  10.353  0.0295  0.7923  0.1657
   61CHL1   C20 6970   5.485   1.768   9.440 -0.9521  0.4452  0.7427
   61CHL1   H20 6971   5.568   1.717   9.386 -0.6261  0.7004  0.9999
   61CHL1   C21 6972   5.500   1.918   9.458 -0.1557 -0.3812  0.2775
   61CHL1  H21A 6973   5.542   1.968   9.368  2.3814  0.7792  1.9739
   61CHL1  H21B 6974   5.580   1.936   9.534  1.4450  0.2877 -1.4759
   61CHL1  H21C 6975   5.406   1.968   9.489  0.7496  0.3224  2.0331
   61CHL1   C22 6976   5.367   1.742   9.344 -0.0876 -0.3777  0.1997
   61CHL1  H22A 6977   5.349   1.632   9.342 -1.0841 -0.2315  0.3515
   61CHL1  H22B 6978   5.276   1.797   9.377  0.8050  0.3352  1.5518
   61CHL1   C23 6979   5.395   1.783   9.202  0.4253  0.4005  0.4188
   61CHL1  H23A 6980   5.442   1.883   9.204  2.4587 -0.5023  1.0610
   61CHL1  H23B 6981   5.462   1.710   9.152 -2.2794 -1.1653 -1.1993
   61CHL1   C24 6982   5.267   1.777   9.111  0.9417 -0.2618  0.7908
   61CHL1  H24A 6983   5.238   1.670   9.106 -1.0058  0.2728 -0.1234
   61CHL1  H24B 6984   5.184   1.830   9.163 -0.6203 -2.1644  0.3708
   61CHL1   C25 6985   5.277   1.843   8.974  0.1080  1.0331 -0.3657
   61CHL1   H25 6986   5.387   1.834   8.956 -0.1328 -2.9216 -0.6485
   61CHL1   C26 6987   5.214   1.764   8.854 -0.0815 -0.2636  0.2128
   61CHL1  H26A 6988   5.222   1.814   8.755 -1.4762  0.7542  0.5849
   61CHL1  H26B 6989   5.267   1.669   8.832  1.3933  0.7189 -0.7346
   61CHL1  H26C 6990   5.106   1.750   8.875 -0.3364  2.2998  0.9784
   61CHL1   C27 6991   5.235   1.989   8.980  0.4482 -0.5931  0.2138
   61CHL1  H27A 6992   5.238   2.032   8.878  0.2784  3.1223  1.6351
   61CHL1  H27B 6993   5.128   1.990   9.011 -0.6442 -1.8217 -3.0831
   61CHL1  H27C 6994   5.303   2.057   9.036 -0.3923  0.7142 -0.3189
   62CHL1    C3 6995   0.633   4.201   9.995  0.3545 -0.1063 -0.0713
   62CHL1    H3 6996   0.563   4.119  10.021 -1.4564  0.6520 -2.2363
   62CHL1    O3 6997   0.654   4.249  10.129  0.4550  0.4974  0.4210
   62CHL1   H3' 6998   0.625   4.340  10.135  0.1339  0.3233  2.1339
   62CHL1    C4 6999   0.765   4.170   9.938  0.1797 -0.0372  0.1760
   62CHL1   H4A 7000   0.830   4.259   9.951  0.6963 -0.6202  1.7017
   62CHL1   H4B 7001   0.819   4.084   9.982 -0.2754 -0.3218  0.1831
   62CHL1    C5 7002   0.767   4.146   9.792 -0.1414 -0.4755  0.8213
   62CHL1    C6 7003   0.826   4.041   9.730 -0.4874  0.5428 -0.5854
   62CHL1    H6 7004   0.895   3.979   9.789  0.6482  2.4735  0.2071
   62CHL1    C7 7005   0.819   4.009   9.585 -0.2448  0.4158 -0.0272
   62CHL1   H7A 7006   0.917   3.982   9.540 -0.1057 -1.9895  1.5078
   62CHL1   H7B 7007   0.752   3.921   9.577 -1.5590  1.2027  1.6442
   62CHL1    C8 7008   0.770   4.134   9.501  0.4163  0.0314  0.4329
   62CHL1    H8 7009   0.858   4.202   9.492  0.7573 -0.6200 -1.8566
   62CHL1   C14 7010   0.746   4.095   9.356 -0.3357 -0.0826  0.0341
   62CHL1   H14 7011   0.654   4.034   9.354 -0.7240  0.5007 -0.1001
   62CHL1   C15 7012   0.854   4.014   9.289  0.0450  1.0043  0.0222
   62CHL1  H15A 7013   0.944   4.064   9.330  0.5714 -1.4223  2.0806
   62CHL1  H15B 7014   0.854   3.910   9.330  1.8086  1.4282  1.1829
   62CHL1   C16 7015   0.824   4.032   9.140  0.2016 -0.4935  0.2621
   62CHL1  H16A 7016   0.907   4.070   9.076 -0.6630  1.8731  0.4506
   62CHL1  H16B 7017   0.792   3.933   9.101  3.4371 -2.2559  1.6182
   62CHL1   C17 7018   0.708   4.131   9.132 -0.8784  0.5066  0.3820
   62CHL1   H17 7019   0.611   4.078   9.147 -0.6238  0.1549  0.8244
   62CHL1   C13 7020   0.711   4.211   9.260 -0.3811  0.0747 -0.4214
   62CHL1   C18 7021   0.818   4.326   9.255 -0.4361  0.1776 -0.6785
   62CHL1  H18A 7022   0.792   4.397   9.174 -0.5447 -3.1181 -3.7813
   62CHL1  H18B 7023   0.834   4.390   9.345 -1.7224 -0.0720 -0.2521
   62CHL1  H18C 7024   0.913   4.276   9.225 -0.9380 -2.2648  1.4024
   62CHL1   C12 7025   0.581   4.272   9.314  1.0239  0.2354 -0.3383
   62CHL1  H12A 7026   0.547   4.362   9.260  0.6532  2.1993  2.9425
   62CHL1  H12B 7027   0.498   4.200   9.301 -0.4855  1.6818  0.9038
   62CHL1   C11 7028   0.590   4.308   9.461  0.0525  0.0214  0.4155
   62CHL1  H11A 7029   0.649   4.400   9.477 -2.7822  1.4762  3.8028
   62CHL1  H11B 7030   0.492   4.342   9.501 -0.2416  0.0657 -0.3241
   62CHL1    C9 7031   0.651   4.200   9.559  0.0505 -0.2465 -0.5916
   62CHL1    H9 7032   0.563   4.132   9.564  0.3391 -0.5511  0.6656
   62CHL1   C10 7033   0.679   4.248   9.709  0.2999  0.3384 -0.6465
   62CHL1   C19 7034   0.769   4.377   9.717 -0.3445 -0.3054  0.4367
   62CHL1  H19A 7035   0.788   4.416   9.819  3.3454  1.3096 -0.6880
   62CHL1  H19B 7036   0.865   4.355   9.666 -1.2818  0.6067 -1.8471
   62CHL1  H19C 7037   0.735   4.466   9.661  2.0563  0.4267  0.0342
   62CHL1    C1 7038   0.547   4.282   9.775  0.0492 -0.5320 -0.5931
   62CHL1   H1A 7039   0.486   4.354   9.716 -2.2531 -3.2248 -1.7810
   62CHL1   H1B 7040   0.499   4.182   9.761  1.8921 -1.3473 -1.3976
   62CHL1    C2 7041   0.555   4.315   9.919  0.4990 -0.0879 -0.4455
   62CHL1   H2A 7042   0.453   4.326   9.961  1.1851 -1.5065  1.7527
   62CHL1   H2B 7043   0.602   4.414   9.935 -0.8903  0.7379 -1.2739
   62CHL1   C20 7044   0.702   4.197   8.992 -0.3337  0.1780 -0.1126
   62CHL1   H20 7045   0.795   4.258   8.981 -1.0281  1.3896  0.4444
   62CHL1   C21 7046   0.581   4.289   8.977 -0.4623  0.4062 -0.2771
   62CHL1  H21A 7047   0.581   4.341   8.879  2.4269 -0.8559 -1.0576
   62CHL1  H21B 7048   0.587   4.370   9.053  0.1792  1.9529 -1.8988
   62CHL1  H21C 7049   0.477   4.254   8.989 -0.5160  0.5804 -0.2289
   62CHL1   C22 7050   0.698   4.087   8.875 -0.1886 -0.5753  0.2845
   62CHL1  H22A 7051   0.782   4.014   8.877  1.7035  1.1689 -3.6888
   62CHL1  H22B 7052   0.606   4.032   8.906 -0.9196  0.3013 -0.2995
   62CHL1   C23 7053   0.678   4.120   8.726  0.1593  0.9460 -0.0287
   62CHL1  H23A 7054   0.582   4.176   8.723  0.6186  2.0762  2.8108
   62CHL1  H23B 7055   0.770   4.159   8.678  1.8442 -0.2802  2.0073
   62CHL1   C24 7056   0.665   3.995   8.641 -0.4017 -0.2684 -0.4215
   62CHL1  H24A 7057   0.761   3.940   8.655  1.1574  2.4322  0.2798
   62CHL1  H24B 7058   0.582   3.932   8.678  0.6068 -1.9989 -0.9641
   62CHL1   C25 7059   0.635   4.021   8.491  0.4184  0.2783  0.0580
   62CHL1   H25 7060   0.726   4.061   8.442  1.9929 -0.0353  2.5349
   62CHL1   C26 7061   0.604   3.894   8.407  0.1997  0.9729 -0.0584
   62CHL1  H26A 7062   0.511   3.841   8.438 -0.8650  1.5903 -2.0497
   62CHL1  H26B 7063   0.606   3.925   8.300  0.6451 -0.0729 -0.3670
   62CHL1  H26C 7064   0.693   3.831   8.427  1.2557  2.1062 -1.0452
   62CHL1   C27 7065   0.530   4.122   8.464 -0.7966 -0.6228 -0.3046
   62CHL1  H27A 7066   0.530   4.142   8.354  1.5048  1.3751 -0.0229
   62CHL1  H27B 7067   0.430   4.094   8.503  0.4824 -1.7795  2.4131
   62CHL1  H27C 7068   0.560   4.214   8.519 -1.6534 -0.3188 -0.3259
   63CHL1    C3 7069   2.293   6.339  10.334 -0.2156 -0.1002  0.1204
   63CHL1    H3 7070   2.246   6.239  10.346 -0.1028 -0.1643  0.0262
   63CHL1    O3 7071   2.347   6.389  10.459  0.1048 -0.6378  0.2312
   63CHL1   H3' 7072   2.394   6.310  10.488 -0.3583 -1.3247 -0.8002
   63CHL1    C4 7073   2.414   6.324  10.233 -0.2718  0.5834  0.3431
   63CHL1   H4A 7074   2.490   6.405  10.237  0.3940  0.3168 -3.5944
   63CHL1   H4B 7075   2.472   6.235  10.264 -0.1161  0.9869  1.2668
   63CHL1    C5 7076   2.364   6.303  10.091 -0.2316  0.0684 -0.4202
   63CHL1    C6 7077   2.414   6.204  10.015 -0.1483 -0.0227  0.2093
   63CHL1    H6 7078   2.488   6.139  10.064 -1.9911 -0.5905  2.3897
   63CHL1    C7 7079   2.380   6.172   9.877  0.6974  0.1724  0.0386
   63CHL1   H7A 7080   2.467   6.170   9.808 -0.9283  1.9085 -2.1887
   63CHL1   H7B 7081   2.322   6.078   9.875  3.6630 -1.7711 -0.8012
   63CHL1    C8 7082   2.296   6.281   9.806  0.0865 -0.1099  0.1619
   63CHL1    H8 7083   2.367   6.358   9.768  2.4704 -2.8619 -1.3218
   63CHL1   C14 7084   2.222   6.227   9.679  0.6062 -0.1992 -0.6695
   63CHL1   H14 7085   2.154   6.149   9.721 -1.4547  1.4807 -0.7521
   63CHL1   C15 7086   2.304   6.156   9.574 -0.1746  0.0172 -0.0319
   63CHL1  H15A 7087   2.387   6.224   9.546  0.6341  0.1387  2.4375
   63CHL1  H15B 7088   2.347   6.060   9.609 -0.2289 -0.5634 -1.4945
   63CHL1   C16 7089   2.201   6.129   9.463 -0.7134  0.7850  0.1064
   63CHL1  H16A 7090   2.249   6.143   9.364  0.4906 -0.4593  0.4887
   63CHL1  H16B 7091   2.164   6.024   9.464  0.4682  0.3589 -0.1377
   63CHL1   C17 7092   2.081   6.231   9.484  0.3867  0.3872  0.3766
   63CHL1   H17 7093   2.000   6.166   9.524 -0.4168  0.9489 -0.2867
   63CHL1   C13 7094   2.122   6.320   9.601 -0.4585  0.0243  0.0551
   63CHL1   C18 7095   2.205   6.439   9.551  0.4644 -0.2104  0.5402
   63CHL1  H18A 7096   2.144   6.518   9.502  0.3889 -0.3150  0.4634
   63CHL1  H18B 7097   2.261   6.488   9.633 -1.6903  1.6050  1.0547
   63CHL1  H18C 7098   2.284   6.409   9.479  1.0702  0.3226  0.9814
   63CHL1   C12 7099   2.013   6.360   9.703 -0.4760  0.5040  0.3085
   63CHL1  H12A 7100   1.930   6.422   9.661 -0.2605  0.8409  0.3759
   63CHL1  H12B 7101   1.971   6.261   9.730  1.3695  0.4820  3.5451
   63CHL1   C11 7102   2.068   6.414   9.841 -0.3986  1.2409  0.5581
   63CHL1  H11A 7103   2.111   6.515   9.822 -1.4036  1.6863  0.5877
   63CHL1  H11B 7104   1.980   6.419   9.908 -1.3387  2.1546 -0.6759
   63CHL1    C9 7105   2.190   6.327   9.902 -0.4434  0.1518  0.4446
   63CHL1    H9 7106   2.142   6.229   9.919  1.9254 -1.3089 -0.8375
   63CHL1   C10 7107   2.248   6.385  10.033  0.0275  0.2042 -0.5638
   63CHL1   C19 7108   2.309   6.527  10.002  0.4068 -0.0093 -0.1520
   63CHL1  H19A 7109   2.381   6.517   9.918 -0.0296 -0.2448 -0.5059
   63CHL1  H19B 7110   2.226   6.594   9.970  0.4607  0.4381  0.6336
   63CHL1  H19C 7111   2.364   6.584  10.079  1.1234 -0.5801 -0.2323
   63CHL1    C1 7112   2.134   6.401  10.139 -0.1305 -0.2067  0.4833
   63CHL1   H1A 7113   2.057   6.475  10.108 -0.7182 -1.0497 -0.1301
   63CHL1   H1B 7114   2.071   6.310  10.137 -0.8379  0.2324 -2.7431
   63CHL1    C2 7115   2.186   6.440  10.290 -0.5319  0.0979  0.5795
   63CHL1   H2A 7116   2.103   6.450  10.363 -0.0867  0.2684  1.0622
   63CHL1   H2B 7117   2.226   6.544  10.283  2.5698 -0.9610  1.2327
   63CHL1   C20 7118   2.017   6.298   9.357  0.2972  0.4082 -0.6707
   63CHL1   H20 7119   2.085   6.378   9.323 -2.5226  2.9656 -0.6915
   63CHL1   C21 7120   1.885   6.365   9.389  0.2310 -0.1850 -0.0542
   63CHL1  H21A 7121   1.883   6.447   9.465 -0.3573 -1.0054  0.8429
   63CHL1  H21B 7122   1.806   6.292   9.418 -3.5447  3.3620 -0.4024
   63CHL1  H21C 7123   1.843   6.407   9.295  0.8283 -2.2662 -1.3164
   63CHL1   C22 7124   1.994   6.202   9.242  0.1326  0.2671  0.1633
   63CHL1  H22A 7125   2.095   6.181   9.200  0.6170  0.3037  1.2764
   63CHL1  H22B 7126   1.960   6.101   9.275  2.9915  0.1937  3.4257
   63CHL1   C23 7127   1.911   6.237   9.118  0.4429  0.7048 -0.1487
   63CHL1  H23A 7128   1.802   6.240   9.143  0.9144  1.1434  2.0684
   63CHL1  H23B 7129   1.935   6.337   9.077  1.8774  0.0794 -0.9065
   63CHL1   C24 7130   1.926   6.125   9.010  0.9267 -0.3881  0.4455
   63CHL1  H24A 7131   2.035   6.114   8.987  0.5698  0.0299 -1.6516
   63CHL1  H24B 7132   1.892   6.026   9.046 -0.1160 -0.6308 -1.1153
   63CHL1   C25 7133   1.857   6.151   8.880  0.2138  0.0730 -0.8272
   63CHL1   H25 7134   1.894   6.249   8.841  1.1837  0.6357  1.3517
   63CHL1   C26 7135   1.910   6.052   8.772  0.2212 -0.1500 -0.7475
   63CHL1  H26A 7136   1.892   5.946   8.800 -1.2352 -0.0400 -1.1668
   63CHL1  H26B 7137   1.875   6.077   8.670  3.5138 -0.1185 -1.9919
   63CHL1  H26C 7138   2.019   6.075   8.769  0.2152  0.2077  0.7104
   63CHL1   C27 7139   1.699   6.156   8.892 -0.3978  0.2750 -0.5480
   63CHL1  H27A 7140   1.661   6.060   8.933  3.4398 -0.5026  1.6634
   63CHL1  H27B 7141   1.667   6.236   8.961 -0.9421  1.4909 -2.1415
   63CHL1  H27C 7142   1.659   6.172   8.790  0.9092  0.0134 -1.1263
   64CHL1    C3 7143   1.713   5.822  10.133 -0.4558 -0.2195 -0.7679
   64CHL1    H3 7144   1.813   5.778  10.113 -0.9210 -0.7110 -2.1561
   64CHL1    O3 7145   1.701   5.839  10.267  0.0288 -0.5407 -0.2367
   64CHL1   H3' 7146   1.607   5.830  10.284  0.0272 -1.7818 -0.7820
   64CHL1    C4 7147   1.712   5.962  10.062  0.0226 -0.2739 -0.4222
   64CHL1   H4A 7148   1.626   6.024  10.093  1.8850  3.3017 -1.8403
   64CHL1   H4B 7149   1.801   6.020  10.096 -0.9002  0.7190  0.3620
   64CHL1    C5 7150   1.714   5.951   9.912 -0.2404  0.3676 -0.2424
   64CHL1    C6 7151   1.810   6.005   9.832 -0.1232 -0.2713 -0.6437
   64CHL1    H6 7152   1.901   6.049   9.875 -0.4091 -0.1000 -0.2036
   64CHL1    C7 7153   1.808   5.993   9.685  0.2814 -0.6961  0.4979
   64CHL1   H7A 7154   1.815   6.093   9.638 -0.3059  0.2955  2.4427
   64CHL1   H7B 7155   1.892   5.931   9.647  0.5724 -0.3917  0.6487
   64CHL1    C8 7156   1.677   5.924   9.625 -0.7092 -0.1251  0.1953
   64CHL1    H8 7157   1.594   5.996   9.643 -1.0657 -0.8718  1.7026
   64CHL1   C14 7158   1.685   5.883   9.480 -0.1302 -0.0822 -0.3309
   64CHL1   H14 7159   1.762   5.803   9.466  0.4983  0.5212 -0.3902
   64CHL1   C15 7160   1.723   5.995   9.383 -0.2462  0.0578 -0.4264
   64CHL1  H15A 7161   1.669   6.086   9.417  0.7699  0.5622 -0.1083
   64CHL1  H15B 7162   1.833   6.007   9.396 -0.4995  4.4040 -0.9499
   64CHL1   C16 7163   1.684   5.942   9.244 -0.1903  0.5361  0.0448
   64CHL1  H16A 7164   1.624   6.022   9.195 -1.1589  1.3354  2.4312
   64CHL1  H16B 7165   1.774   5.913   9.186 -0.1434  0.6208  0.0742
   64CHL1   C17 7166   1.612   5.806   9.277  0.2974 -0.2626  0.8786
   64CHL1   H17 7167   1.687   5.725   9.283  0.6057 -0.0858 -0.4342
   64CHL1   C13 7168   1.559   5.825   9.416 -0.4342 -0.1198  0.1289
   64CHL1   C18 7169   1.439   5.919   9.429 -0.7428 -0.5609  0.3615
   64CHL1  H18A 7170   1.449   6.010   9.366 -0.5511 -0.2054  0.8965
   64CHL1  H18B 7171   1.345   5.866   9.402 -0.5261  0.0719 -1.8593
   64CHL1  H18C 7172   1.432   5.954   9.534 -0.3873 -0.1112  0.2373
   64CHL1   C12 7173   1.537   5.699   9.492  0.1361  0.5601 -0.1873
   64CHL1  H12A 7174   1.452   5.646   9.444  0.8594 -0.9390  0.1255
   64CHL1  H12B 7175   1.629   5.637   9.482  1.3425  2.4049 -1.3481
   64CHL1   C11 7176   1.514   5.725   9.640  0.5020  0.1932 -0.3037
   64CHL1  H11A 7177   1.416   5.774   9.653  1.5031  2.3975 -0.6692
   64CHL1  H11B 7178   1.505   5.626   9.690 -2.9740  0.8247  0.5750
   64CHL1    C9 7179   1.627   5.804   9.708  0.0050  0.3357 -0.5571
   64CHL1    H9 7180   1.711   5.731   9.704 -0.2347 -0.0313  0.6206
   64CHL1   C10 7181   1.609   5.847   9.859 -0.5744 -0.7183 -0.3255
   64CHL1   C19 7182   1.468   5.905   9.880  0.2939  0.1766  0.3217
   64CHL1  H19A 7183   1.465   5.994   9.813  3.2330  0.2919  0.2294
   64CHL1  H19B 7184   1.397   5.825   9.850  3.0703 -1.8225 -1.4042
   64CHL1  H19C 7185   1.461   5.924   9.989  0.4995  0.6661  0.2515
   64CHL1    C1 7186   1.616   5.711   9.939 -0.2106 -0.1888  0.7600
   64CHL1   H1A 7187   1.538   5.642   9.902  1.4401 -2.3717  1.1214
   64CHL1   H1B 7188   1.713   5.668   9.904  0.0397 -0.2118  1.4663
   64CHL1    C2 7189   1.614   5.724  10.087 -0.0007 -0.1105 -0.2931
   64CHL1   H2A 7190   1.643   5.626  10.130 -0.2282  0.3577  0.9427
   64CHL1   H2B 7191   1.522   5.768  10.130  1.4674  1.8766  0.9647
   64CHL1   C20 7192   1.519   5.745   9.170  0.1429  0.1895 -0.2150
   64CHL1   H20 7193   1.461   5.670   9.228 -1.5309  1.6074  0.0474
   64CHL1   C21 7194   1.616   5.669   9.071  0.5562 -0.2657 -0.3694
   64CHL1  H21A 7195   1.658   5.582   9.127 -0.1239 -2.5217 -3.1475
   64CHL1  H21B 7196   1.687   5.750   9.043 -0.9366  0.6204 -1.7330
   64CHL1  H21C 7197   1.560   5.642   8.979  1.1199 -0.4264 -0.6718
   64CHL1   C22 7198   1.415   5.832   9.101 -0.1215  0.0439 -0.4152
   64CHL1  H22A 7199   1.351   5.881   9.177 -0.8925 -0.9846 -0.3806
   64CHL1  H22B 7200   1.476   5.907   9.045  0.0789  3.0761  3.4734
   64CHL1   C23 7201   1.313   5.762   9.016  0.3979 -0.5133  0.4599
   64CHL1  H23A 7202   1.352   5.729   8.917  0.6496 -1.9260  1.0184
   64CHL1  H23B 7203   1.276   5.671   9.066 -1.0999 -0.4363 -0.4171
   64CHL1   C24 7204   1.180   5.848   8.997  1.0449  0.2408 -0.1680
   64CHL1  H24A 7205   1.136   5.890   9.090  1.4739 -1.3249  0.7791
   64CHL1  H24B 7206   1.215   5.940   8.945 -0.5016  2.2661  2.1500
   64CHL1   C25 7207   1.065   5.790   8.911  0.8579 -0.5778  0.4350
   64CHL1   H25 7208   1.024   5.697   8.956 -1.9823 -0.8331 -2.3104
   64CHL1   C26 7209   0.950   5.891   8.902  0.1123 -0.3173 -0.0419
   64CHL1  H26A 7210   0.967   5.970   8.825  0.8605  0.1732  0.6114
   64CHL1  H26B 7211   0.865   5.831   8.863 -1.4083  0.6350  1.6318
   64CHL1  H26C 7212   0.924   5.943   8.997  0.1293  0.8066 -0.6331
   64CHL1   C27 7213   1.112   5.742   8.769  0.5593  0.1132 -0.3310
   64CHL1  H27A 7214   1.196   5.670   8.776 -1.3301 -2.2991 -1.2198
   64CHL1  H27B 7215   1.022   5.694   8.724 -1.2178  0.8713  2.1652
   64CHL1  H27C 7216   1.135   5.831   8.707 -1.2954  0.1194 -1.0885
   65CHL1    C3 7217   2.780   2.414  10.264 -0.6921 -0.1839 -0.5733
   65CHL1    H3 7218   2.740   2.312  10.245 -1.1963 -0.3156  1.0423
   65CHL1    O3 7219   2.793   2.432  10.407 -0.5253  0.1519  0.1440
   65CHL1   H3' 7220   2.837   2.516  10.424  0.5778 -0.8400  2.6082
   65CHL1    C4 7221   2.924   2.428  10.201  0.0622  0.7240 -0.3828
   65CHL1   H4A 7222   2.971   2.522  10.237  2.1300 -0.3570 -0.0675
   65CHL1   H4B 7223   2.989   2.354  10.254 -0.0355  2.9836  3.2202
   65CHL1    C5 7224   2.919   2.420  10.050 -1.0169 -0.5723 -0.3265
   65CHL1    C6 7225   2.986   2.329   9.986  0.3577  0.2861  0.7159
   65CHL1    H6 7226   3.044   2.256  10.044  1.6379  0.2560 -0.5679
   65CHL1    C7 7227   2.978   2.311   9.840 -0.1269 -0.1019  0.5342
   65CHL1   H7A 7228   3.077   2.277   9.803 -0.1273 -0.9246  1.2865
   65CHL1   H7B 7229   2.910   2.228   9.812 -2.0505  1.4685  0.2769
   65CHL1    C8 7230   2.920   2.428   9.758  0.3406  0.2793 -0.3255
   65CHL1    H8 7231   3.000   2.505   9.765 -0.7081  1.3291  0.3845
   65CHL1   C14 7232   2.890   2.393   9.616  0.6060 -0.4649 -0.1058
   65CHL1   H14 7233   2.807   2.319   9.622  1.2632 -1.1038  2.3821
   65CHL1   C15 7234   3.005   2.321   9.542  0.8260  0.1324 -1.6419
   65CHL1  H15A 7235   3.096   2.380   9.566  0.0219  1.6427 -2.1892
   65CHL1  H15B 7236   3.002   2.211   9.556 -0.0429 -0.2190 -4.1520
   65CHL1   C16 7237   2.955   2.343   9.398 -0.3604  0.2436  1.0375
   65CHL1  H16A 7238   3.040   2.398   9.351  2.0876 -2.1103  2.4563
   65CHL1  H16B 7239   2.942   2.245   9.348 -0.2647  1.2274 -1.0617
   65CHL1   C17 7240   2.830   2.439   9.406  0.0107 -0.5146  0.0900
   65CHL1   H17 7241   2.746   2.367   9.415  0.7014 -1.4335 -0.5124
   65CHL1   C13 7242   2.847   2.505   9.534 -0.0811 -0.4894 -0.1003
   65CHL1   C18 7243   2.968   2.609   9.522 -0.8231 -0.0774 -0.3240
   65CHL1  H18A 7244   3.059   2.562   9.478 -1.0084 -0.8216  0.0685
   65CHL1  H18B 7245   2.939   2.700   9.465  1.7226  1.8256  1.1789
   65CHL1  H18C 7246   2.992   2.654   9.620 -2.2262 -0.9012  0.4273
   65CHL1   C12 7247   2.719   2.559   9.602  0.3374  0.5479 -0.5871
   65CHL1  H12A 7248   2.699   2.657   9.555 -0.6644  0.8528  0.4399
   65CHL1  H12B 7249   2.631   2.493   9.585  0.8310 -0.7526  1.5268
   65CHL1   C11 7250   2.729   2.595   9.754 -0.4532  0.3780 -0.8274
   65CHL1  H11A 7251   2.797   2.683   9.748  1.3008 -0.8947 -0.5637
   65CHL1  H11B 7252   2.630   2.628   9.791 -0.6531 -2.0397  1.0301
   65CHL1    C9 7253   2.797   2.479   9.837 -0.5255 -0.1955 -0.3008
   65CHL1    H9 7254   2.717   2.402   9.844 -1.3978  0.7902  1.1868
   65CHL1   C10 7255   2.822   2.518   9.982 -0.4087 -0.5786 -0.7554
   65CHL1   C19 7256   2.889   2.652   9.991 -0.0993  0.3896  0.0839
   65CHL1  H19A 7257   2.928   2.672  10.093  0.0494  0.3056  0.0430
   65CHL1  H19B 7258   2.973   2.670   9.920  0.8364 -0.3604  0.9766
   65CHL1  H19C 7259   2.811   2.727   9.962  0.7175  0.9411 -0.7293
   65CHL1    C1 7260   2.687   2.510  10.057 -0.2273 -0.8532  0.2751
   65CHL1   H1A 7261   2.614   2.579  10.011  1.6044  0.5098 -0.7554
   65CHL1   H1B 7262   2.639   2.412  10.042  0.8192 -1.4037  0.4156
   65CHL1    C2 7263   2.692   2.524  10.208 -0.7806 -0.0094 -0.0661
   65CHL1   H2A 7264   2.591   2.512  10.251 -0.2720 -0.4706  1.0250
   65CHL1   H2B 7265   2.736   2.622  10.237  2.6247 -1.4650  0.1540
   65CHL1   C20 7266   2.803   2.517   9.284 -0.6496 -0.3068  0.7208
   65CHL1   H20 7267   2.873   2.603   9.277 -0.1565 -0.6971  0.8452
   65CHL1   C21 7268   2.663   2.577   9.282  0.2234 -0.9898  0.5318
   65CHL1  H21A 7269   2.661   2.658   9.205  2.3651 -0.1774  1.2516
   65CHL1  H21B 7270   2.647   2.643   9.370  1.1341  0.5413 -0.3947
   65CHL1  H21C 7271   2.574   2.511   9.285 -0.9092  0.4770  0.4504
   65CHL1   C22 7272   2.828   2.431   9.157  0.7094 -0.2495  0.1878
   65CHL1  H22A 7273   2.934   2.406   9.139  0.5936  0.0855 -1.0909
   65CHL1  H22B 7274   2.767   2.338   9.151 -1.6629  1.2794 -1.3245
   65CHL1   C23 7275   2.794   2.503   9.021  0.5176 -0.7450 -0.2326
   65CHL1  H23A 7276   2.685   2.522   9.024  0.3160 -1.9244  1.7340
   65CHL1  H23B 7277   2.847   2.601   9.019 -0.9348  0.2140  2.4713
   65CHL1   C24 7278   2.839   2.417   8.898  0.6030 -0.0983  0.8407
   65CHL1  H24A 7279   2.947   2.403   8.920  0.4537 -0.0220  1.6816
   65CHL1  H24B 7280   2.795   2.315   8.904  1.0118 -0.3561 -0.3041
   65CHL1   C25 7281   2.805   2.471   8.763  0.6360 -0.3157  0.2689
   65CHL1   H25 7282   2.818   2.581   8.758  1.2203 -0.3750  0.4983
   65CHL1   C26 7283   2.885   2.415   8.643 -0.5162  0.2814  0.4071
   65CHL1  H26A 7284   2.991   2.443   8.660  0.0565 -1.1057 -0.7184
   65CHL1  H26B 7285   2.874   2.305   8.639 -2.2976  0.4750 -1.8691
   65CHL1  H26C 7286   2.857   2.466   8.548 -1.4052 -2.7185 -1.0635
   65CHL1   C27 7287   2.652   2.447   8.739  0.1320  0.3956  0.1604
   65CHL1  H27A 7288   2.598   2.501   8.820  1.7832 -0.3261  1.8105
   65CHL1  H27B 7289   2.634   2.483   8.635 -2.3667 -0.4204  0.2439
   65CHL1  H27C 7290   2.627   2.339   8.747 -0.7957  0.6032  0.1499
   66CHL1    C3 7291   1.250   6.664  10.584  0.1119  0.2692  0.3041
   66CHL1    H3 7292   1.252   6.775  10.590  1.1647  0.2561  0.2506
   66CHL1    O3 7293   1.252   6.606  10.710 -0.2513  0.4663  0.2438
   66CHL1   H3' 7294   1.301   6.526  10.689  0.0550  0.6305  0.3189
   66CHL1    C4 7295   1.126   6.613  10.503 -0.0497  0.4910  0.2541
   66CHL1   H4A 7296   1.130   6.502  10.512  2.1302  0.3306 -1.5070
   66CHL1   H4B 7297   1.036   6.640  10.562 -2.0773  2.0341 -3.2082
   66CHL1    C5 7298   1.125   6.666  10.362  0.4992  0.0216  0.1953
   66CHL1    C6 7299   1.025   6.738  10.314 -0.4020 -0.1796  0.1221
   66CHL1    H6 7300   0.937   6.754  10.378 -0.1600 -1.0177  0.6882
   66CHL1    C7 7301   1.009   6.784  10.172 -0.3470 -0.7120  0.1990
   66CHL1   H7A 7302   0.925   6.736  10.117 -1.3461 -0.2857  1.3267
   66CHL1   H7B 7303   1.008   6.895  10.159  1.1109 -0.6067  0.8246
   66CHL1    C8 7304   1.120   6.724  10.080 -0.2221  0.1991 -0.0944
   66CHL1    H8 7305   1.091   6.621  10.051  0.3248 -0.2258  0.8549
   66CHL1   C14 7306   1.139   6.807   9.953  0.8466  0.1347 -0.1046
   66CHL1   H14 7307   1.185   6.905   9.976  0.3510  0.9936 -2.4976
   66CHL1   C15 7308   1.016   6.846   9.870  0.0553 -0.2080 -0.4602
   66CHL1  H15A 7309   0.936   6.771   9.849 -0.1799  0.0643 -0.5467
   66CHL1  H15B 7310   0.961   6.934   9.909 -0.1380 -0.7816  0.5961
   66CHL1   C16 7311   1.071   6.888   9.735  0.0538 -0.1772 -0.0756
   66CHL1  H16A 7312   1.012   6.843   9.652  0.8381  1.4058 -1.5467
   66CHL1  H16B 7313   1.054   6.997   9.723 -0.6334 -0.1457  1.0117
   66CHL1   C17 7314   1.224   6.853   9.735  0.6191  0.1063 -0.0321
   66CHL1   H17 7315   1.283   6.939   9.773  1.5788 -0.0511 -1.1255
   66CHL1   C13 7316   1.243   6.753   9.852 -0.4222  0.0499 -0.3972
   66CHL1   C18 7317   1.208   6.615   9.800 -0.9713 -0.2456 -0.3076
   66CHL1  H18A 7318   1.275   6.581   9.718 -2.6824 -3.6118 -0.5176
   66CHL1  H18B 7319   1.218   6.540   9.881  0.8014  0.1176 -0.1470
   66CHL1  H18C 7320   1.104   6.609   9.760 -0.6823 -2.3277 -0.8868
   66CHL1   C12 7321   1.377   6.753   9.925 -0.1347 -0.1043  0.2865
   66CHL1  H12A 7322   1.450   6.706   9.857  2.4504  1.8127  1.5667
   66CHL1  H12B 7323   1.402   6.858   9.951 -2.1878  0.4277  0.2867
   66CHL1   C11 7324   1.377   6.666  10.058 -0.3968 -0.4156 -0.2641
   66CHL1  H11A 7325   1.351   6.563  10.026 -1.0069 -1.3751  3.0255
   66CHL1  H11B 7326   1.476   6.671  10.108 -1.4599 -0.6732  1.9691
   66CHL1    C9 7327   1.260   6.716  10.151  0.3485  0.2800  0.6617
   66CHL1    H9 7328   1.284   6.823  10.166 -0.6791  0.7568 -0.8222
   66CHL1   C10 7329   1.254   6.649  10.290 -0.4182  0.6119  0.5017
   66CHL1   C19 7330   1.262   6.495  10.252  0.5372 -0.3108  0.0369
   66CHL1  H19A 7331   1.245   6.430  10.340  1.2645  1.4981  1.5772
   66CHL1  H19B 7332   1.184   6.477  10.175 -0.0595  1.9678  0.0179
   66CHL1  H19C 7333   1.354   6.460  10.200  0.5164 -0.1366 -0.1189
   66CHL1    C1 7334   1.374   6.692  10.372 -0.0488  0.1881  0.4694
   66CHL1   H1A 7335   1.471   6.665  10.325 -0.8450 -2.0227 -0.0511
   66CHL1   H1B 7336   1.362   6.801  10.386 -1.4099  0.5000 -2.3682
   66CHL1    C2 7337   1.379   6.628  10.512  0.2966  0.3410  0.0998
   66CHL1   H2A 7338   1.460   6.679  10.569 -0.2928  2.1213 -0.5876
   66CHL1   H2B 7339   1.409   6.521  10.506 -1.4302 -0.2050  0.8148
   66CHL1   C20 7340   1.279   6.835   9.598 -0.2365 -0.0950 -0.7791
   66CHL1   H20 7341   1.243   6.740   9.553 -0.0396 -0.1431 -0.8376
   66CHL1   C21 7342   1.430   6.814   9.600  0.2268 -0.6604  0.1977
   66CHL1  H21A 7343   1.469   6.810   9.496  2.6659 -0.1792  1.0161
   66CHL1  H21B 7344   1.464   6.724   9.656  0.3937 -0.8578 -0.2225
   66CHL1  H21C 7345   1.470   6.906   9.648  2.5785 -2.0946  1.1386
   66CHL1   C22 7346   1.246   6.954   9.506  0.1961  0.3071 -0.4373
   66CHL1  H22A 7347   1.142   6.980   9.533  0.1991 -1.6010  1.7346
   66CHL1  H22B 7348   1.303   7.046   9.531 -0.6202  1.3024 -2.1351
   66CHL1   C23 7349   1.265   6.919   9.358 -0.4402  0.3031 -0.4417
   66CHL1  H23A 7350   1.205   6.986   9.293 -3.5158 -1.4565  0.3673
   66CHL1  H23B 7351   1.372   6.939   9.339 -0.1294  0.4615  1.3482
   66CHL1   C24 7352   1.225   6.778   9.311 -0.6237  0.6399  0.0515
   66CHL1  H24A 7353   1.272   6.691   9.362 -3.9457  0.5112  3.3702
   66CHL1  H24B 7354   1.123   6.753   9.348 -1.4566 -1.4703 -3.2743
   66CHL1   C25 7355   1.224   6.758   9.160  0.7676  0.2265  0.1402
   66CHL1   H25 7356   1.179   6.851   9.120 -1.3162 -0.9330 -0.3508
   66CHL1   C26 7357   1.367   6.748   9.110  0.3091  0.6597 -0.5507
   66CHL1  H26A 7358   1.367   6.747   8.999  2.0628  1.7019 -0.6033
   66CHL1  H26B 7359   1.433   6.832   9.142  1.5660 -0.5084  0.0648
   66CHL1  H26C 7360   1.425   6.663   9.151 -1.5337 -0.5883 -0.4200
   66CHL1   C27 7361   1.142   6.644   9.104 -0.1140  0.4930 -0.4361
   66CHL1  H27A 7362   1.123   6.650   8.995  1.0288  0.2449 -0.6631
   66CHL1  H27B 7363   1.196   6.548   9.120  0.6269  0.5873 -2.1445
   66CHL1  H27C 7364   1.042   6.648   9.152  0.3277  0.2172  0.5308
   67CHL1    C3 7365   5.113   3.092  10.177  0.0480  0.2986  0.3963
   67CHL1    H3 7366   5.106   3.001  10.114  1.0416  2.0274 -2.3889
   67CHL1    O3 7367   5.135   3.038  10.312 -0.4618  0.1704  0.6979
   67CHL1   H3' 7368   5.055   3.058  10.362 -1.3279 -0.6532 -0.2836
   67CHL1    C4 7369   5.238   3.165  10.121  0.5725 -0.7038 -0.0147
   67CHL1   H4A 7370   5.241   3.255  10.186 -0.4520  0.7267 -1.8468
   67CHL1   H4B 7371   5.332   3.108  10.139  0.0020 -0.6356  4.3566
   67CHL1    C5 7372   5.230   3.204   9.974  0.6661  0.4219  0.6872
   67CHL1    C6 7373   5.315   3.170   9.878 -0.3710  0.4671  0.5534
   67CHL1    H6 7374   5.408   3.114   9.898  1.0589  2.1894 -0.8531
   67CHL1    C7 7375   5.293   3.210   9.728 -0.1168 -0.1766 -0.1494
   67CHL1   H7A 7376   5.388   3.263   9.706  0.5361 -1.5174 -0.6598
   67CHL1   H7B 7377   5.268   3.116   9.675 -2.0791  0.2865 -0.1250
   67CHL1    C8 7378   5.180   3.314   9.713  0.2939  0.2803  0.1309
   67CHL1    H8 7379   5.220   3.412   9.747 -0.1510  0.0143  1.4521
   67CHL1   C14 7380   5.151   3.331   9.562 -0.7623  0.4726 -0.2212
   67CHL1   H14 7381   5.123   3.228   9.530 -0.7420 -0.7353  3.2511
   67CHL1   C15 7382   5.266   3.372   9.469  0.0576 -0.5224 -0.6776
   67CHL1  H15A 7383   5.308   3.464   9.514 -1.1711 -1.1201  1.9090
   67CHL1  H15B 7384   5.347   3.297   9.473  1.1809  0.7114  1.1995
   67CHL1   C16 7385   5.191   3.393   9.336 -0.6829  0.1829 -0.1688
   67CHL1  H16A 7386   5.224   3.488   9.289 -1.0811  1.4049  1.8855
   67CHL1  H16B 7387   5.229   3.322   9.260 -1.2673  0.3861 -0.6647
   67CHL1   C17 7388   5.036   3.391   9.367  0.2722  0.1502 -0.0594
   67CHL1   H17 7389   5.003   3.289   9.337  0.9080  0.4201 -1.8086
   67CHL1   C13 7390   5.030   3.405   9.520 -0.1338  0.1317 -0.2427
   67CHL1   C18 7391   5.036   3.558   9.557  0.4427 -0.2098 -0.0724
   67CHL1  H18A 7392   5.114   3.601   9.490  0.2327  2.8393  1.4602
   67CHL1  H18B 7393   4.941   3.612   9.540 -0.0678  0.2719  3.5745
   67CHL1  H18C 7394   5.060   3.581   9.663 -3.4531  2.0353  0.5065
   67CHL1   C12 7395   4.914   3.342   9.594  0.4409  0.0731 -0.8262
   67CHL1  H12A 7396   4.818   3.393   9.570 -1.1942 -3.0301 -1.4416
   67CHL1  H12B 7397   4.893   3.240   9.554 -1.1575  0.3421 -0.7486
   67CHL1   C11 7398   4.931   3.333   9.748  0.6963 -0.4260 -0.8412
   67CHL1  H11A 7399   4.934   3.439   9.782  3.6289  0.6332 -3.7965
   67CHL1  H11B 7400   4.837   3.290   9.789 -0.4602  1.8747 -0.9107
   67CHL1    C9 7401   5.060   3.272   9.794  0.5224  0.4829 -0.2370
   67CHL1    H9 7402   5.052   3.164   9.772 -1.6814  0.8917 -1.7387
   67CHL1   C10 7403   5.095   3.269   9.944  0.2510 -0.2271  0.4015
   67CHL1   C19 7404   5.109   3.411  10.004  0.2070  0.2641  0.7175
   67CHL1  H19A 7405   5.015   3.471  10.004  1.0664  1.7694 -1.7838
   67CHL1  H19B 7406   5.152   3.401  10.106  0.0342 -3.7711  0.5508
   67CHL1  H19C 7407   5.171   3.477   9.940 -1.4183 -0.0294 -1.2634
   67CHL1    C1 7408   4.974   3.210  10.021 -0.0091 -0.5696 -0.0220
   67CHL1   H1A 7409   4.905   3.296  10.005  1.9295  1.5912  2.2856
   67CHL1   H1B 7410   4.949   3.127   9.951 -1.4161 -0.0232 -0.1963
   67CHL1    C2 7411   4.987   3.165  10.161  1.0711 -0.2609  0.2155
   67CHL1   H2A 7412   4.901   3.100  10.188  1.4428 -0.9987 -0.3545
   67CHL1   H2B 7413   4.971   3.249  10.233 -0.6675 -0.4534  0.0898
   67CHL1   C20 7414   4.949   3.483   9.271  0.4531  0.0602  0.8055
   67CHL1   H20 7415   4.967   3.590   9.296  0.1860  0.1324  0.6923
   67CHL1   C21 7416   4.800   3.466   9.301 -0.0014 -0.5898 -0.0060
   67CHL1  H21A 7417   4.768   3.360   9.297 -1.0441 -0.2743 -0.2352
   67CHL1  H21B 7418   4.739   3.527   9.231  0.8728 -0.7824 -0.9711
   67CHL1  H21C 7419   4.772   3.514   9.397  0.4678 -1.1534  0.4172
   67CHL1   C22 7420   4.990   3.475   9.118  0.2666 -0.4205  0.1480
   67CHL1  H22A 7421   4.924   3.529   9.047  0.3550 -1.0177 -0.3998
   67CHL1  H22B 7422   5.092   3.513   9.097 -0.5816  2.0085  0.1765
   67CHL1   C23 7423   4.989   3.328   9.071 -0.0744  0.6748 -0.2098
   67CHL1  H23A 7424   5.060   3.263   9.126 -0.7626  0.5609  0.5629
   67CHL1  H23B 7425   4.888   3.289   9.094 -1.4987  2.8525 -2.2421
   67CHL1   C24 7426   5.013   3.312   8.923 -0.2975 -0.5225 -0.2775
   67CHL1  H24A 7427   4.990   3.205   8.901 -0.6938 -0.7805  1.2943
   67CHL1  H24B 7428   4.945   3.383   8.871  0.2373  0.5913  0.5030
   67CHL1   C25 7429   5.154   3.352   8.876  0.1809 -0.5664  0.0250
   67CHL1   H25 7430   5.151   3.463   8.882 -2.8218 -0.5401 -0.4690
   67CHL1   C26 7431   5.272   3.313   8.966 -0.3075 -0.3462 -0.5950
   67CHL1  H26A 7432   5.303   3.207   8.973  1.1159  0.1022  0.6495
   67CHL1  H26B 7433   5.363   3.369   8.934 -0.3695  0.5163  0.6497
   67CHL1  H26C 7434   5.245   3.332   9.073  1.6250  2.6789 -0.5159
   67CHL1   C27 7435   5.169   3.318   8.734 -0.4663 -0.4337  0.2736
   67CHL1  H27A 7436   5.244   3.390   8.694 -1.1692  1.0718  1.6137
   67CHL1  H27B 7437   5.210   3.215   8.723 -1.8879 -0.9302 -0.5109
   67CHL1  H27C 7438   5.074   3.332   8.679 -1.5140 -0.3569  2.0537
   68CHL1    C3 7439   3.144   3.575  10.353 -0.0506 -1.1515  0.2116
   68CHL1    H3 7440   3.213   3.488  10.346 -0.7520 -1.6863 -0.2114
   68CHL1    O3 7441   3.087   3.572  10.482  0.3566  0.1323  0.8039
   68CHL1   H3' 7442   2.996   3.542  10.482  0.8824 -1.6155 -1.1067
   68CHL1    C4 7443   3.222   3.700  10.340 -0.2376 -0.2467 -0.8143
   68CHL1   H4A 7444   3.156   3.782  10.377 -1.1256 -1.4717  0.4379
   68CHL1   H4B 7445   3.313   3.687  10.401 -1.1449 -3.6091  0.0160
   68CHL1    C5 7446   3.263   3.731  10.194  0.7389  0.1136  0.7219
   68CHL1    C6 7447   3.395   3.750  10.173 -0.3858  0.1637  0.1208
   68CHL1    H6 7448   3.463   3.745  10.259 -1.3069  0.3536  0.8895
   68CHL1    C7 7449   3.446   3.771  10.041  0.7174 -0.0926 -0.2355
   68CHL1   H7A 7450   3.493   3.871  10.053 -1.7352  1.2246 -0.9717
   68CHL1   H7B 7451   3.515   3.692  10.005  0.9631  1.0553 -2.4592
   68CHL1    C8 7452   3.347   3.804   9.928  0.6405 -0.2465 -0.3277
   68CHL1    H8 7453   3.315   3.908   9.950  0.7533 -0.6964  2.3434
   68CHL1   C14 7454   3.407   3.785   9.790  0.0417  0.3300 -0.4791
   68CHL1   H14 7455   3.439   3.679   9.783 -0.0315  0.1366  1.4080
   68CHL1   C15 7456   3.538   3.873   9.768 -0.6782 -0.2900  0.0477
   68CHL1  H15A 7457   3.526   3.977   9.806  1.4650 -0.2759  0.8152
   68CHL1  H15B 7458   3.618   3.814   9.818 -0.2979 -0.0306 -0.2540
   68CHL1   C16 7459   3.547   3.879   9.614  0.2692 -0.2823 -0.8006
   68CHL1  H16A 7460   3.547   3.984   9.576  0.9841 -0.0400 -0.1696
   68CHL1  H16B 7461   3.633   3.830   9.563 -1.7826 -1.2662 -3.5661
   68CHL1   C17 7462   3.417   3.816   9.556  0.3213  0.1630 -1.2391
   68CHL1   H17 7463   3.432   3.707   9.545 -0.8797  0.0151 -1.6307
   68CHL1   C13 7464   3.318   3.823   9.671 -0.1134  0.0967  0.1141
   68CHL1   C18 7465   3.263   3.970   9.686 -0.6326  0.9553  0.2764
   68CHL1  H18A 7466   3.213   4.004   9.593 -1.7662  2.4914  1.4055
   68CHL1  H18B 7467   3.192   3.978   9.771  0.5962 -0.5883  1.5313
   68CHL1  H18C 7468   3.342   4.047   9.697  0.2847  0.0993 -0.1414
   68CHL1   C12 7469   3.199   3.722   9.679  0.5003 -0.7730  0.0802
   68CHL1  H12A 7470   3.121   3.731   9.601  1.7471 -0.6361 -1.1973
   68CHL1  H12B 7471   3.246   3.621   9.670 -0.7658 -1.5609  1.7448
   68CHL1   C11 7472   3.131   3.719   9.813  0.1727  0.7449  0.2663
   68CHL1  H11A 7473   3.068   3.810   9.824  0.8463  0.9974  2.4629
   68CHL1  H11B 7474   3.065   3.629   9.815  0.0816  0.7775 -0.8289
   68CHL1    C9 7475   3.222   3.712   9.942 -0.4867  0.5187  0.2240
   68CHL1    H9 7476   3.258   3.607   9.935  1.4321  1.1977 -1.3081
   68CHL1   C10 7477   3.156   3.715  10.082 -0.1898  0.3457  0.2362
   68CHL1   C19 7478   3.058   3.833  10.081  0.2256 -0.2573 -0.0967
   68CHL1  H19A 7479   3.008   3.840  10.180 -0.4142  0.1326 -0.4401
   68CHL1  H19B 7480   3.113   3.924  10.050 -0.7872 -0.4704 -2.8924
   68CHL1  H19C 7481   2.982   3.827   9.999 -1.7543  2.0603  1.4461
   68CHL1    C1 7482   3.076   3.584  10.111 -1.1233 -0.0710  0.0233
   68CHL1   H1A 7483   2.991   3.571  10.040  0.7185  2.1893 -2.8019
   68CHL1   H1B 7484   3.148   3.504  10.084 -1.2847  0.0382 -0.7484
   68CHL1    C2 7485   3.031   3.565  10.252  0.0755  0.0302 -0.3301
   68CHL1   H2A 7486   2.986   3.465  10.270  1.7169 -0.7201 -0.2174
   68CHL1   H2B 7487   2.950   3.634  10.286  1.9519  1.6500  1.1147
   68CHL1   C20 7488   3.375   3.872   9.414  0.5574  0.0414 -0.3479
   68CHL1   H20 7489   3.332   3.972   9.438 -0.6835 -0.6074  0.2098
   68CHL1   C21 7490   3.270   3.775   9.355  0.3210 -0.2782 -0.2567
   68CHL1  H21A 7491   3.289   3.671   9.387 -2.4374 -0.6539  0.4473
   68CHL1  H21B 7492   3.268   3.778   9.244 -2.1104 -1.4244 -0.3152
   68CHL1  H21C 7493   3.166   3.796   9.388  0.4294  0.3146 -0.2785
   68CHL1   C22 7494   3.493   3.882   9.314 -0.1488 -0.6971 -0.4468
   68CHL1  H22A 7495   3.446   3.920   9.221 -2.7169 -1.9301  0.2696
   68CHL1  H22B 7496   3.566   3.957   9.353 -1.5835  2.2415 -2.9480
   68CHL1   C23 7497   3.551   3.747   9.263  0.0833 -0.3568  0.1885
   68CHL1  H23A 7498   3.576   3.684   9.352 -0.9423 -1.0693 -0.0043
   68CHL1  H23B 7499   3.471   3.686   9.215  2.0018 -0.4565 -3.1743
   68CHL1   C24 7500   3.680   3.746   9.179  0.7974  0.5248 -1.0445
   68CHL1  H24A 7501   3.663   3.811   9.091  0.4602  1.9915  0.0576
   68CHL1  H24B 7502   3.761   3.803   9.229 -0.5797  0.3318  1.5623
   68CHL1   C25 7503   3.734   3.605   9.133 -0.3455 -0.0684 -0.1706
   68CHL1   H25 7504   3.654   3.543   9.087  1.7305 -1.0291 -2.7044
   68CHL1   C26 7505   3.818   3.648   9.010  0.1239 -0.7877  0.2829
   68CHL1  H26A 7506   3.745   3.665   8.928  0.3636 -2.4377 -0.3169
   68CHL1  H26B 7507   3.877   3.742   9.023  0.4696 -0.4097 -2.9975
   68CHL1  H26C 7508   3.896   3.573   8.985  0.1089 -0.6556 -0.1788
   68CHL1   C27 7509   3.810   3.541   9.247  0.1052 -0.1560 -1.1190
   68CHL1  H27A 7510   3.721   3.508   9.305 -0.9913  1.4518 -1.8283
   68CHL1  H27B 7511   3.878   3.458   9.220 -0.3566 -1.0144  0.2479
   68CHL1  H27C 7512   3.859   3.619   9.309  0.2783 -2.4139  1.8191
   69CHL1    C3 7513   2.376   1.011   6.781  0.0618 -0.0506  0.3399
   69CHL1    H3 7514   2.478   1.053   6.768 -0.8657  1.6365 -2.5007
   69CHL1    O3 7515   2.323   1.011   6.655  0.3713 -0.0596  0.9460
   69CHL1   H3' 7516   2.228   1.025   6.666  0.0828 -0.3975 -0.7707
   69CHL1    C4 7517   2.372   0.861   6.827 -0.0454  0.3456 -0.2937
   69CHL1   H4A 7518   2.268   0.822   6.824  0.0883 -0.0967  0.4481
   69CHL1   H4B 7519   2.441   0.807   6.759  0.6188 -0.8729  1.2856
   69CHL1    C5 7520   2.416   0.842   6.968  0.8391  0.5742  0.2290
   69CHL1    C6 7521   2.514   0.753   7.005  0.3939  0.0331 -0.5190
   69CHL1    H6 7522   2.552   0.686   6.926 -2.3432 -2.5825  0.1566
   69CHL1    C7 7523   2.549   0.727   7.151 -0.5578  0.2014 -0.1627
   69CHL1   H7A 7524   2.546   0.616   7.154  2.0263  0.0737  0.3041
   69CHL1   H7B 7525   2.652   0.758   7.182  0.7352 -0.8115 -3.1086
   69CHL1    C8 7526   2.441   0.788   7.247 -0.2703  0.2326 -0.1077
   69CHL1    H8 7527   2.344   0.733   7.238 -0.8385  0.8285  1.9258
   69CHL1   C14 7528   2.495   0.780   7.386 -0.1882  0.4852 -0.0844
   69CHL1   H14 7529   2.585   0.845   7.376  1.0069 -1.1420 -0.1966
   69CHL1   C15 7530   2.540   0.642   7.444 -0.5425  0.1562 -0.3385
   69CHL1  H15A 7531   2.481   0.557   7.403 -0.6985  0.0461  0.1135
   69CHL1  H15B 7532   2.642   0.623   7.404 -0.5955 -0.8686 -0.0017
   69CHL1   C16 7533   2.540   0.660   7.596 -0.4434 -0.0067  0.5065
   69CHL1  H16A 7534   2.482   0.591   7.661 -1.2131  1.4132  1.3758
   69CHL1  H16B 7535   2.641   0.645   7.637  0.0577 -1.4560 -1.1338
   69CHL1   C17 7536   2.472   0.797   7.623  1.0465  0.0312  0.4183
   69CHL1   H17 7537   2.552   0.871   7.644  2.1359 -0.3615 -2.0807
   69CHL1   C13 7538   2.398   0.836   7.485  1.4150  0.5869 -0.4073
   69CHL1   C18 7539   2.263   0.765   7.487 -0.4313  0.0232  0.2141
   69CHL1  H18A 7540   2.273   0.657   7.509 -0.3575  0.1423  0.7742
   69CHL1  H18B 7541   2.194   0.808   7.562 -1.1317 -1.4438  0.4365
   69CHL1  H18C 7542   2.202   0.776   7.395  1.5964  1.1064 -1.0855
   69CHL1   C12 7543   2.384   0.987   7.459  0.3152  0.1547  0.3987
   69CHL1  H12A 7544   2.311   1.028   7.532 -1.1063  0.3112 -1.0580
   69CHL1  H12B 7545   2.484   1.030   7.475  1.5813 -2.3441 -0.2009
   69CHL1   C11 7546   2.344   1.021   7.316  0.0068  0.3845  1.1284
   69CHL1  H11A 7547   2.236   0.995   7.321 -0.3576  0.7337 -2.5312
   69CHL1  H11B 7548   2.356   1.128   7.288  1.2239  0.2433  1.0230
   69CHL1    C9 7549   2.413   0.933   7.203 -0.1202  0.0802 -0.1853
   69CHL1    H9 7550   2.509   0.988   7.187 -0.1255  0.4673  0.9636
   69CHL1   C10 7551   2.345   0.944   7.061  0.0629 -0.2621 -0.5661
   69CHL1   C19 7552   2.195   0.907   7.087  0.5543 -0.2024 -0.4543
   69CHL1  H19A 7553   2.139   0.909   6.992 -3.8144 -0.0787  1.8787
   69CHL1  H19B 7554   2.179   0.814   7.145  0.3268 -0.4664 -0.9393
   69CHL1  H19C 7555   2.150   0.990   7.146  1.9374  0.5133 -0.3628
   69CHL1    C1 7556   2.353   1.096   7.016  0.3025  0.5316 -0.0837
   69CHL1   H1A 7557   2.292   1.159   7.085  1.2872  0.5948  0.7491
   69CHL1   H1B 7558   2.462   1.119   7.010  0.5024 -0.7418 -2.0244
   69CHL1    C2 7559   2.295   1.105   6.875 -1.0574 -0.8332 -0.7016
   69CHL1   H2A 7560   2.293   1.210   6.840 -0.6576 -0.9697 -1.1483
   69CHL1   H2B 7561   2.187   1.080   6.880 -1.1072 -0.8741 -1.6946
   69CHL1   C20 7562   2.391   0.796   7.762  0.0674  0.0570  0.6399
   69CHL1   H20 7563   2.310   0.721   7.751  0.1393  0.2044 -1.2370
   69CHL1   C21 7564   2.306   0.921   7.803  0.0694 -0.4480  0.0597
   69CHL1  H21A 7565   2.261   0.910   7.904  1.2782  0.6434  0.7543
   69CHL1  H21B 7566   2.217   0.935   7.738 -0.5588 -2.1912  0.4996
   69CHL1  H21C 7567   2.363   1.016   7.817  0.3621 -0.7673  1.1030
   69CHL1   C22 7568   2.490   0.767   7.876  0.0990 -0.4467  0.4440
   69CHL1  H22A 7569   2.548   0.676   7.851  1.7092  0.9006 -0.9933
   69CHL1  H22B 7570   2.572   0.842   7.873  0.8174 -1.1829  1.2265
   69CHL1   C23 7571   2.435   0.736   8.014 -0.1869  0.2668  0.5811
   69CHL1  H23A 7572   2.409   0.827   8.073 -1.3325 -2.0688  4.0129
   69CHL1  H23B 7573   2.344   0.673   8.007  0.3581 -0.4983  0.1833
   69CHL1   C24 7574   2.545   0.668   8.096 -0.2156  0.5504 -0.1403
   69CHL1  H24A 7575   2.564   0.565   8.059 -1.0829  0.1868  0.4198
   69CHL1  H24B 7576   2.642   0.721   8.084  0.1350 -0.2671 -1.1507
   69CHL1   C25 7577   2.502   0.649   8.243 -0.0723  0.7281  0.6793
   69CHL1   H25 7578   2.451   0.744   8.271 -0.3998  0.3723  1.3315
   69CHL1   C26 7579   2.395   0.537   8.266 -0.0093 -0.3075  0.3081
   69CHL1  H26A 7580   2.425   0.439   8.223 -0.2100  0.6642 -2.2819
   69CHL1  H26B 7581   2.392   0.538   8.377 -0.8267  0.3258  0.2867
   69CHL1  H26C 7582   2.291   0.560   8.236  0.1423  1.7897  1.1681
   69CHL1   C27 7583   2.629   0.637   8.328  0.0006 -0.1059 -0.0711
   69CHL1  H27A 7584   2.601   0.645   8.435 -2.3637 -1.2181 -0.5289
   69CHL1  H27B 7585   2.674   0.537   8.307 -2.4193 -0.9896 -1.5817
   69CHL1  H27C 7586   2.708   0.713   8.312 -1.0002  0.8915 -0.4376
   70CHL1    C3 7587   0.428   3.990   7.075  0.3716  1.1367 -0.3877
   70CHL1    H3 7588   0.402   4.098   7.071 -1.7447  0.6476 -1.8650
   70CHL1    O3 7589   0.383   3.911   6.961 -0.0431  0.3766 -0.2946
   70CHL1   H3' 7590   0.426   3.953   6.886  1.2355 -0.8165 -0.2715
   70CHL1    C4 7591   0.578   3.970   7.094 -0.2419 -0.4748  0.1715
   70CHL1   H4A 7592   0.595   3.861   7.081 -0.3307 -0.4951  0.2345
   70CHL1   H4B 7593   0.635   4.013   7.008 -0.9265  0.3423  0.1221
   70CHL1    C5 7594   0.640   4.017   7.224 -0.2396 -0.0924  0.4455
   70CHL1    C6 7595   0.743   4.100   7.236  0.2351 -1.0727  0.4403
   70CHL1    H6 7596   0.783   4.130   7.138 -0.4124 -3.3712 -0.5996
   70CHL1    C7 7597   0.813   4.146   7.360 -0.6720 -0.4390  1.2078
   70CHL1   H7A 7598   0.922   4.138   7.340 -1.1234  1.1184 -2.7316
   70CHL1   H7B 7599   0.790   4.253   7.382  0.1997 -0.4122  2.0645
   70CHL1    C8 7600   0.781   4.058   7.482 -0.2653  0.0227 -0.2782
   70CHL1    H8 7601   0.828   3.958   7.467 -0.7978 -0.3466  0.4328
   70CHL1   C14 7602   0.828   4.126   7.605  1.0076 -0.2670  0.3797
   70CHL1   H14 7603   0.776   4.224   7.599  0.5619 -0.3268  2.4678
   70CHL1   C15 7604   0.973   4.173   7.618 -0.2106 -0.0185  0.3153
   70CHL1  H15A 7605   1.043   4.089   7.596  0.0455  0.5484 -1.1197
   70CHL1  H15B 7606   0.997   4.250   7.542 -0.2187 -1.8901 -1.6811
   70CHL1   C16 7607   0.980   4.226   7.762  0.1704 -0.1671 -0.9080
   70CHL1  H16A 7608   1.068   4.185   7.816  0.2697 -0.5253 -1.3368
   70CHL1  H16B 7609   0.991   4.337   7.763 -2.3913  0.1461  0.4477
   70CHL1   C17 7610   0.839   4.185   7.825  0.5455  0.1036 -0.0984
   70CHL1   H17 7611   0.771   4.271   7.802 -1.9739 -1.2819  1.7030
   70CHL1   C13 7612   0.788   4.068   7.741  0.2253 -0.1782 -0.9686
   70CHL1   C18 7613   0.861   3.937   7.767  0.0760  0.0020  0.2794
   70CHL1  H18A 7614   0.970   3.953   7.779  0.4474 -1.4643 -0.9272
   70CHL1  H18B 7615   0.821   3.884   7.856  0.7372 -0.1284  0.5015
   70CHL1  H18C 7616   0.856   3.870   7.678  1.4999 -0.2386  0.3613
   70CHL1   C12 7617   0.630   4.045   7.744  0.0331 -0.1332  0.1090
   70CHL1  H12A 7618   0.599   3.977   7.826  0.3106 -1.3606 -0.7736
   70CHL1  H12B 7619   0.574   4.141   7.742  0.0162 -0.1439  0.0773
   70CHL1   C11 7620   0.586   3.972   7.616 -0.5735 -0.0421  0.6821
   70CHL1  H11A 7621   0.633   3.871   7.621  0.9015  0.6364  1.0094
   70CHL1  H11B 7622   0.475   3.965   7.610 -0.5516  0.7752 -2.2668
   70CHL1    C9 7623   0.633   4.040   7.485  0.0972 -0.0703  0.0333
   70CHL1    H9 7624   0.590   4.143   7.489 -0.3295 -0.2898  2.6206
   70CHL1   C10 7625   0.574   3.971   7.356  0.1678  0.4282  0.6148
   70CHL1   C19 7626   0.593   3.814   7.371  0.4057  0.0981 -0.5701
   70CHL1  H19A 7627   0.534   3.773   7.456 -0.6891  0.8499 -0.9416
   70CHL1  H19B 7628   0.544   3.779   7.277  1.0297 -0.2977 -0.7505
   70CHL1  H19C 7629   0.703   3.803   7.379  0.6142  1.8730 -0.5230
   70CHL1    C1 7630   0.419   3.998   7.342  0.3990 -0.3256 -0.4276
   70CHL1   H1A 7631   0.372   3.968   7.438  0.1231  0.9025 -0.1666
   70CHL1   H1B 7632   0.407   4.108   7.339  0.1476 -0.3350  0.1159
   70CHL1    C2 7633   0.356   3.942   7.207 -0.1973 -0.1031 -0.0727
   70CHL1   H2A 7634   0.250   3.974   7.201  0.6357  2.8407 -0.6319
   70CHL1   H2B 7635   0.363   3.831   7.211  1.5060  0.0059  3.1066
   70CHL1   C20 7636   0.830   4.167   7.976  0.2013  0.1587 -0.6273
   70CHL1   H20 7637   0.745   4.101   8.006  2.2398 -1.5162  1.8851
   70CHL1   C21 7638   0.799   4.312   8.036  0.8256 -0.4350 -0.5980
   70CHL1  H21A 7639   0.808   4.314   8.146  0.4609  1.4090 -0.5754
   70CHL1  H21B 7640   0.699   4.356   8.013  1.9016  0.7156 -3.6734
   70CHL1  H21C 7641   0.877   4.377   7.991  1.2223 -1.1147 -0.9187
   70CHL1   C22 7642   0.964   4.115   8.043 -0.3165 -1.0926 -0.4126
   70CHL1  H22A 7643   0.986   4.028   7.977  0.8782 -0.6240 -0.6588
   70CHL1  H22B 7644   1.047   4.187   8.031 -1.3432  0.5566  1.7338
   70CHL1   C23 7645   0.948   4.070   8.189 -0.7333 -0.3027 -0.0445
   70CHL1  H23A 7646   0.899   4.161   8.231 -1.2782 -0.6778  0.1394
   70CHL1  H23B 7647   0.879   3.985   8.202  0.0497 -0.9703 -0.1570
   70CHL1   C24 7648   1.087   4.060   8.251  0.7952  0.6822  0.9267
   70CHL1  H24A 7649   1.128   3.963   8.215 -2.2105 -1.8718  3.8122
   70CHL1  H24B 7650   1.153   4.147   8.227  0.0909  0.9549 -0.0645
   70CHL1   C25 7651   1.080   4.029   8.407  0.1010  0.2903  0.2675
   70CHL1   H25 7652   0.979   3.984   8.414  0.6571 -1.0001  0.2437
   70CHL1   C26 7653   1.182   3.927   8.440 -0.0224  0.1659  0.1567
   70CHL1  H26A 7654   1.287   3.963   8.442  0.5697 -1.3499 -1.3471
   70CHL1  H26B 7655   1.164   3.877   8.538  0.7533 -2.2718 -0.8785
   70CHL1  H26C 7656   1.182   3.839   8.372  0.8538 -2.0215  2.7737
   70CHL1   C27 7657   1.081   4.159   8.498 -0.5171 -0.2182 -0.3279
   70CHL1  H27A 7658   1.184   4.201   8.494 -1.5956  2.9504  1.6503
   70CHL1  H27B 7659   1.013   4.240   8.463  0.1363  0.7228  0.5263
   70CHL1  H27C 7660   1.050   4.139   8.603 -2.5565 -0.8815 -1.0027
   71CHL1    C3 7661   1.101   0.006   6.855 -0.5395  0.7371 -0.0399
   71CHL1    H3 7662   0.990   0.009   6.859 -0.6898 -2.6807  1.1669
   71CHL1    O3 7663   1.137   0.051   6.723  0.5752 -0.2422  0.1821
   71CHL1   H3' 7664   1.230   0.073   6.718  0.2240  1.1215 -1.7558
   71CHL1    C4 7665   1.156   0.112   6.956 -0.0878 -0.0880  0.4954
   71CHL1   H4A 7666   1.265   0.119   6.936 -0.2283  0.9917 -0.0075
   71CHL1   H4B 7667   1.120   0.211   6.919  1.4254  0.5048  0.5527
   71CHL1    C5 7668   1.123   0.082   7.099 -0.1425 -0.4394 -0.1185
   71CHL1    C6 7669   1.054   0.170   7.174  0.0330  0.2010  0.0473
   71CHL1    H6 7670   1.011   0.261   7.130 -1.0784 -1.1555 -1.8370
   71CHL1    C7 7671   1.032   0.139   7.321 -0.2162 -0.3157 -0.5976
   71CHL1   H7A 7672   1.010   0.231   7.379 -2.7396 -1.8631  1.0709
   71CHL1   H7B 7673   0.930   0.096   7.328  0.9056 -2.7905  2.5528
   71CHL1    C8 7674   1.126   0.026   7.382  0.3833 -0.9002 -0.0192
   71CHL1    H8 7675   1.223   0.076   7.405 -1.0849  1.7814  0.7952
   71CHL1   C14 7676   1.061  -0.026   7.510 -0.6425 -0.1077  0.2385
   71CHL1   H14 7677   0.961  -0.069   7.486 -1.1717  0.9719  0.4625
   71CHL1   C15 7678   1.026   0.075   7.626 -0.5554 -0.0295  0.3686
   71CHL1  H15A 7679   1.117   0.136   7.644  0.2212 -1.0753  0.0705
   71CHL1  H15B 7680   0.935   0.131   7.593  0.9784  0.1598 -4.1283
   71CHL1   C16 7681   0.996  -0.017   7.747  0.3196 -0.1744  0.4270
   71CHL1  H16A 7682   1.072   0.013   7.822 -0.1462  3.1691 -0.2646
   71CHL1  H16B 7683   0.893   0.002   7.783  0.1352 -2.3413  1.1601
   71CHL1   C17 7684   1.031  -0.159   7.707  0.5158 -0.5083 -0.5784
   71CHL1   H17 7685   0.936  -0.199   7.665  0.1362 -0.1864 -0.0368
   71CHL1   C13 7686   1.123  -0.144   7.579  0.3954  0.1678 -0.6361
   71CHL1   C18 7687   1.258  -0.101   7.631  0.0155 -0.5076  0.5146
   71CHL1  H18A 7688   1.320  -0.044   7.560 -0.9419 -1.4009 -1.1163
   71CHL1  H18B 7689   1.267  -0.034   7.719  2.2009  0.1867 -0.1990
   71CHL1  H18C 7690   1.310  -0.197   7.652 -0.5570 -0.8476  0.4176
   71CHL1   C12 7691   1.122  -0.256   7.482  0.0580 -0.1651  0.4119
   71CHL1  H12A 7692   1.181  -0.340   7.523 -1.7615 -0.2914  3.0132
   71CHL1  H12B 7693   1.021  -0.299   7.471 -0.3020  0.0348  2.5178
   71CHL1   C11 7694   1.183  -0.212   7.345 -0.2526  0.5171  0.5335
   71CHL1  H11A 7695   1.291  -0.200   7.364 -0.3630 -0.6295  2.0560
   71CHL1  H11B 7696   1.163  -0.300   7.279  1.3628  0.7762 -0.3565
   71CHL1    C9 7697   1.121  -0.087   7.281  0.6914  0.7708 -0.2259
   71CHL1    H9 7698   1.013  -0.113   7.267  0.9697 -0.0759 -0.9199
   71CHL1   C10 7699   1.179  -0.058   7.145 -0.0134  0.1300 -0.5501
   71CHL1   C19 7700   1.334  -0.059   7.148  0.6837 -0.7459  0.3584
   71CHL1  H19A 7701   1.384   0.007   7.222  0.7223 -0.5145  0.1242
   71CHL1  H19B 7702   1.367  -0.163   7.168  3.1413 -0.0674  0.1292
   71CHL1  H19C 7703   1.382  -0.040   7.050  0.1578 -0.3962  0.1657
   71CHL1    C1 7704   1.131  -0.176   7.041  0.3253  0.1724  0.6052
   71CHL1   H1A 7705   1.184  -0.271   7.065  1.9697 -0.0692 -3.2442
   71CHL1   H1B 7706   1.022  -0.195   7.049 -0.2601  2.8054  0.0670
   71CHL1    C2 7707   1.158  -0.133   6.892 -0.4020 -0.4338  0.2531
   71CHL1   H2A 7708   1.107  -0.212   6.832 -1.1787 -0.0760  0.4238
   71CHL1   H2B 7709   1.266  -0.136   6.867 -0.2183 -1.7021  1.1175
   71CHL1   C20 7710   1.076  -0.249   7.822 -0.1106  0.3108  0.4050
   71CHL1   H20 7711   1.180  -0.229   7.854  0.2407  0.2234 -0.6620
   71CHL1   C21 7712   1.056  -0.399   7.783 -0.6852 -0.4957 -0.1984
   71CHL1  H21A 7713   1.098  -0.474   7.853 -1.0038  2.1001  3.0189
   71CHL1  H21B 7714   1.108  -0.412   7.686  1.5121  0.3841  0.8050
   71CHL1  H21C 7715   0.951  -0.430   7.762 -0.4275 -0.8551 -0.9791
   71CHL1   C22 7716   0.996  -0.224   7.956  0.0015  0.2912 -0.2624
   71CHL1  H22A 7717   0.988  -0.117   7.987 -0.6253  0.3987 -0.7863
   71CHL1  H22B 7718   0.889  -0.250   7.939  0.1174 -2.7780  2.5595
   71CHL1   C23 7719   1.053  -0.298   8.078  0.2541 -0.2010 -0.1986
   71CHL1  H23A 7720   1.088  -0.400   8.051 -1.6753 -0.9064 -0.1704
   71CHL1  H23B 7721   1.131  -0.237   8.128 -0.3642 -1.5003  2.5442
   71CHL1   C24 7722   0.945  -0.312   8.191  0.0158  0.6849 -0.4108
   71CHL1  H24A 7723   0.887  -0.217   8.185  1.0543  1.4288  0.8862
   71CHL1  H24B 7724   0.872  -0.392   8.166  0.6709 -0.6624  1.7364
   71CHL1   C25 7725   0.987  -0.342   8.335 -0.1796  0.8228 -0.7498
   71CHL1   H25 7726   1.083  -0.399   8.337 -2.3989 -3.2599  0.3155
   71CHL1   C26 7727   0.993  -0.208   8.419  0.0352 -0.3185  0.0592
   71CHL1  H26A 7728   0.900  -0.152   8.395  1.2001  1.2530 -0.9467
   71CHL1  H26B 7729   1.007  -0.217   8.528  2.0391  1.8896  0.0525
   71CHL1  H26C 7730   1.070  -0.141   8.377  0.6259 -1.1622 -0.2357
   71CHL1   C27 7731   0.886  -0.429   8.407 -0.2654  0.0995 -0.0090
   71CHL1  H27A 7732   0.884  -0.419   8.518 -0.5336 -1.8065  0.2031
   71CHL1  H27B 7733   0.783  -0.412   8.369 -0.5069 -2.1695 -0.5162
   71CHL1  H27C 7734   0.902  -0.538   8.390 -0.2111  0.0671  0.2414
   72CHL1    C3 7735   1.922   4.042   7.139 -0.3428 -0.0101  0.8263
   72CHL1    H3 7736   1.811   4.033   7.144 -0.2747 -2.2801 -0.6260
   72CHL1    O3 7737   1.952   4.059   7.001 -0.7390  0.4869  0.6439
   72CHL1   H3' 7738   2.045   4.038   6.995 -1.0157 -0.6898  0.2307
   72CHL1    C4 7739   1.979   4.166   7.213 -1.2197  0.6804 -0.2266
   72CHL1   H4A 7740   2.089   4.166   7.206 -0.8759  2.3380  3.2510
   72CHL1   H4B 7741   1.949   4.262   7.165 -0.9700  1.2879  0.7964
   72CHL1    C5 7742   1.953   4.158   7.364  0.3994  0.1165 -0.3328
   72CHL1    C6 7743   1.876   4.247   7.427  0.7734  1.1539 -0.4224
   72CHL1    H6 7744   1.843   4.335   7.369  0.7383  2.0977  1.0006
   72CHL1    C7 7745   1.864   4.259   7.579 -0.0259  0.0705  0.2718
   72CHL1   H7A 7746   1.882   4.365   7.606 -0.9782  0.0785  0.9282
   72CHL1   H7B 7747   1.766   4.218   7.613 -0.8072  0.4614 -1.4229
   72CHL1    C8 7748   1.974   4.172   7.649 -0.3647 -0.2593 -0.1387
   72CHL1    H8 7749   2.072   4.224   7.637 -0.6111  0.2136 -0.1266
   72CHL1   C14 7750   1.939   4.148   7.804  0.0245 -0.4992  0.1448
   72CHL1   H14 7751   1.843   4.092   7.804 -0.1132 -0.2816  1.5735
   72CHL1   C15 7752   1.914   4.273   7.892  0.0401 -1.0350  0.4210
   72CHL1  H15A 7753   1.978   4.355   7.853 -1.0946  0.2055  1.1065
   72CHL1  H15B 7754   1.818   4.325   7.875  0.1661  0.0148  2.5752
   72CHL1   C16 7755   1.934   4.222   8.038 -0.3032 -0.0652 -0.1742
   72CHL1  H16A 7756   2.014   4.291   8.074  0.2867  0.3860 -2.1844
   72CHL1  H16B 7757   1.850   4.244   8.107 -0.4362  0.5523 -0.5269
   72CHL1   C17 7758   1.982   4.073   8.023 -0.5541  0.0215 -0.4240
   72CHL1   H17 7759   1.890   4.010   8.027 -0.6997  0.2760  0.3073
   72CHL1   C13 7760   2.037   4.065   7.878  0.3550 -0.1794 -0.0599
   72CHL1   C18 7761   2.176   4.138   7.880  0.0640  0.3546  0.4304
   72CHL1  H18A 7762   2.256   4.068   7.912 -0.4830 -0.1585  0.7028
   72CHL1  H18B 7763   2.206   4.168   7.778  3.4636  1.1282  1.5205
   72CHL1  H18C 7764   2.181   4.222   7.952  0.9692 -0.5280  1.4438
   72CHL1   C12 7765   2.039   3.920   7.808 -0.4013 -0.4564 -0.4841
   72CHL1  H12A 7766   2.121   3.860   7.853  0.1093  1.8176  1.8345
   72CHL1  H12B 7767   1.936   3.880   7.821 -0.6215  0.9036  3.0141
   72CHL1   C11 7768   2.083   3.933   7.658  0.1835  0.3545  0.7262
   72CHL1  H11A 7769   2.189   3.965   7.653 -0.1691  1.6486  1.2902
   72CHL1  H11B 7770   2.075   3.833   7.610 -1.7638  0.3477  0.9788
   72CHL1    C9 7771   1.993   4.034   7.581 -0.5256 -0.2915  0.2595
   72CHL1    H9 7772   1.885   4.008   7.573 -1.4798  2.6484  2.0470
   72CHL1   C10 7773   2.032   4.036   7.424  0.1642  0.2905  0.1721
   72CHL1   C19 7774   2.187   4.063   7.406 -0.2046 -0.4162  0.0134
   72CHL1  H19A 7775   2.218   4.163   7.444  1.7344 -1.4300  1.2545
   72CHL1  H19B 7776   2.239   3.980   7.458 -0.9874 -1.4216 -0.7522
   72CHL1  H19C 7777   2.228   4.049   7.303 -1.6727 -2.6391 -0.3308
   72CHL1    C1 7778   1.992   3.906   7.351 -0.0305 -0.2527 -0.3114
   72CHL1   H1A 7779   2.054   3.817   7.377  1.6800  0.3649 -2.0533
   72CHL1   H1B 7780   1.894   3.871   7.390 -0.1288 -1.1394 -1.2932
   72CHL1    C2 7781   1.983   3.910   7.199  0.0281  0.2806  0.1196
   72CHL1   H2A 7782   1.934   3.825   7.147 -1.2499  0.2993  1.2588
   72CHL1   H2B 7783   2.093   3.903   7.182  0.0486  0.5288  0.1485
   72CHL1   C20 7784   2.072   4.023   8.142 -0.4118 -0.4731 -0.3416
   72CHL1   H20 7785   2.164   4.084   8.149 -0.5495 -0.4634  2.1053
   72CHL1   C21 7786   2.124   3.880   8.123  0.2394 -0.1545  0.1942
   72CHL1  H21A 7787   2.204   3.861   8.049  0.5279 -0.8302  0.6692
   72CHL1  H21B 7788   2.039   3.808   8.111  1.1302 -1.3280  0.6797
   72CHL1  H21C 7789   2.169   3.851   8.220  1.3675 -1.0458 -0.5702
   72CHL1   C22 7790   2.003   4.039   8.279 -0.6396 -0.8004 -0.2146
   72CHL1  H22A 7791   1.959   4.140   8.289  1.0777  0.2310 -2.2306
   72CHL1  H22B 7792   1.927   3.958   8.280 -0.8273 -0.6175  0.1674
   72CHL1   C23 7793   2.091   4.040   8.405 -0.4030 -0.5666 -0.5583
   72CHL1  H23A 7794   2.156   3.951   8.393 -0.5477 -0.4348 -2.8713
   72CHL1  H23B 7795   2.142   4.137   8.389  1.1090 -0.7588  2.4751
   72CHL1   C24 7796   2.006   4.045   8.533  0.1640 -0.4216 -0.6072
   72CHL1  H24A 7797   1.951   4.141   8.531  0.3124 -0.3302 -2.1309
   72CHL1  H24B 7798   1.923   3.972   8.527  1.3251 -1.9651  1.1212
   72CHL1   C25 7799   2.093   4.023   8.664 -0.2757  0.2104  0.3544
   72CHL1   H25 7800   2.028   4.010   8.753  0.6960  1.1386  1.2225
   72CHL1   C26 7801   2.168   3.889   8.654 -0.3099  0.1834  0.4248
   72CHL1  H26A 7802   2.094   3.807   8.638 -0.2622  0.3781 -0.9272
   72CHL1  H26B 7803   2.244   3.884   8.573  0.6070 -1.0321  1.3167
   72CHL1  H26C 7804   2.202   3.859   8.755 -0.6350 -3.0652 -0.2949
   72CHL1   C27 7805   2.189   4.141   8.690 -0.1012 -0.1891  0.4610
   72CHL1  H27A 7806   2.128   4.234   8.696 -3.0572 -1.9422 -0.1175
   72CHL1  H27B 7807   2.248   4.130   8.783 -1.4819 -1.7283  1.1891
   72CHL1  H27C 7808   2.260   4.144   8.605  0.5132  1.1264  0.9930
   73CHL1    C3 7809   1.687   0.803   7.119 -0.8092 -0.7550  0.2126
   73CHL1    H3 7810   1.615   0.854   7.187 -0.2944  0.8094 -0.3862
   73CHL1    O3 7811   1.667   0.835   6.984 -0.4757  0.7571  0.1094
   73CHL1   H3' 7812   1.590   0.782   6.962  0.1223 -0.3677  0.6788
   73CHL1    C4 7813   1.824   0.857   7.160  0.5379 -0.0187 -0.9122
   73CHL1   H4A 7814   1.899   0.814   7.090  1.7025 -2.0570  1.4325
   73CHL1   H4B 7815   1.827   0.967   7.146  2.9097 -0.2126 -2.6404
   73CHL1    C5 7816   1.847   0.810   7.304  0.0979  0.1656  0.7007
   73CHL1    C6 7817   1.862   0.897   7.399  0.7607 -0.1176 -0.3128
   73CHL1    H6 7818   1.866   1.003   7.369 -2.4607 -0.0143 -0.6493
   73CHL1    C7 7819   1.889   0.859   7.539  0.0742  0.7111 -0.3132
   73CHL1   H7A 7820   1.983   0.917   7.555 -1.3900  3.4586 -1.0292
   73CHL1   H7B 7821   1.810   0.889   7.611 -0.7830  0.4419 -1.1243
   73CHL1    C8 7822   1.917   0.706   7.566  0.1924 -0.0862 -0.3632
   73CHL1    H8 7823   2.021   0.684   7.532  0.4307 -1.8023  1.3139
   73CHL1   C14 7824   1.905   0.670   7.717 -0.1293 -0.1629 -0.0608
   73CHL1   H14 7825   1.795   0.681   7.728 -0.1335  2.5765 -1.7913
   73CHL1   C15 7826   1.980   0.759   7.828 -0.7402 -1.1344 -0.4379
   73CHL1  H15A 7827   2.086   0.769   7.798 -0.9297 -0.1457 -0.8215
   73CHL1  H15B 7828   1.935   0.861   7.825  1.2722 -0.2022 -0.2105
   73CHL1   C16 7829   1.965   0.670   7.953  0.4880  0.5904  0.4274
   73CHL1  H16A 7830   2.064   0.658   8.002 -0.1953 -1.5374  1.4384
   73CHL1  H16B 7831   1.890   0.711   8.024 -1.4952 -2.2791  0.1586
   73CHL1   C17 7832   1.911   0.527   7.908  0.2415 -0.7114 -0.1574
   73CHL1   H17 7833   1.800   0.532   7.921  0.1314 -0.9825 -0.8998
   73CHL1   C13 7834   1.939   0.527   7.749  0.0946  0.0754  0.0726
   73CHL1   C18 7835   2.086   0.493   7.733  0.1235  0.5728 -0.0265
   73CHL1  H18A 7836   2.106   0.386   7.756 -0.6937  0.5341  0.5317
   73CHL1  H18B 7837   2.122   0.515   7.630  3.2501  1.3968  1.1013
   73CHL1  H18C 7838   2.156   0.557   7.791  1.5378  0.4040 -1.4422
   73CHL1   C12 7839   1.837   0.442   7.666 -0.5465  0.2695  0.3644
   73CHL1  H12A 7840   1.858   0.333   7.667  1.2395  0.5716 -0.7638
   73CHL1  H12B 7841   1.729   0.462   7.684 -0.3786  0.7344  0.8742
   73CHL1   C11 7842   1.850   0.475   7.515 -0.3400  0.1939 -0.4838
   73CHL1  H11A 7843   1.954   0.450   7.483  0.0977  0.8754  0.3758
   73CHL1  H11B 7844   1.778   0.402   7.473  0.1963 -1.1551  0.8779
   73CHL1    C9 7845   1.816   0.622   7.482 -0.4530  0.1937 -0.1736
   73CHL1    H9 7846   1.713   0.643   7.519  0.1679  2.9159  0.2956
   73CHL1   C10 7847   1.830   0.654   7.330  0.2261  0.5223  0.1388
   73CHL1   C19 7848   1.954   0.591   7.261  0.3984  0.4472  0.2040
   73CHL1  H19A 7849   2.048   0.610   7.317 -0.7895  1.3013  1.9944
   73CHL1  H19B 7850   1.920   0.485   7.252 -0.9012  0.8175  0.5300
   73CHL1  H19C 7851   1.977   0.622   7.157 -0.7692 -1.2419 -0.5955
   73CHL1    C1 7852   1.692   0.610   7.274 -0.2961  0.5332  0.2348
   73CHL1   H1A 7853   1.682   0.502   7.295 -1.1384  1.0756  3.0579
   73CHL1   H1B 7854   1.606   0.650   7.332 -0.7900 -0.7450  0.4042
   73CHL1    C2 7855   1.669   0.651   7.132 -0.4406 -0.3864 -0.1981
   73CHL1   H2A 7856   1.565   0.638   7.097 -0.2990  0.8456 -1.1365
   73CHL1   H2B 7857   1.732   0.600   7.056  0.6232  4.3457 -2.8753
   73CHL1   C20 7858   1.967   0.407   7.989 -0.1751  0.3317 -0.2076
   73CHL1   H20 7859   2.075   0.391   7.966 -0.7427 -3.0402 -1.0849
   73CHL1   C21 7860   1.908   0.280   7.931  0.0209  0.2207 -0.6699
   73CHL1  H21A 7861   1.797   0.270   7.924  0.1028 -1.8051  0.1889
   73CHL1  H21B 7862   1.946   0.191   7.987  3.0564  1.6305 -0.3160
   73CHL1  H21C 7863   1.955   0.265   7.832  2.0039  0.1459  0.2414
   73CHL1   C22 7864   1.942   0.419   8.147 -0.0731 -0.2714  1.3091
   73CHL1  H22A 7865   2.000   0.331   8.183  0.7082 -0.7657 -0.9947
   73CHL1  H22B 7866   1.993   0.514   8.174  1.3894 -0.2927 -1.0495
   73CHL1   C23 7867   1.795   0.425   8.182  0.0452  0.1874 -0.1844
   73CHL1  H23A 7868   1.749   0.514   8.133 -2.7551 -0.6401  0.7358
   73CHL1  H23B 7869   1.739   0.343   8.133 -2.8814  2.2552 -0.5674
   73CHL1   C24 7870   1.762   0.432   8.332  0.3759 -0.7876 -0.4037
   73CHL1  H24A 7871   1.806   0.348   8.390  0.6141  1.3733  2.8130
   73CHL1  H24B 7872   1.819   0.516   8.376  0.1594 -0.1560 -1.2979
   73CHL1   C25 7873   1.615   0.456   8.359 -0.1503  0.1169  0.1066
   73CHL1   H25 7874   1.571   0.498   8.266  2.2704 -1.0130 -1.6509
   73CHL1   C26 7875   1.545   0.329   8.393  0.1864  0.0740 -0.5200
   73CHL1  H26A 7876   1.436   0.338   8.413  0.3696 -0.5341  0.9048
   73CHL1  H26B 7877   1.564   0.266   8.304  1.4070  1.8538 -1.5846
   73CHL1  H26C 7878   1.589   0.290   8.488 -0.9692 -1.2651 -0.4972
   73CHL1   C27 7879   1.605   0.552   8.475 -0.2426  0.3701  0.5183
   73CHL1  H27A 7880   1.630   0.510   8.575 -0.6868 -1.2523 -0.0243
   73CHL1  H27B 7881   1.675   0.637   8.459  1.3376 -0.2756  3.2903
   73CHL1  H27C 7882   1.504   0.598   8.482 -0.1748  0.7282 -0.5581
   74CHL1    C3 7883   5.081   5.191   6.888 -0.0128 -0.2876  0.3471
   74CHL1    H3 7884   5.068   5.084   6.914  0.8346 -0.1775  1.2930
   74CHL1    O3 7885   5.112   5.206   6.754 -0.2714  0.1155 -0.4355
   74CHL1   H3' 7886   5.207   5.205   6.739 -0.2701 -0.6165 -0.4333
   74CHL1    C4 7887   4.951   5.272   6.910 -0.3585  0.2675  0.2343
   74CHL1   H4A 7888   4.972   5.376   6.878  0.3102 -0.3814 -1.5604
   74CHL1   H4B 7889   4.875   5.217   6.850 -0.9386 -1.6828  2.5842
   74CHL1    C5 7890   4.914   5.263   7.053  0.4106 -0.2361  0.0467
   74CHL1    C6 7891   4.794   5.225   7.093 -0.2332  0.1720  0.2068
   74CHL1    H6 7892   4.724   5.192   7.015 -0.6468  0.6530  0.3648
   74CHL1    C7 7893   4.747   5.203   7.234 -0.2579  0.5026 -0.2680
   74CHL1   H7A 7894   4.642   5.239   7.242 -0.1000  0.6130  2.1649
   74CHL1   H7B 7895   4.752   5.096   7.264  1.0223  0.5947 -0.1169
   74CHL1    C8 7896   4.829   5.297   7.327  0.2255 -0.2958  0.4614
   74CHL1    H8 7897   4.816   5.405   7.304  2.2479  0.2986  1.8030
   74CHL1   C14 7898   4.795   5.273   7.476 -0.3667  0.1961 -0.4602
   74CHL1   H14 7899   4.826   5.167   7.492  0.5945  0.8111  2.5437
   74CHL1   C15 7900   4.648   5.280   7.529 -0.8876  0.1388  0.2079
   74CHL1  H15A 7901   4.606   5.372   7.483 -0.4347 -0.6145 -1.8361
   74CHL1  H15B 7902   4.600   5.195   7.476  1.6187 -0.5196 -1.2003
   74CHL1   C16 7903   4.653   5.291   7.679 -0.6548  0.2941 -0.2825
   74CHL1  H16A 7904   4.599   5.382   7.713 -0.3435  0.1307  0.6933
   74CHL1  H16B 7905   4.603   5.204   7.726 -0.6190  1.8170  2.8674
   74CHL1   C17 7906   4.805   5.300   7.717  0.0698 -0.4338  0.5760
   74CHL1   H17 7907   4.828   5.192   7.727  0.6469 -0.3036  0.6761
   74CHL1   C13 7908   4.874   5.344   7.582  0.5827 -0.2734 -0.2370
   74CHL1   C18 7909   4.851   5.500   7.567 -0.1237 -0.0550  0.1525
   74CHL1  H18A 7910   4.746   5.535   7.576 -0.3269 -0.5091 -0.4103
   74CHL1  H18B 7911   4.905   5.565   7.640  1.9489 -0.6805 -0.7274
   74CHL1  H18C 7912   4.898   5.524   7.469 -0.0561  1.8141  0.5980
   74CHL1   C12 7913   5.017   5.296   7.565  0.4915  0.0655 -0.2456
   74CHL1  H12A 7914   5.086   5.346   7.636  1.6364 -0.6792 -0.8081
   74CHL1  H12B 7915   5.030   5.193   7.604 -0.1887  1.0927  2.9229
   74CHL1   C11 7916   5.067   5.319   7.419 -0.1542  0.9084 -0.2287
   74CHL1  H11A 7917   5.086   5.428   7.409  0.8134  0.8387  0.6744
   74CHL1  H11B 7918   5.169   5.276   7.411 -0.4896  0.4291 -3.1785
   74CHL1    C9 7919   4.973   5.257   7.309  0.7098  0.3932 -0.0337
   74CHL1    H9 7920   4.982   5.146   7.318 -0.5771  0.1725 -1.2187
   74CHL1   C10 7921   5.024   5.294   7.162 -0.7227 -0.3062  0.5527
   74CHL1   C19 7922   5.048   5.451   7.146 -0.4899 -0.4711  0.1022
   74CHL1  H19A 7923   5.136   5.484   7.206 -0.1228  1.0410 -1.1961
   74CHL1  H19B 7924   5.068   5.478   7.040 -1.7398 -4.0882 -1.1762
   74CHL1  H19C 7925   4.962   5.513   7.179 -0.7136 -1.7726  2.1274
   74CHL1    C1 7926   5.164   5.231   7.121  0.1435 -0.1746 -0.0378
   74CHL1   H1A 7927   5.244   5.274   7.185  0.1763 -0.8409  0.3803
   74CHL1   H1B 7928   5.154   5.124   7.148 -0.7429  0.0357  0.5328
   74CHL1    C2 7929   5.200   5.241   6.977  0.3703 -0.5669  0.1872
   74CHL1   H2A 7930   5.296   5.186   6.974  1.0634  0.4053  2.5452
   74CHL1   H2B 7931   5.241   5.337   6.940  2.7469 -0.2375  3.2674
   74CHL1   C20 7932   4.835   5.381   7.843 -0.4744  0.1655 -0.0407
   74CHL1   H20 7933   4.810   5.486   7.816 -0.7228  1.3154  4.0498
   74CHL1   C21 7934   4.986   5.384   7.883 -0.4409  0.1815  0.8306
   74CHL1  H21A 7935   5.026   5.280   7.880 -3.0690 -0.9121 -1.8327
   74CHL1  H21B 7936   4.992   5.432   7.983 -0.3009  0.1500  0.8367
   74CHL1  H21C 7937   5.033   5.458   7.815 -0.7607 -1.6373 -1.5115
   74CHL1   C22 7938   4.749   5.335   7.961  0.0963  0.3160  0.7777
   74CHL1  H22A 7939   4.645   5.311   7.931 -0.1890  2.3836 -0.0229
   74CHL1  H22B 7940   4.789   5.237   7.997  0.9281 -0.2473 -1.5105
   74CHL1   C23 7941   4.750   5.431   8.085  0.5530  0.6551  0.4300
   74CHL1  H23A 7942   4.849   5.475   8.107  1.0094 -0.1594  0.0728
   74CHL1  H23B 7943   4.679   5.512   8.058  2.6149  2.6772  0.7953
   74CHL1   C24 7944   4.712   5.364   8.213  0.3961  0.6273  0.5211
   74CHL1  H24A 7945   4.608   5.328   8.202  0.1878  1.0509  1.0411
   74CHL1  H24B 7946   4.777   5.279   8.244  1.4546  1.3295  0.2875
   74CHL1   C25 7947   4.704   5.468   8.322  0.7144  0.0354 -1.0721
   74CHL1   H25 7948   4.670   5.563   8.274  2.5584 -0.2043 -3.0229
   74CHL1   C26 7949   4.606   5.430   8.432  0.4679 -0.0933  0.1493
   74CHL1  H26A 7950   4.500   5.417   8.400  0.5453  1.9174 -1.0565
   74CHL1  H26B 7951   4.630   5.336   8.487 -1.8301 -2.0160 -1.8491
   74CHL1  H26C 7952   4.602   5.515   8.503 -1.9274  0.5552 -0.6533
   74CHL1   C27 7953   4.843   5.507   8.382 -0.1132  0.5111 -0.1841
   74CHL1  H27A 7954   4.927   5.492   8.311  0.2787  0.0006  0.3782
   74CHL1  H27B 7955   4.843   5.612   8.418 -2.1225  1.3385 -2.3336
   74CHL1  H27C 7956   4.876   5.443   8.466 -2.2898 -2.2021 -1.2269
   75CHL1    C3 7957   2.637   6.569   6.724  0.0754  0.2251  0.1942
   75CHL1    H3 7958   2.737   6.619   6.728  0.2452 -0.1331  0.4819
   75CHL1    O3 7959   2.601   6.566   6.588 -0.5246 -0.2084 -0.3095
   75CHL1   H3' 7960   2.526   6.507   6.579 -1.1198  0.6644 -1.3746
   75CHL1    C4 7961   2.627   6.430   6.779  0.0594 -0.3044  0.3131
   75CHL1   H4A 7962   2.528   6.382   6.763 -1.1838  2.2102  0.0724
   75CHL1   H4B 7963   2.701   6.370   6.722 -1.3800 -1.1628 -0.7133
   75CHL1    C5 7964   2.662   6.422   6.925 -0.6053  1.2691  0.6367
   75CHL1    C6 7965   2.774   6.361   6.970 -0.2339 -0.3117  0.3437
   75CHL1    H6 7966   2.847   6.326   6.895  0.9044  1.9468  0.3101
   75CHL1    C7 7967   2.799   6.346   7.115 -0.1680 -0.0619 -0.2582
   75CHL1   H7A 7968   2.829   6.242   7.139 -1.2047 -0.6752 -1.5258
   75CHL1   H7B 7969   2.886   6.411   7.140 -0.3921  0.8927 -1.7951
   75CHL1    C8 7970   2.693   6.394   7.210 -0.2594 -0.1554 -0.6174
   75CHL1    H8 7971   2.623   6.308   7.212  1.6531 -1.8455  2.4171
   75CHL1   C14 7972   2.742   6.424   7.347  0.5149 -0.6438 -0.8709
   75CHL1   H14 7973   2.821   6.503   7.343  0.4521 -0.5877 -1.0160
   75CHL1   C15 7974   2.818   6.306   7.410 -0.0669 -0.2420  0.2429
   75CHL1  H15A 7975   2.755   6.216   7.392 -2.8633  1.8439 -1.0566
   75CHL1  H15B 7976   2.923   6.296   7.375 -0.0598  0.1212  0.1550
   75CHL1   C16 7977   2.818   6.342   7.565  0.2023  0.0690  0.4040
   75CHL1  H16A 7978   2.794   6.259   7.635 -2.8634  0.9959  0.6259
   75CHL1  H16B 7979   2.918   6.378   7.597  2.1738 -0.9782 -3.8704
   75CHL1   C17 7980   2.725   6.470   7.576 -0.0750  0.5999  0.2616
   75CHL1   H17 7981   2.788   6.559   7.560  2.1673 -1.5213 -4.9999
   75CHL1   C13 7982   2.631   6.466   7.451 -0.4043 -0.3736  0.8638
   75CHL1   C18 7983   2.514   6.357   7.464 -0.0009  0.4313 -0.1803
   75CHL1  H18A 7984   2.467   6.336   7.366 -1.1767  0.8207  0.2892
   75CHL1  H18B 7985   2.564   6.263   7.495 -0.9656 -0.1842 -0.4701
   75CHL1  H18C 7986   2.426   6.379   7.528 -1.0226 -2.0082 -0.6303
   75CHL1   C12 7987   2.573   6.602   7.399 -0.1266  1.2605  0.2107
   75CHL1  H12A 7988   2.497   6.634   7.474 -0.4261  1.2641 -0.0911
   75CHL1  H12B 7989   2.657   6.675   7.402  0.2475  0.9321 -1.2452
   75CHL1   C11 7990   2.521   6.591   7.259  0.1437 -0.1779 -0.2417
   75CHL1  H11A 7991   2.429   6.530   7.269 -0.5980  0.7715 -1.0596
   75CHL1  H11B 7992   2.487   6.688   7.218  0.8496 -0.4132 -1.4331
   75CHL1    C9 7993   2.621   6.527   7.159 -0.4060  0.6054  0.8642
   75CHL1    H9 7994   2.702   6.602   7.150 -0.7098  0.8673  0.2524
   75CHL1   C10 7995   2.568   6.501   7.021 -0.0981 -0.7097  0.4041
   75CHL1   C19 7996   2.434   6.426   7.034  0.2748 -1.4845  0.0247
   75CHL1  H19A 7997   2.354   6.492   7.073 -1.0673 -3.1340  0.1608
   75CHL1  H19B 7998   2.403   6.400   6.930  0.1645 -0.0391 -0.3286
   75CHL1  H19C 7999   2.422   6.337   7.099  0.4207 -1.6683 -0.1946
   75CHL1    C1 8000   2.543   6.643   6.947 -0.1573 -0.2236 -0.7701
   75CHL1   H1A 8001   2.465   6.703   6.998  1.0326 -0.8186  1.8866
   75CHL1   H1B 8002   2.637   6.698   6.970  1.6626 -2.0313 -3.2998
   75CHL1    C2 8003   2.526   6.643   6.794 -0.7217 -0.2750  0.7363
   75CHL1   H2A 8004   2.526   6.745   6.749  0.8875 -0.7497 -0.4217
   75CHL1   H2B 8005   2.428   6.593   6.778 -0.4233  0.0190 -2.6225
   75CHL1   C20 8006   2.665   6.463   7.717 -0.1063 -0.1118 -0.5711
   75CHL1   H20 8007   2.631   6.359   7.738  0.3081 -0.3397 -0.9960
   75CHL1   C21 8008   2.555   6.577   7.729  0.2142  0.0882 -0.2131
   75CHL1  H21A 8009   2.462   6.556   7.673 -0.3691  1.5224  0.1690
   75CHL1  H21B 8010   2.593   6.664   7.671  1.3522 -0.6106 -0.5601
   75CHL1  H21C 8011   2.530   6.602   7.834  0.5107 -2.0063  0.4053
   75CHL1   C22 8012   2.776   6.504   7.822 -0.0951  0.2690 -0.2293
   75CHL1  H22A 8013   2.866   6.440   7.810 -0.0204 -0.2171  2.3893
   75CHL1  H22B 8014   2.821   6.604   7.802  1.4945 -0.1882  0.8747
   75CHL1   C23 8015   2.748   6.496   7.971 -0.4552 -0.2884  0.2666
   75CHL1  H23A 8016   2.665   6.570   7.982  0.0898  0.3493  0.1375
   75CHL1  H23B 8017   2.718   6.393   7.998  0.2257 -0.8061 -0.8904
   75CHL1   C24 8018   2.875   6.537   8.059 -0.0785 -0.4194 -0.2120
   75CHL1  H24A 8019   2.836   6.549   8.162 -0.6665  1.1864 -0.5860
   75CHL1  H24B 8020   2.949   6.456   8.074  0.1677  0.0313  1.0956
   75CHL1   C25 8021   2.949   6.665   8.013 -0.2808  0.1362  0.4712
   75CHL1   H25 8022   2.978   6.652   7.907 -1.8970  2.4229 -0.3392
   75CHL1   C26 8023   2.858   6.794   8.014  0.0463  0.6382  0.6844
   75CHL1  H26A 8024   2.864   6.855   8.107  1.2075  0.5072  0.6983
   75CHL1  H26B 8025   2.879   6.851   7.921  0.5918  0.6324  0.8022
   75CHL1  H26C 8026   2.748   6.785   8.000 -0.2044 -0.9930  3.0959
   75CHL1   C27 8027   3.072   6.689   8.100 -0.3559 -0.6935 -0.2309
   75CHL1  H27A 8028   3.108   6.794   8.105  0.7455 -1.1000  3.1262
   75CHL1  H27B 8029   3.023   6.665   8.197 -1.0283 -0.9078 -0.6198
   75CHL1  H27C 8030   3.155   6.618   8.080  0.0498  0.1453 -1.6289
   76CHL1    C3 8031   6.544   3.127   7.133 -0.0015  0.1933 -0.7416
   76CHL1    H3 8032   6.616   3.043   7.141 -0.7354 -0.4233 -0.4668
   76CHL1    O3 8033   6.500   3.163   7.000  0.2249 -0.2131 -0.9570
   76CHL1   H3' 8034   6.437   3.235   7.012 -2.2866 -2.2354 -1.2655
   76CHL1    C4 8035   6.416   3.077   7.213  0.1433 -0.7592  0.8776
   76CHL1   H4A 8036   6.340   3.157   7.209  0.7820 -0.0998 -3.3395
   76CHL1   H4B 8037   6.373   2.985   7.168 -1.2251 -0.9523  2.4620
   76CHL1    C5 8038   6.454   3.038   7.352 -0.3693  0.2344 -0.4146
   76CHL1    C6 8039   6.420   2.914   7.402 -0.4036  0.2061  0.8303
   76CHL1    H6 8040   6.367   2.838   7.344  0.4174 -0.2635  0.6828
   76CHL1    C7 8041   6.437   2.872   7.543  0.5494  0.1226 -0.3642
   76CHL1   H7A 8042   6.339   2.833   7.579  0.4118  0.7130 -0.0792
   76CHL1   H7B 8043   6.519   2.797   7.541 -0.1625 -0.8367  2.3076
   76CHL1    C8 8044   6.479   2.994   7.642 -0.6545  0.6602  0.1502
   76CHL1    H8 8045   6.380   3.043   7.658 -0.3538  2.6814 -3.2809
   76CHL1   C14 8046   6.551   2.947   7.765 -0.0784  0.1225 -0.6069
   76CHL1   H14 8047   6.649   2.903   7.739  0.7292  3.0309 -3.0612
   76CHL1   C15 8048   6.480   2.835   7.842  0.4408  0.0419 -0.1396
   76CHL1  H15A 8049   6.373   2.864   7.851 -0.1320 -2.0926  0.7472
   76CHL1  H15B 8050   6.476   2.730   7.804 -1.2930 -0.1170  0.3775
   76CHL1   C16 8051   6.539   2.837   7.982 -0.0791 -0.2889  0.1839
   76CHL1  H16A 8052   6.458   2.842   8.058 -0.3640  0.1903 -0.1496
   76CHL1  H16B 8053   6.589   2.739   7.999 -0.3577 -0.2074  1.5897
   76CHL1   C17 8054   6.643   2.955   7.984  0.6116  0.3104  0.8405
   76CHL1   H17 8055   6.734   2.899   7.956 -0.7620 -2.1980  1.0764
   76CHL1   C13 8056   6.587   3.055   7.869 -0.7437  0.6988 -0.2353
   76CHL1   C18 8057   6.468   3.131   7.925  0.6611  0.6122 -0.7028
   76CHL1  H18A 8058   6.487   3.221   7.986 -1.8418  0.7773 -0.0497
   76CHL1  H18B 8059   6.405   3.157   7.837  0.2672  1.2261 -0.2444
   76CHL1  H18C 8060   6.410   3.058   7.985 -0.2948 -0.8761 -3.3016
   76CHL1   C12 8061   6.690   3.143   7.798 -0.0314  0.5307 -0.1192
   76CHL1  H12A 8062   6.726   3.228   7.859  1.3478 -1.0579  1.3896
   76CHL1  H12B 8063   6.774   3.071   7.783 -1.2259 -1.0968  0.6738
   76CHL1   C11 8064   6.633   3.204   7.669 -0.0242  0.1077  0.1352
   76CHL1  H11A 8065   6.544   3.262   7.699  0.0027 -0.4385  1.3289
   76CHL1  H11B 8066   6.707   3.275   7.627  0.7225 -0.4649  0.4589
   76CHL1    C9 8067   6.578   3.094   7.570  0.6453  0.0180 -0.2300
   76CHL1    H9 8068   6.665   3.027   7.552  0.8672  0.9695 -3.4014
   76CHL1   C10 8069   6.523   3.153   7.433  0.1363 -0.1050  0.4776
   76CHL1   C19 8070   6.421   3.267   7.458  0.2389 -0.0638  0.5421
   76CHL1  H19A 8071   6.481   3.355   7.489 -0.0135  0.2420  0.1710
   76CHL1  H19B 8072   6.366   3.296   7.365 -0.7122 -1.8602  0.4907
   76CHL1  H19C 8073   6.356   3.238   7.543 -3.2232  0.5132 -1.6695
   76CHL1    C1 8074   6.650   3.213   7.355  0.8752 -0.5844  0.6945
   76CHL1   H1A 8075   6.685   3.310   7.395  0.0268  1.3755 -2.8560
   76CHL1   H1B 8076   6.728   3.134   7.347 -0.0820 -1.3625 -2.1287
   76CHL1    C2 8077   6.610   3.243   7.209  0.1519 -0.4606 -0.5617
   76CHL1   H2A 8078   6.705   3.258   7.154  0.3511 -0.1870 -0.1526
   76CHL1   H2B 8079   6.551   3.336   7.197  1.6758  0.3859 -1.9702
   76CHL1   C20 8080   6.664   3.007   8.124  0.2240  0.9670 -0.1318
   76CHL1   H20 8081   6.575   3.054   8.172  0.1904  1.0132 -0.2411
   76CHL1   C21 8082   6.766   3.126   8.116 -0.6278  0.0769  0.4045
   76CHL1  H21A 8083   6.801   3.162   8.215 -2.2403  0.8533  0.7417
   76CHL1  H21B 8084   6.715   3.217   8.079 -2.3998 -1.1114 -0.2215
   76CHL1  H21C 8085   6.861   3.104   8.065 -0.5521 -2.1626  1.3884
   76CHL1   C22 8086   6.712   2.899   8.227  0.7973  0.5620  0.4915
   76CHL1  H22A 8087   6.666   2.798   8.217  0.1313  0.6645  2.1317
   76CHL1  H22B 8088   6.819   2.870   8.231  0.4927 -0.5498  1.0256
   76CHL1   C23 8089   6.675   2.944   8.374 -0.2023 -0.1246  0.1498
   76CHL1  H23A 8090   6.719   3.045   8.387 -0.5178  0.0621 -0.1964
   76CHL1  H23B 8091   6.564   2.951   8.388  0.1153  1.4082  2.6739
   76CHL1   C24 8092   6.719   2.838   8.481 -0.2872 -0.5519  0.6111
   76CHL1  H24A 8093   6.661   2.746   8.454  0.1598 -0.8457  0.6513
   76CHL1  H24B 8094   6.826   2.823   8.458 -0.7228  0.7371 -2.9099
   76CHL1   C25 8095   6.709   2.875   8.630  0.3288  1.4162  1.3168
   76CHL1   H25 8096   6.775   2.961   8.652  1.0926  1.0568  0.4644
   76CHL1   C26 8097   6.559   2.906   8.679 -0.3869 -0.2614  0.8695
   76CHL1  H26A 8098   6.504   2.975   8.612 -0.2587 -1.1591 -0.2005
   76CHL1  H26B 8099   6.490   2.819   8.694 -0.5115 -0.3787 -0.3353
   76CHL1  H26C 8100   6.561   2.938   8.786 -1.0307  0.5503  0.6467
   76CHL1   C27 8101   6.775   2.757   8.712 -0.0954 -0.1520 -0.3113
   76CHL1  H27A 8102   6.691   2.693   8.749 -1.4245  1.3360 -0.6319
   76CHL1  H27B 8103   6.856   2.713   8.650  1.4115  0.7856  0.9154
   76CHL1  H27C 8104   6.815   2.809   8.801 -0.1059 -2.7262  1.2961
   77CHL1    C3 8105   6.750   6.638   6.842  0.3231 -0.1496 -0.8728
   77CHL1    H3 8106   6.858   6.664   6.843  0.1521  0.5851  0.2510
   77CHL1    O3 8107   6.679   6.665   6.721 -0.1574 -0.2944  0.0412
   77CHL1   H3' 8108   6.737   6.635   6.650 -0.9698 -0.9662 -0.3590
   77CHL1    C4 8109   6.746   6.493   6.883 -0.0087 -0.5366  0.1637
   77CHL1   H4A 8110   6.642   6.455   6.876  0.0665 -0.6431 -0.4109
   77CHL1   H4B 8111   6.798   6.443   6.799 -1.5398  1.2187 -1.9277
   77CHL1    C5 8112   6.805   6.464   7.019  1.0963 -0.1285 -0.0881
   77CHL1    C6 8113   6.914   6.389   7.042 -0.2163  0.2764  0.0751
   77CHL1    H6 8114   6.964   6.347   6.953  2.0994  1.3702  0.7676
   77CHL1    C7 8115   6.976   6.360   7.170 -1.2045  0.3917 -0.0434
   77CHL1   H7A 8116   7.004   6.253   7.170 -0.3566  0.6086  0.6122
   77CHL1   H7B 8117   7.070   6.414   7.193 -2.2779  2.2075  0.3379
   77CHL1    C8 8118   6.886   6.391   7.289  0.8740  0.6586  0.9675
   77CHL1    H8 8119   6.795   6.327   7.282  0.4138  1.4363 -0.7658
   77CHL1   C14 8120   6.947   6.372   7.423 -0.1153  0.7778  0.0285
   77CHL1   H14 8121   7.036   6.438   7.413  0.4706  0.0183  0.1307
   77CHL1   C15 8122   7.019   6.249   7.467 -0.9685 -0.6105  0.1316
   77CHL1  H15A 8123   6.949   6.172   7.427 -1.0162 -0.8893  0.7340
   77CHL1  H15B 8124   7.120   6.238   7.422 -0.5462 -0.1770  0.9439
   77CHL1   C16 8125   7.030   6.260   7.619  0.1592 -0.1640 -0.5019
   77CHL1  H16A 8126   6.976   6.177   7.670  0.1533 -0.0620 -0.3415
   77CHL1  H16B 8127   7.137   6.253   7.650 -0.6465  0.6518  2.8297
   77CHL1   C17 8128   6.959   6.389   7.663 -0.7922  0.0407 -0.1451
   77CHL1   H17 8129   7.035   6.469   7.651 -0.5342 -0.4481 -2.1307
   77CHL1   C13 8130   6.863   6.418   7.544  0.1510 -0.6273  0.3787
   77CHL1   C18 8131   6.741   6.320   7.540 -0.0839 -0.2437 -0.3752
   77CHL1  H18A 8132   6.762   6.213   7.562  1.2752  0.0836  0.0362
   77CHL1  H18B 8133   6.691   6.351   7.634  0.9664  0.2153  0.0516
   77CHL1  H18C 8134   6.672   6.326   7.453  2.3089  1.1019 -2.3095
   77CHL1   C12 8135   6.825   6.564   7.520  0.1457  0.1223  0.0936
   77CHL1  H12A 8136   6.771   6.611   7.606  2.1741 -0.1805  1.6285
   77CHL1  H12B 8137   6.916   6.629   7.515 -0.9913  1.7354 -0.4858
   77CHL1   C11 8138   6.740   6.579   7.388 -0.4547  0.0667  0.7545
   77CHL1  H11A 8139   6.652   6.512   7.392 -0.7531  0.2285 -1.7093
   77CHL1  H11B 8140   6.691   6.678   7.384 -0.0404  0.2389 -0.5823
   77CHL1    C9 8141   6.822   6.530   7.269 -0.1655  0.2203  0.0833
   77CHL1    H9 8142   6.910   6.598   7.264 -1.4698  1.9477 -0.5278
   77CHL1   C10 8143   6.745   6.546   7.133 -0.4705 -0.2224 -0.0351
   77CHL1   C19 8144   6.596   6.508   7.151  0.0739 -0.2187  0.4359
   77CHL1  H19A 8145   6.543   6.483   7.056 -0.6205 -0.7366  0.9522
   77CHL1  H19B 8146   6.585   6.414   7.209 -0.8215  0.0696  0.7412
   77CHL1  H19C 8147   6.550   6.598   7.197  0.8264  0.0271  0.7173
   77CHL1    C1 8148   6.742   6.696   7.094  0.4656 -0.7752  0.5545
   77CHL1   H1A 8149   6.680   6.759   7.161 -0.7046 -0.9810 -0.2926
   77CHL1   H1B 8150   6.847   6.732   7.089  0.7568 -1.6501 -3.5664
   77CHL1    C2 8151   6.687   6.726   6.952  0.3604  0.8079  0.1892
   77CHL1   H2A 8152   6.695   6.834   6.929 -3.0266  1.2634  0.5342
   77CHL1   H2B 8153   6.579   6.698   6.955  0.4744  0.4739  1.7135
   77CHL1   C20 8154   6.913   6.388   7.801  0.7241  0.8833 -0.8518
   77CHL1   H20 8155   6.837   6.310   7.826 -0.2976  2.0248 -0.2411
   77CHL1   C21 8156   6.853   6.526   7.839  0.0165 -0.1126 -0.4775
   77CHL1  H21A 8157   6.911   6.615   7.806  2.6914 -1.3137  0.6766
   77CHL1  H21B 8158   6.852   6.541   7.949 -0.9807  0.5162 -0.5505
   77CHL1  H21C 8159   6.745   6.524   7.813  0.3506  1.3756 -2.1592
   77CHL1   C22 8160   7.027   6.360   7.910  0.5657 -0.0351  0.0962
   77CHL1  H22A 8161   7.119   6.321   7.862  1.1092 -1.1765  1.9813
   77CHL1  H22B 8162   7.073   6.449   7.958  1.6556  0.8131 -2.3675
   77CHL1   C23 8163   6.995   6.247   8.006 -0.4963 -0.0776  0.0095
   77CHL1  H23A 8164   6.960   6.165   7.939 -1.7518  0.4844 -0.0551
   77CHL1  H23B 8165   7.081   6.219   8.070 -0.9553 -3.0650 -0.5026
   77CHL1   C24 8166   6.878   6.280   8.100  0.0579 -0.3457  0.0371
   77CHL1  H24A 8167   6.911   6.380   8.135 -0.3463 -0.0382 -0.4503
   77CHL1  H24B 8168   6.780   6.299   8.053  0.2564  0.1011 -0.2076
   77CHL1   C25 8169   6.875   6.187   8.224 -0.2189  0.0223 -0.1999
   77CHL1   H25 8170   6.976   6.187   8.271 -0.4929 -1.0755  0.4051
   77CHL1   C26 8171   6.781   6.246   8.324  0.1026 -0.4488 -0.1947
   77CHL1  H26A 8172   6.789   6.187   8.419  2.1492  0.0747  0.0194
   77CHL1  H26B 8173   6.804   6.349   8.358 -2.3784  0.4156 -0.9602
   77CHL1  H26C 8174   6.676   6.250   8.290  0.6421  0.9631 -1.8223
   77CHL1   C27 8175   6.840   6.030   8.201  0.5713 -0.0586  0.0391
   77CHL1  H27A 8176   6.831   5.967   8.291  0.3130 -0.6085 -0.3672
   77CHL1  H27B 8177   6.744   6.022   8.145  0.3840  0.3189  0.3012
   77CHL1  H27C 8178   6.923   5.978   8.148  1.2949 -1.0332  2.0332
   78CHL1    C3 8179   2.262   2.037   6.637  0.7643  0.6359  0.4418
   78CHL1    H3 8180   2.243   1.928   6.634  0.5869  0.6691  0.3580
   78CHL1    O3 8181   2.235   2.095   6.515 -0.4179  0.6592 -0.0248
   78CHL1   H3' 8182   2.252   2.189   6.526 -0.2881  1.1808 -3.6232
   78CHL1    C4 8183   2.172   2.107   6.738  0.7439  0.4287  0.1420
   78CHL1   H4A 8184   2.144   2.211   6.713 -2.3423 -0.1561  0.7608
   78CHL1   H4B 8185   2.077   2.050   6.731 -0.0298  1.3871  2.0640
   78CHL1    C5 8186   2.218   2.095   6.884 -0.4994 -0.4536 -0.3623
   78CHL1    C6 8187   2.132   2.068   6.979  0.1215  0.3106 -0.4332
   78CHL1    H6 8188   2.024   2.062   6.961 -0.3055 -0.5060  1.9504
   78CHL1    C7 8189   2.174   2.063   7.125  0.0244 -0.1369  0.9315
   78CHL1   H7A 8190   2.098   2.115   7.188 -1.4452 -2.1563  0.9467
   78CHL1   H7B 8191   2.181   1.958   7.162 -1.9257  0.0188  1.9125
   78CHL1    C8 8192   2.303   2.146   7.154 -0.0840 -0.0810  0.0223
   78CHL1    H8 8193   2.285   2.253   7.130  2.1847  0.5168  0.7908
   78CHL1   C14 8194   2.350   2.132   7.295 -0.5877 -0.0558 -0.4314
   78CHL1   H14 8195   2.366   2.022   7.300  1.8298  0.2844  0.7364
   78CHL1   C15 8196   2.262   2.156   7.417 -0.4106  0.4661 -0.3979
   78CHL1  H15A 8197   2.220   2.259   7.413 -0.2527  0.5263 -0.5499
   78CHL1  H15B 8198   2.177   2.084   7.424 -2.6371  3.0210  0.6975
   78CHL1   C16 8199   2.361   2.163   7.534 -0.1121  0.1024 -0.4908
   78CHL1  H16A 8200   2.350   2.263   7.580 -1.2449  0.5677 -1.6962
   78CHL1  H16B 8201   2.335   2.099   7.621 -2.2221 -0.3271 -1.3576
   78CHL1   C17 8202   2.502   2.153   7.475  0.1414 -0.1859 -0.1249
   78CHL1   H17 8203   2.525   2.045   7.476  2.4758  0.2677 -0.2839
   78CHL1   C13 8204   2.487   2.196   7.327 -0.2421  0.5485  0.4922
   78CHL1   C18 8205   2.470   2.344   7.316 -0.1864  0.0185  0.0167
   78CHL1  H18A 8206   2.560   2.406   7.339 -0.7445  0.5783  0.7412
   78CHL1  H18B 8207   2.443   2.382   7.215  0.7553  1.9652  0.4532
   78CHL1  H18C 8208   2.386   2.385   7.376  0.5532  1.3669  0.1744
   78CHL1   C12 8209   2.594   2.132   7.237  0.2676 -0.2045  0.3608
   78CHL1  H12A 8210   2.692   2.177   7.262 -1.6172  4.0234  1.0141
   78CHL1  H12B 8211   2.601   2.023   7.253  1.9462  0.0363  1.4602
   78CHL1   C11 8212   2.556   2.156   7.091 -0.3675 -0.5634 -0.0341
   78CHL1  H11A 8213   2.554   2.266   7.073  1.0810 -0.5029  0.0665
   78CHL1  H11B 8214   2.634   2.108   7.028 -1.2378 -0.8850 -0.8910
   78CHL1    C9 8215   2.414   2.103   7.053 -0.3275  0.1993 -0.5680
   78CHL1    H9 8216   2.426   1.993   7.064 -1.6164 -0.0835 -1.6777
   78CHL1   C10 8217   2.372   2.124   6.907  0.1092  0.9504 -0.3142
   78CHL1   C19 8218   2.391   2.273   6.866  0.0114  0.5733 -0.0643
   78CHL1  H19A 8219   2.374   2.346   6.947 -0.8533  0.0331  0.2555
   78CHL1  H19B 8220   2.492   2.281   6.822 -0.4531  2.2043 -0.9267
   78CHL1  H19C 8221   2.321   2.314   6.790 -1.4212  1.2927  1.5601
   78CHL1    C1 8222   2.447   2.022   6.815 -0.8085 -0.4408  0.7117
   78CHL1   H1A 8223   2.554   2.037   6.843  0.4997 -1.3205 -3.1787
   78CHL1   H1B 8224   2.419   1.918   6.842  0.0249 -1.1801 -1.0876
   78CHL1    C2 8225   2.415   2.046   6.669 -0.1725 -0.8124  0.4541
   78CHL1   H2A 8226   2.464   1.974   6.600  2.7718 -1.9882  3.5005
   78CHL1   H2B 8227   2.451   2.149   6.646  0.8921 -0.4957  3.2097
   78CHL1   C20 8228   2.616   2.224   7.560  0.7546 -0.0193 -0.9414
   78CHL1   H20 8229   2.595   2.333   7.570  0.2089 -0.0403 -1.8201
   78CHL1   C21 8230   2.762   2.198   7.519 -0.3217  0.1191  0.2032
   78CHL1  H21A 8231   2.767   2.091   7.489 -3.4802  0.2784 -1.3462
   78CHL1  H21B 8232   2.853   2.212   7.581  0.6951 -0.0013 -1.2079
   78CHL1  H21C 8233   2.767   2.267   7.432 -0.3347  2.4243  1.9393
   78CHL1   C22 8234   2.593   2.171   7.713  0.4402 -1.0672 -0.2523
   78CHL1  H22A 8235   2.490   2.164   7.752 -0.5832  1.7845 -2.0989
   78CHL1  H22B 8236   2.638   2.070   7.725  1.8489 -0.4299  0.1005
   78CHL1   C23 8237   2.659   2.270   7.810  0.4119 -0.0006 -0.1585
   78CHL1  H23A 8238   2.766   2.285   7.784  0.7149 -1.0278  0.4039
   78CHL1  H23B 8239   2.611   2.367   7.786  1.4379  0.5495 -0.0649
   78CHL1   C24 8240   2.651   2.222   7.957 -0.3759  0.4950 -0.3397
   78CHL1  H24A 8241   2.555   2.172   7.981  0.3114 -1.0782 -0.7131
   78CHL1  H24B 8242   2.734   2.151   7.975 -1.4668 -1.0200 -1.0978
   78CHL1   C25 8243   2.658   2.337   8.071  0.1882  0.0913  0.2287
   78CHL1   H25 8244   2.750   2.395   8.047  0.4627 -1.5015 -3.0688
   78CHL1   C26 8245   2.536   2.429   8.052 -0.5132  0.3542 -0.0542
   78CHL1  H26A 8246   2.437   2.379   8.055  0.0915 -0.8955 -0.1572
   78CHL1  H26B 8247   2.535   2.516   8.121  0.3958 -0.6019  1.2001
   78CHL1  H26C 8248   2.538   2.484   7.955 -2.5567  1.1323  0.2974
   78CHL1   C27 8249   2.674   2.281   8.207 -0.7966 -0.1242  0.1473
   78CHL1  H27A 8250   2.763   2.215   8.201 -1.1165 -0.3946 -3.3054
   78CHL1  H27B 8251   2.688   2.355   8.289 -1.3199  0.4465 -0.2760
   78CHL1  H27C 8252   2.591   2.213   8.237 -0.4319  0.4856  2.8084
   79CHL1    C3 8253   1.679   2.200   7.238 -0.0795  0.3375 -0.0366
   79CHL1    H3 8254   1.643   2.095   7.251 -1.3010  0.8799  1.3885
   79CHL1    O3 8255   1.679   2.234   7.103 -0.7165  0.4124 -0.2816
   79CHL1   H3' 8256   1.739   2.169   7.065  1.4994  0.8143  2.2969
   79CHL1    C4 8257   1.584   2.293   7.315  0.7556  0.8668  0.0567
   79CHL1   H4A 8258   1.628   2.395   7.305 -1.5946  1.7579 -2.3710
   79CHL1   H4B 8259   1.490   2.299   7.256  1.6262  2.7256 -1.2484
   79CHL1    C5 8260   1.580   2.259   7.464  0.7946  0.2057  0.2358
   79CHL1    C6 8261   1.454   2.228   7.524 -0.0374 -0.8574 -0.2000
   79CHL1    H6 8262   1.356   2.233   7.474 -0.3667 -4.1082 -0.0668
   79CHL1    C7 8263   1.438   2.195   7.667 -0.6448 -0.5401  0.8060
   79CHL1   H7A 8264   1.356   2.252   7.714 -2.0884 -1.6504 -0.2840
   79CHL1   H7B 8265   1.413   2.087   7.677 -0.6595 -0.4643  1.6817
   79CHL1    C8 8266   1.570   2.236   7.742 -0.8127 -0.0715  0.4762
   79CHL1    H8 8267   1.577   2.347   7.744  1.0127 -0.0273 -2.3969
   79CHL1   C14 8268   1.565   2.167   7.880  0.2710 -0.3060  0.2473
   79CHL1   H14 8269   1.552   2.058   7.865  2.2115 -1.0329  2.9362
   79CHL1   C15 8270   1.446   2.197   7.973  0.8384 -0.2210 -0.0893
   79CHL1  H15A 8271   1.427   2.306   7.986  2.0153 -0.3242  3.9489
   79CHL1  H15B 8272   1.361   2.141   7.930  0.4209  1.3279 -1.3640
   79CHL1   C16 8273   1.490   2.139   8.106 -0.2818  0.5740 -0.0242
   79CHL1  H16A 8274   1.476   2.221   8.180  0.9761 -0.7790  1.8137
   79CHL1  H16B 8275   1.442   2.047   8.145  0.4403 -0.8335 -2.2577
   79CHL1   C17 8276   1.643   2.109   8.096  0.4379  0.1938 -0.0265
   79CHL1   H17 8277   1.657   2.000   8.080 -1.6447  0.1387 -2.0302
   79CHL1   C13 8278   1.687   2.180   7.968  0.0759 -0.1996  0.1401
   79CHL1   C18 8279   1.709   2.330   8.004 -0.1923  0.2559 -0.0192
   79CHL1  H18A 8280   1.808   2.343   8.052  1.1990  1.3514 -2.9206
   79CHL1  H18B 8281   1.713   2.390   7.910 -0.1442 -1.2553 -1.0139
   79CHL1  H18C 8282   1.628   2.367   8.070 -0.1899  0.6463 -0.2338
   79CHL1   C12 8283   1.810   2.136   7.888 -0.0811  0.2158 -1.2433
   79CHL1  H12A 8284   1.904   2.158   7.943  0.2906  2.2232 -2.5894
   79CHL1  H12B 8285   1.807   2.025   7.879 -3.9362  0.0731 -0.0338
   79CHL1   C11 8286   1.827   2.209   7.756  0.3151  0.1148 -0.0732
   79CHL1  H11A 8287   1.861   2.310   7.785 -0.1723  0.6913 -1.4400
   79CHL1  H11B 8288   1.909   2.152   7.708 -0.9063 -1.2096 -0.6972
   79CHL1    C9 8289   1.697   2.180   7.668  0.3255 -1.2021  0.2290
   79CHL1    H9 8290   1.688   2.071   7.644  0.6601 -1.1772 -0.0087
   79CHL1   C10 8291   1.720   2.243   7.530 -0.5553 -0.2533  0.6213
   79CHL1   C19 8292   1.762   2.391   7.543  0.2128  0.4021  1.0186
   79CHL1  H19A 8293   1.685   2.456   7.589 -1.4528 -0.0515 -0.9613
   79CHL1  H19B 8294   1.862   2.390   7.592  1.2616 -2.3107 -0.9390
   79CHL1  H19C 8295   1.778   2.440   7.445 -1.1265 -0.5067  0.3094
   79CHL1    C1 8296   1.819   2.163   7.438  0.3158 -0.1882 -0.5391
   79CHL1   H1A 8297   1.921   2.173   7.482  0.4174  0.4592 -0.8971
   79CHL1   H1B 8298   1.794   2.055   7.444  0.1760 -0.1607 -0.6283
   79CHL1    C2 8299   1.823   2.214   7.290 -0.5242  0.5464 -0.3342
   79CHL1   H2A 8300   1.898   2.150   7.239 -0.5211  0.3885 -0.1327
   79CHL1   H2B 8301   1.854   2.320   7.287  0.3896  0.2592 -2.2646
   79CHL1   C20 8302   1.718   2.149   8.228 -0.3932  0.6197  0.0188
   79CHL1   H20 8303   1.737   2.258   8.234  0.5616  0.5911 -1.8396
   79CHL1   C21 8304   1.855   2.080   8.229 -0.5833 -0.0371 -0.2557
   79CHL1  H21A 8305   1.918   2.109   8.142 -0.2012 -0.0860  0.0024
   79CHL1  H21B 8306   1.851   1.969   8.228 -0.4439 -0.0579  0.7381
   79CHL1  H21C 8307   1.915   2.124   8.311  2.1293 -1.9295 -1.0688
   79CHL1   C22 8308   1.644   2.106   8.363  0.2183  0.0913  0.5406
   79CHL1  H22A 8309   1.688   2.155   8.453  2.7658  1.7549 -1.4719
   79CHL1  H22B 8310   1.547   2.159   8.357  0.6425  0.6956 -1.6901
   79CHL1   C23 8311   1.627   1.955   8.393 -0.1643  0.0260 -0.4277
   79CHL1  H23A 8312   1.562   1.916   8.313 -3.0637  1.5581  1.0321
   79CHL1  H23B 8313   1.730   1.912   8.393 -1.0555 -2.2861 -1.7707
   79CHL1   C24 8314   1.572   1.913   8.531  0.6221  0.3282  0.1475
   79CHL1  H24A 8315   1.634   1.960   8.610 -0.3004  2.6500 -0.4337
   79CHL1  H24B 8316   1.468   1.946   8.549  0.7215  1.1519 -0.7590
   79CHL1   C25 8317   1.573   1.758   8.559  0.0658 -0.1839  0.7346
   79CHL1   H25 8318   1.569   1.733   8.667  0.1128 -2.5956  0.2421
   79CHL1   C26 8319   1.446   1.690   8.506  0.1697  0.3939  0.4033
   79CHL1  H26A 8320   1.374   1.665   8.587 -1.9846 -0.5035 -1.6771
   79CHL1  H26B 8321   1.395   1.744   8.423 -0.6145 -2.5933 -1.2006
   79CHL1  H26C 8322   1.472   1.599   8.449  1.4444  0.7269  0.4309
   79CHL1   C27 8323   1.700   1.690   8.512 -1.2325  0.0504  0.2546
   79CHL1  H27A 8324   1.788   1.703   8.579 -1.5057  0.8316  0.4708
   79CHL1  H27B 8325   1.696   1.579   8.519  0.7255  0.0023  1.3076
   79CHL1  H27C 8326   1.730   1.707   8.406 -2.3116  0.1592 -0.0425
   80CHL1    C3 8327   0.401   4.988   7.117 -0.5220 -0.6243  0.0638
   80CHL1    H3 8328   0.358   5.090   7.117  2.1535  0.6432  2.5861
   80CHL1    O3 8329   0.369   4.900   7.006  0.5539 -0.0522  0.1139
   80CHL1   H3' 8330   0.415   4.817   7.017 -2.3737 -1.6372  1.6815
   80CHL1    C4 8331   0.551   5.014   7.110  0.1711 -0.2395  0.3621
   80CHL1   H4A 8332   0.598   4.915   7.091  1.0473 -0.0316  1.3351
   80CHL1   H4B 8333   0.556   5.062   7.010 -0.2106 -1.6416 -0.3671
   80CHL1    C5 8334   0.609   5.084   7.223 -0.1878 -0.6921 -0.0067
   80CHL1    C6 8335   0.686   5.189   7.195 -0.2387  0.1015 -0.3131
   80CHL1    H6 8336   0.712   5.208   7.089  0.6140 -2.2770 -0.5927
   80CHL1    C7 8337   0.748   5.269   7.302  0.0868  0.0857 -0.4521
   80CHL1   H7A 8338   0.855   5.287   7.275  0.4806  0.9092  1.4917
   80CHL1   H7B 8339   0.692   5.365   7.299  4.1955  2.7914  0.2123
   80CHL1    C8 8340   0.732   5.216   7.445 -0.3386  0.2319 -0.7286
   80CHL1    H8 8341   0.811   5.138   7.453  0.9594  1.2395 -2.8560
   80CHL1   C14 8342   0.747   5.321   7.561  0.4789  0.4484 -0.5483
   80CHL1   H14 8343   0.654   5.379   7.543  0.9474  0.3735 -3.7963
   80CHL1   C15 8344   0.859   5.412   7.558 -0.3060  0.2424  1.0272
   80CHL1  H15A 8345   0.950   5.352   7.536 -0.8553 -0.1592 -0.3166
   80CHL1  H15B 8346   0.854   5.476   7.467  1.0596  0.2468  0.9408
   80CHL1   C16 8347   0.856   5.481   7.693  0.2889 -0.2273 -0.5263
   80CHL1  H16A 8348   0.962   5.477   7.725  0.0171 -0.8523  0.3235
   80CHL1  H16B 8349   0.813   5.583   7.683 -2.2384 -1.2823 -1.3452
   80CHL1   C17 8350   0.761   5.404   7.783 -0.4485 -0.1868  0.5851
   80CHL1   H17 8351   0.662   5.454   7.774 -0.8159 -1.0646 -0.3779
   80CHL1   C13 8352   0.746   5.266   7.704 -0.1696 -0.1609 -0.1167
   80CHL1   C18 8353   0.866   5.169   7.729  0.4121 -0.6466  0.3926
   80CHL1  H18A 8354   0.962   5.219   7.703 -0.4342 -0.3491 -2.4445
   80CHL1  H18B 8355   0.863   5.136   7.835 -2.3182  1.7466  1.1826
   80CHL1  H18C 8356   0.855   5.074   7.673 -1.5622 -0.8039  0.9646
   80CHL1   C12 8357   0.611   5.199   7.732  0.0728 -0.1306  0.6901
   80CHL1  H12A 8358   0.606   5.156   7.834  0.1264  0.5500  0.9833
   80CHL1  H12B 8359   0.528   5.272   7.732 -0.1019 -0.3302  1.0023
   80CHL1   C11 8360   0.576   5.099   7.617 -0.1153  0.2657  0.3360
   80CHL1  H11A 8361   0.643   5.013   7.636 -2.1332 -1.0491  2.0222
   80CHL1  H11B 8362   0.477   5.052   7.636 -0.0854 -0.4929 -1.3128
   80CHL1    C9 8363   0.598   5.149   7.465  0.7609  0.2426 -0.4568
   80CHL1    H9 8364   0.519   5.226   7.454 -0.9028 -1.2136  0.5334
   80CHL1   C10 8365   0.555   5.042   7.361  0.0864 -0.4584  0.6889
   80CHL1   C19 8366   0.634   4.912   7.391  0.1906 -0.3837  0.1057
   80CHL1  H19A 8367   0.617   4.876   7.495  1.8516  1.5280  1.1099
   80CHL1  H19B 8368   0.623   4.833   7.314  0.0506 -0.6603  0.4075
   80CHL1  H19C 8369   0.741   4.941   7.388  0.4371 -1.3693 -2.3910
   80CHL1    C1 8370   0.398   5.025   7.360 -0.7301 -0.2544  0.3747
   80CHL1   H1A 8371   0.372   4.985   7.461  1.1602 -1.7882  0.3129
   80CHL1   H1B 8372   0.338   5.117   7.341 -2.0344 -1.0489  0.4838
   80CHL1    C2 8373   0.351   4.926   7.250 -0.2444  0.0711 -0.5659
   80CHL1   H2A 8374   0.242   4.913   7.266  0.0420  0.8892  2.8579
   80CHL1   H2B 8375   0.389   4.824   7.273  1.0998  0.5478 -0.5872
   80CHL1   C20 8376   0.780   5.407   7.935  0.4278  0.1526  0.2621
   80CHL1   H20 8377   0.720   5.320   7.969  0.0919  0.8832  1.6053
   80CHL1   C21 8378   0.708   5.536   7.991  0.0170 -0.4791 -0.3711
   80CHL1  H21A 8379   0.699   5.530   8.102 -3.1364 -3.2733 -0.6074
   80CHL1  H21B 8380   0.605   5.533   7.948  0.2305  1.1741 -1.0600
   80CHL1  H21C 8381   0.759   5.630   7.962 -0.0275 -0.2733  0.1914
   80CHL1   C22 8382   0.924   5.408   7.987  0.1999  0.6900 -0.3577
   80CHL1  H22A 8383   0.984   5.326   7.943 -1.2329 -0.3553 -0.4041
   80CHL1  H22B 8384   0.976   5.503   7.959  0.2960  1.1140  1.1598
   80CHL1   C23 8385   0.929   5.379   8.136 -0.7665  0.3371 -0.1817
   80CHL1  H23A 8386   0.931   5.474   8.193  2.1010 -0.2564  0.8596
   80CHL1  H23B 8387   0.845   5.312   8.167  0.7772 -1.5154  0.1656
   80CHL1   C24 8388   1.045   5.286   8.174  0.1693  0.8408  0.6601
   80CHL1  H24A 8389   1.031   5.192   8.117  1.2576  0.9965  0.1098
   80CHL1  H24B 8390   1.145   5.328   8.149  2.4584 -3.9363  0.8195
   80CHL1   C25 8391   1.057   5.249   8.325  0.4186 -0.0811  0.0979
   80CHL1   H25 8392   0.972   5.180   8.346 -0.1884  0.0880 -1.6555
   80CHL1   C26 8393   1.187   5.169   8.338 -0.4730 -0.3492 -0.5741
   80CHL1  H26A 8394   1.268   5.230   8.293 -0.2834  0.6242  0.9842
   80CHL1  H26B 8395   1.214   5.151   8.445 -0.6466 -0.3963 -0.5382
   80CHL1  H26C 8396   1.176   5.072   8.286 -0.2282 -0.4896 -0.3683
   80CHL1   C27 8397   1.048   5.367   8.424 -0.2973 -0.2879 -0.1969
   80CHL1  H27A 8398   1.116   5.448   8.389 -0.9386  0.6662  0.6910
   80CHL1  H27B 8399   0.946   5.408   8.439 -0.1724 -0.2849  0.7160
   80CHL1  H27C 8400   1.074   5.362   8.532 -2.7438  2.4091  0.6543
   81CHL1    C3 8401   4.138   6.720   6.637  0.1431  0.2748  0.4395
   81CHL1    H3 8402   4.239   6.768   6.633 -0.7176  2.1297 -0.6275
   81CHL1    O3 8403   4.077   6.730   6.513  0.2754  0.6437  0.0720
   81CHL1   H3' 8404   4.000   6.674   6.525  1.0140 -0.1933  1.1596
   81CHL1    C4 8405   4.152   6.574   6.693 -0.3007 -0.3942  0.0634
   81CHL1   H4A 8406   4.055   6.521   6.703 -1.2068  1.6294  3.7089
   81CHL1   H4B 8407   4.213   6.517   6.620 -0.6038  0.2623 -0.7189
   81CHL1    C5 8408   4.206   6.574   6.839 -0.3682 -0.6018 -0.5249
   81CHL1    C6 8409   4.321   6.508   6.865 -0.5296 -0.3574 -0.2142
   81CHL1    H6 8410   4.378   6.451   6.791  2.3893  2.6482 -0.5471
   81CHL1    C7 8411   4.384   6.508   6.999 -0.4774 -0.3423  0.9929
   81CHL1   H7A 8412   4.421   6.408   7.032  1.1448 -0.4412 -0.9499
   81CHL1   H7B 8413   4.471   6.576   7.005 -0.8702  0.3944 -0.9790
   81CHL1    C8 8414   4.282   6.550   7.114 -0.3579  0.1189 -0.4373
   81CHL1    H8 8415   4.211   6.465   7.126 -1.1406  0.7546 -0.4871
   81CHL1   C14 8416   4.365   6.582   7.239  0.2737 -0.3728 -0.3428
   81CHL1   H14 8417   4.434   6.666   7.215  2.4572 -2.1930 -0.7034
   81CHL1   C15 8418   4.463   6.470   7.287  0.8775  0.1142  0.0707
   81CHL1  H15A 8419   4.415   6.371   7.273  1.3551 -0.2366  0.8950
   81CHL1  H15B 8420   4.560   6.475   7.233  2.2703  2.1709  2.5272
   81CHL1   C16 8421   4.481   6.509   7.436 -0.4012 -0.1684  0.3012
   81CHL1  H16A 8422   4.449   6.418   7.490  0.1917 -0.3095  0.4229
   81CHL1  H16B 8423   4.582   6.534   7.475 -1.1399  2.4045  0.8017
   81CHL1   C17 8424   4.379   6.625   7.467  0.1320  0.0706  0.2290
   81CHL1   H17 8425   4.432   6.721   7.446  1.4948 -0.4803  1.0191
   81CHL1   C13 8426   4.274   6.622   7.358 -0.5007  0.2890  0.2868
   81CHL1   C18 8427   4.170   6.513   7.392  0.1228 -0.0089 -0.4532
   81CHL1  H18A 8428   4.222   6.422   7.427 -0.7108  0.3348  1.8680
   81CHL1  H18B 8429   4.106   6.540   7.479  1.4533  1.6611  0.0672
   81CHL1  H18C 8430   4.104   6.489   7.306 -0.1359 -1.5554  0.1380
   81CHL1   C12 8431   4.211   6.758   7.324 -0.3096  0.1091 -0.1904
   81CHL1  H12A 8432   4.151   6.784   7.414  0.5712 -1.9759  1.0838
   81CHL1  H12B 8433   4.294   6.828   7.301  1.2659 -1.1092  1.5244
   81CHL1   C11 8434   4.124   6.734   7.198 -0.3170 -0.2790 -0.0834
   81CHL1  H11A 8435   4.031   6.680   7.224 -0.3078  0.3381  1.3053
   81CHL1  H11B 8436   4.096   6.834   7.159 -2.5026 -0.8104  0.0133
   81CHL1    C9 8437   4.202   6.674   7.077 -0.0592 -0.0912 -0.1213
   81CHL1    H9 8438   4.282   6.749   7.058  0.5112  0.2088  2.9348
   81CHL1   C10 8439   4.130   6.660   6.939  0.0879 -0.1878 -0.3635
   81CHL1   C19 8440   3.997   6.584   6.973  0.1784 -0.0557  0.2848
   81CHL1  H19A 8441   3.932   6.643   7.040 -0.7049 -1.0484  0.3373
   81CHL1  H19B 8442   3.947   6.560   6.877  0.5266 -1.9660  0.5285
   81CHL1  H19C 8443   4.023   6.482   7.011  3.6014  0.6440  0.1625
   81CHL1    C1 8444   4.108   6.799   6.883 -0.3657 -0.3873  0.3383
   81CHL1   H1A 8445   4.033   6.852   6.946 -0.8752 -1.6020  0.7970
   81CHL1   H1B 8446   4.200   6.861   6.882  0.3058 -1.3692 -0.8439
   81CHL1    C2 8447   4.053   6.803   6.741  0.6643 -0.1655 -0.4248
   81CHL1   H2A 8448   4.045   6.909   6.708 -1.9196  0.3798  1.5666
   81CHL1   H2B 8449   3.949   6.766   6.756 -0.2697  2.2025 -0.5554
   81CHL1   C20 8450   4.315   6.638   7.606  0.5130 -0.2942  0.1297
   81CHL1   H20 8451   4.213   6.683   7.608 -0.2846 -2.0536  0.3439
   81CHL1   C21 8452   4.400   6.741   7.680 -0.6258  0.0539 -0.6300
   81CHL1  H21A 8453   4.366   6.761   7.784 -1.0840 -0.4691 -0.6787
   81CHL1  H21B 8454   4.400   6.838   7.626 -1.6409  0.6640  0.4293
   81CHL1  H21C 8455   4.507   6.711   7.680 -1.2366 -2.2820 -0.6325
   81CHL1   C22 8456   4.298   6.518   7.695  0.1304 -0.0423 -0.3458
   81CHL1  H22A 8457   4.275   6.429   7.633 -1.5991 -1.4105  2.0779
   81CHL1  H22B 8458   4.397   6.505   7.743 -0.3110 -0.0988  0.5597
   81CHL1   C23 8459   4.188   6.519   7.805 -0.2735  0.4549 -1.1520
   81CHL1  H23A 8460   4.185   6.417   7.847 -1.6427  0.7930 -0.3688
   81CHL1  H23B 8461   4.212   6.595   7.882 -0.4472 -1.1793  0.5657
   81CHL1   C24 8462   4.041   6.530   7.758 -0.5178  0.0502  0.1519
   81CHL1  H24A 8463   4.028   6.622   7.696  0.2648 -0.1956 -0.3805
   81CHL1  H24B 8464   3.998   6.444   7.702 -2.8072  1.1241  0.1291
   81CHL1   C25 8465   3.938   6.553   7.870 -0.2723 -0.0366  0.2072
   81CHL1   H25 8466   3.972   6.651   7.910  1.4321  0.3211 -1.9319
   81CHL1   C26 8467   3.809   6.574   7.799 -0.0467 -0.3837 -0.4268
   81CHL1  H26A 8468   3.723   6.592   7.866 -1.3151 -1.3479 -1.7385
   81CHL1  H26B 8469   3.799   6.662   7.731 -0.9556  0.6033  0.9377
   81CHL1  H26C 8470   3.779   6.488   7.735 -2.0914  0.9649 -1.3837
   81CHL1   C27 8471   3.929   6.454   7.984  0.3895  0.4353  0.3183
   81CHL1  H27A 8472   4.034   6.430   8.013 -0.8012 -2.6351  2.6646
   81CHL1  H27B 8473   3.880   6.501   8.072  1.2328  2.0877 -0.0484
   81CHL1  H27C 8474   3.881   6.357   7.958  0.6118 -0.0104  1.4853
   82CHL1    C3 8475   5.842   6.575   7.002 -0.3020 -0.4113 -0.3235
   82CHL1    H3 8476   5.952   6.558   7.002 -0.3034 -0.4663  0.3666
   82CHL1    O3 8477   5.785   6.538   6.875 -0.4302  0.2173  0.2033
   82CHL1   H3' 8478   5.799   6.618   6.823  3.5947 -0.1631  0.3632
   82CHL1    C4 8479   5.781   6.492   7.119  0.5613 -0.1668  0.9689
   82CHL1   H4A 8480   5.673   6.492   7.095  1.0343 -0.9188 -1.4382
   82CHL1   H4B 8481   5.819   6.388   7.106 -0.5489 -0.2737 -2.1156
   82CHL1    C5 8482   5.807   6.555   7.256  0.5943  0.7029  0.1724
   82CHL1    C6 8483   5.849   6.476   7.359 -0.7121 -0.0889 -0.9600
   82CHL1    H6 8484   5.862   6.368   7.340 -0.2485 -0.1306 -0.4238
   82CHL1    C7 8485   5.873   6.530   7.502  1.0565 -0.5208  0.4671
   82CHL1   H7A 8486   5.833   6.455   7.574 -1.1706 -1.1009 -1.2410
   82CHL1   H7B 8487   5.978   6.542   7.534  0.6296 -0.3868  1.9087
   82CHL1    C8 8488   5.801   6.674   7.527 -0.5376 -0.1128  0.3729
   82CHL1    H8 8489   5.691   6.664   7.531 -0.8365  2.3456  0.0104
   82CHL1   C14 8490   5.862   6.729   7.651  0.2055  0.0501  0.0067
   82CHL1   H14 8491   5.971   6.740   7.630  0.0318 -0.5790 -1.3815
   82CHL1   C15 8492   5.873   6.645   7.777 -0.7369 -0.8174 -0.7997
   82CHL1  H15A 8493   5.793   6.568   7.773  0.0695 -1.6792 -0.9353
   82CHL1  H15B 8494   5.976   6.601   7.780 -0.0658  0.7288 -0.3061
   82CHL1   C16 8495   5.865   6.748   7.894  0.0610 -0.0530 -0.2347
   82CHL1  H16A 8496   5.766   6.736   7.943  0.1552 -1.4944 -0.3512
   82CHL1  H16B 8497   5.951   6.725   7.961  0.9320 -1.0718 -1.6430
   82CHL1   C17 8498   5.871   6.892   7.831  0.2741 -0.1103  0.1993
   82CHL1   H17 8499   5.980   6.906   7.813 -0.2411  1.6353 -2.0424
   82CHL1   C13 8500   5.812   6.871   7.693  0.2102  0.3393 -0.3361
   82CHL1   C18 8501   5.656   6.864   7.703  0.4269 -0.1357  0.1613
   82CHL1  H18A 8502   5.609   6.959   7.734  0.0260  0.1151 -1.1837
   82CHL1  H18B 8503   5.619   6.852   7.599  0.6939  1.8529 -0.2022
   82CHL1  H18C 8504   5.616   6.779   7.764  0.1563 -0.0222  0.1421
   82CHL1   C12 8505   5.852   6.966   7.573 -0.0051  0.0236  0.1601
   82CHL1  H12A 8506   5.802   7.062   7.595  3.4346  1.7776  0.9452
   82CHL1  H12B 8507   5.962   6.981   7.565 -0.2276  0.5963 -2.7194
   82CHL1   C11 8508   5.802   6.914   7.434 -0.0425  0.1399  0.8548
   82CHL1  H11A 8509   5.693   6.931   7.444  0.4601  3.2201  2.0436
   82CHL1  H11B 8510   5.832   6.974   7.346 -1.6809 -1.4390 -0.8842
   82CHL1    C9 8511   5.838   6.762   7.407  0.1983 -0.7891  0.1330
   82CHL1    H9 8512   5.948   6.764   7.388  0.2007  0.7310  0.2253
   82CHL1   C10 8513   5.781   6.709   7.271  0.6981  0.0065  0.5235
   82CHL1   C19 8514   5.627   6.737   7.265  0.0089 -0.5368 -0.0938
   82CHL1  H19A 8515   5.587   6.684   7.176 -0.8769  1.1993 -0.7818
   82CHL1  H19B 8516   5.572   6.687   7.346  0.2941 -1.5496 -0.5095
   82CHL1  H19C 8517   5.600   6.844   7.251 -0.7784 -0.6338  0.6621
   82CHL1    C1 8518   5.858   6.767   7.148  0.2139 -0.4018 -0.2784
   82CHL1   H1A 8519   5.825   6.873   7.139 -0.5086 -0.6663 -0.9330
   82CHL1   H1B 8520   5.966   6.758   7.173  0.3467 -0.4347 -0.8365
   82CHL1    C2 8521   5.811   6.722   7.018  0.5567 -0.1867  0.4097
   82CHL1   H2A 8522   5.859   6.777   6.935 -0.8445 -1.2612 -1.1792
   82CHL1   H2B 8523   5.701   6.732   7.006  0.6727 -1.2315 -2.2311
   82CHL1   C20 8524   5.817   6.999   7.931 -0.1755  0.7221  0.2027
   82CHL1   H20 8525   5.712   6.969   7.954  0.1742 -1.7002 -1.0257
   82CHL1   C21 8526   5.831   7.134   7.852  0.0681 -0.1821 -0.4004
   82CHL1  H21A 8527   5.759   7.143   7.768 -3.4515  1.4119  2.5006
   82CHL1  H21B 8528   5.937   7.127   7.819  0.4946 -0.0411  0.8492
   82CHL1  H21C 8529   5.827   7.218   7.925 -2.6357  1.8235 -2.6507
   82CHL1   C22 8530   5.896   7.009   8.059 -0.6114  0.0814 -0.1215
   82CHL1  H22A 8531   5.890   6.911   8.111  1.1069  1.1251  2.2142
   82CHL1  H22B 8532   6.002   7.034   8.038  0.1439  0.4429  3.3929
   82CHL1   C23 8533   5.845   7.109   8.154 -0.0263  0.2084  0.2822
   82CHL1  H23A 8534   5.841   7.215   8.124  1.6194 -0.4322 -2.5732
   82CHL1  H23B 8535   5.747   7.071   8.192  0.5096 -0.9370  0.5712
   82CHL1   C24 8536   5.926   7.110   8.281 -0.2313  0.3808  0.0514
   82CHL1  H24A 8537   5.943   7.011   8.329  2.7007  0.2607 -1.0382
   82CHL1  H24B 8538   6.032   7.142   8.271  0.2600 -1.4085 -1.0657
   82CHL1   C25 8539   5.870   7.206   8.385 -0.2487 -0.0777 -1.0318
   82CHL1   H25 8540   5.759   7.204   8.380 -0.1740 -0.7038 -3.6425
   82CHL1   C26 8541   5.921   7.169   8.528  0.1468  0.2223  0.4877
   82CHL1  H26A 8542   5.869   7.218   8.612  0.1971 -3.3805  2.8249
   82CHL1  H26B 8543   5.909   7.060   8.546 -1.1735 -0.1403 -2.0517
   82CHL1  H26C 8544   6.031   7.186   8.539  0.5653  0.6419 -3.1293
   82CHL1   C27 8545   5.898   7.358   8.359 -0.1904  0.6490 -0.0794
   82CHL1  H27A 8546   6.008   7.373   8.363 -0.2349  0.8965  0.2305
   82CHL1  H27B 8547   5.851   7.404   8.269 -0.7983  0.0534 -0.0702
   82CHL1  H27C 8548   5.846   7.407   8.444  0.0171 -1.1619  1.1369
   83CHL1    C3 8549   1.051   1.489   6.997 -0.0766  1.1672 -0.6873
   83CHL1    H3 8550   1.160   1.470   6.996  0.0622  1.8433 -2.4758
   83CHL1    O3 8551   1.011   1.551   6.878  0.6075 -0.2799  0.2079
   83CHL1   H3' 8552   0.915   1.555   6.883  0.6325  0.2857  0.2571
   83CHL1    C4 8553   0.974   1.357   7.036  0.4114  0.0090  0.0395
   83CHL1   H4A 8554   0.868   1.376   7.010  0.9205 -0.3942 -2.7007
   83CHL1   H4B 8555   1.004   1.280   6.962 -2.4653 -1.1262 -0.0629
   83CHL1    C5 8556   1.003   1.310   7.179  0.3327 -0.9505 -0.2589
   83CHL1    C6 8557   1.052   1.187   7.204  0.8384  0.5254 -0.0470
   83CHL1    H6 8558   1.047   1.109   7.127 -0.1827  0.2769  0.2469
   83CHL1    C7 8559   1.064   1.133   7.346  0.1276  0.4857  0.0071
   83CHL1   H7A 8560   1.020   1.031   7.351  1.0877  0.0111 -0.8414
   83CHL1   H7B 8561   1.174   1.128   7.362  0.4170  2.6657 -0.9494
   83CHL1    C8 8562   1.006   1.227   7.452  0.0024 -0.0807 -0.0404
   83CHL1    H8 8563   0.897   1.205   7.459 -0.2867 -0.4014 -3.8266
   83CHL1   C14 8564   1.074   1.193   7.581  0.0916 -0.1010 -0.5046
   83CHL1   H14 8565   1.180   1.225   7.567  0.2965 -0.5799 -0.0933
   83CHL1   C15 8566   1.074   1.049   7.631  0.7666  0.2838 -0.0586
   83CHL1  H15A 8567   0.977   0.995   7.622  2.0651 -2.6152  1.6475
   83CHL1  H15B 8568   1.157   0.993   7.584 -0.2014 -0.5719 -0.7874
   83CHL1   C16 8569   1.102   1.057   7.782 -0.6736  0.1039 -0.3208
   83CHL1  H16A 8570   1.018   1.006   7.832  1.7759 -2.7428  1.1745
   83CHL1  H16B 8571   1.197   1.006   7.810 -1.0413  0.9505  2.8226
   83CHL1   C17 8572   1.116   1.205   7.814  0.4769  0.0347  0.3567
   83CHL1   H17 8573   1.220   1.239   7.800  0.0611  1.3397  0.3416
   83CHL1   C13 8574   1.030   1.277   7.702 -0.6796  0.3856  0.3356
   83CHL1   C18 8575   0.880   1.261   7.733  0.2748  0.0978 -0.2332
   83CHL1  H18A 8576   0.847   1.303   7.830 -1.2970 -1.9819  0.2016
   83CHL1  H18B 8577   0.813   1.303   7.654 -0.8942 -0.6402  0.3344
   83CHL1  H18C 8578   0.856   1.154   7.746 -0.6882  0.2757 -0.4283
   83CHL1   C12 8579   1.063   1.426   7.673 -1.1936 -0.3567 -0.4419
   83CHL1  H12A 8580   1.038   1.500   7.752  1.4450 -2.6729  2.8601
   83CHL1  H12B 8581   1.172   1.439   7.656 -1.0765 -1.1597 -0.3624
   83CHL1   C11 8582   0.994   1.469   7.544 -0.3676  0.2879 -0.3185
   83CHL1  H11A 8583   0.884   1.462   7.561 -0.3394 -1.1034 -0.5872
   83CHL1  H11B 8584   1.017   1.577   7.536  0.4988  0.3203  1.8419
   83CHL1    C9 8585   1.034   1.378   7.421 -0.4064 -0.0545  0.4895
   83CHL1    H9 8586   1.145   1.385   7.414 -0.2540 -0.7476  1.8096
   83CHL1   C10 8587   0.977   1.416   7.282  0.5980  0.5391  0.3310
   83CHL1   C19 8588   0.819   1.440   7.297  0.1578  0.1615  0.3178
   83CHL1  H19A 8589   0.771   1.447   7.198  1.2544 -3.0102 -0.5506
   83CHL1  H19B 8590   0.778   1.349   7.345 -0.8125  0.0234 -0.7382
   83CHL1  H19C 8591   0.797   1.533   7.354 -1.0178  1.8505 -2.6370
   83CHL1    C1 8592   1.051   1.549   7.239 -0.8478  0.4418 -0.0144
   83CHL1   H1A 8593   1.020   1.623   7.316  1.1642 -0.2402  1.5204
   83CHL1   H1B 8594   1.161   1.537   7.249 -0.4889  2.3214 -1.0733
   83CHL1    C2 8595   1.020   1.596   7.098  0.3543  0.1897  0.3124
   83CHL1   H2A 8596   1.077   1.690   7.078  1.5517 -0.4033  0.8342
   83CHL1   H2B 8597   0.912   1.622   7.088  0.8925  2.4221 -0.3230
   83CHL1   C20 8598   1.073   1.234   7.964 -0.4515  0.3227 -0.3803
   83CHL1   H20 8599   0.963   1.234   7.981 -0.6432 -1.3452 -1.3401
   83CHL1   C21 8600   1.121   1.372   8.018 -1.0066  0.4275 -0.8756
   83CHL1  H21A 8601   1.229   1.371   7.993 -0.6078 -2.7357  0.4042
   83CHL1  H21B 8602   1.121   1.390   8.128  2.0192  0.5136 -0.8136
   83CHL1  H21C 8603   1.072   1.453   7.960 -2.4534 -0.1028 -0.4337
   83CHL1   C22 8604   1.141   1.120   8.054  0.5181 -0.4897 -0.1662
   83CHL1  H22A 8605   1.085   1.025   8.037 -2.6837  1.0504  0.9581
   83CHL1  H22B 8606   1.245   1.098   8.020  0.5105  1.2986 -1.4691
   83CHL1   C23 8607   1.154   1.145   8.212  1.1703 -0.4538  0.3715
   83CHL1  H23A 8608   1.192   1.053   8.260  2.4503  0.1367  0.5262
   83CHL1  H23B 8609   1.227   1.227   8.227 -1.2619  1.7168  1.1028
   83CHL1   C24 8610   1.027   1.184   8.283  0.2417  0.1572 -0.0533
   83CHL1  H24A 8611   1.005   1.289   8.255 -0.2498 -0.2142 -1.1298
   83CHL1  H24B 8612   0.944   1.120   8.246  0.5911 -1.1383  1.3146
   83CHL1   C25 8613   1.045   1.188   8.434 -0.3049 -0.1754  0.4744
   83CHL1   H25 8614   1.126   1.113   8.449 -0.8281 -0.9908 -0.6186
   83CHL1   C26 8615   1.096   1.325   8.495 -0.5179  0.1735  0.7532
   83CHL1  H26A 8616   1.022   1.405   8.476 -0.0406  0.3302 -0.6250
   83CHL1  H26B 8617   1.115   1.327   8.604  3.2196  2.5927  0.2432
   83CHL1  H26C 8618   1.191   1.352   8.443  0.2357 -0.4814  1.7477
   83CHL1   C27 8619   0.928   1.144   8.524 -0.0110 -0.3076  0.4124
   83CHL1  H27A 8620   0.832   1.196   8.507  0.3932  0.1223 -0.6064
   83CHL1  H27B 8621   0.911   1.036   8.503  0.5013 -0.3650  0.2791
   83CHL1  H27C 8622   0.964   1.141   8.630  2.1250  0.3380 -0.2460
   84CHL1    C3 8623   3.813   4.410   6.942 -0.7611  0.0879  0.7170
   84CHL1    H3 8624   3.917   4.450   6.946 -1.0119  1.1567 -1.6193
   84CHL1    O3 8625   3.779   4.446   6.809  0.4365 -0.7080 -0.2357
   84CHL1   H3' 8626   3.684   4.452   6.804  0.6233  2.0288 -3.1158
   84CHL1    C4 8627   3.826   4.260   6.964 -1.0022  0.0341  0.2422
   84CHL1   H4A 8628   3.734   4.205   6.935 -1.0238  1.4233 -2.6426
   84CHL1   H4B 8629   3.904   4.221   6.895  0.5030  0.6534  1.5146
   84CHL1    C5 8630   3.860   4.216   7.102 -0.5791 -0.2434 -0.2725
   84CHL1    C6 8631   3.958   4.135   7.125  0.3785  0.5122  0.6646
   84CHL1    H6 8632   4.020   4.093   7.044  1.0447 -0.6638  1.7394
   84CHL1    C7 8633   4.006   4.101   7.262 -0.1605  0.2757  0.0945
   84CHL1   H7A 8634   4.019   3.991   7.255  0.8291  0.4170 -0.5259
   84CHL1   H7B 8635   4.104   4.153   7.275  1.1874 -1.7383 -1.3970
   84CHL1    C8 8636   3.902   4.130   7.375 -0.9329 -0.2239 -0.4584
   84CHL1    H8 8637   3.825   4.052   7.360  0.9851 -2.3878  0.3324
   84CHL1   C14 8638   3.973   4.117   7.514  0.2625 -0.1570  0.0090
   84CHL1   H14 8639   4.043   4.203   7.516 -0.6603  0.6138 -0.2466
   84CHL1   C15 8640   4.043   3.981   7.547  0.0360 -0.6270 -0.0342
   84CHL1  H15A 8641   3.996   3.887   7.510  0.0713  0.3203 -2.7392
   84CHL1  H15B 8642   4.144   3.980   7.501  0.3504  0.5619  0.5937
   84CHL1   C16 8643   4.050   3.989   7.703  0.6851  0.0610  0.1427
   84CHL1  H16A 8644   3.995   3.904   7.749  2.6817 -0.5481  1.5700
   84CHL1  H16B 8645   4.155   3.988   7.741  0.9261  0.7516 -0.4845
   84CHL1   C17 8646   3.967   4.116   7.745  0.0671  0.1239  0.5627
   84CHL1   H17 8647   4.041   4.198   7.739 -0.8302  1.0200  1.4416
   84CHL1   C13 8648   3.873   4.142   7.631  0.3345 -0.5325 -0.3628
   84CHL1   C18 8649   3.757   4.042   7.628 -0.0915  0.0587  0.4350
   84CHL1  H18A 8650   3.691   4.052   7.717  0.5174  0.5007  0.8396
   84CHL1  H18B 8651   3.696   4.054   7.536  1.5104  0.7815 -0.5594
   84CHL1  H18C 8652   3.794   3.938   7.632 -1.1977 -0.3439  0.7469
   84CHL1   C12 8653   3.815   4.281   7.610  0.0898  0.3573 -0.1246
   84CHL1  H12A 8654   3.748   4.298   7.697  0.7221 -1.2270  0.7080
   84CHL1  H12B 8655   3.899   4.350   7.634 -0.5915  1.0871  0.2229
   84CHL1   C11 8656   3.748   4.313   7.473  0.2939 -0.5333  0.2636
   84CHL1  H11A 8657   3.652   4.256   7.467 -0.6626  0.7772  2.0584
   84CHL1  H11B 8658   3.723   4.421   7.473  2.2413 -0.0128 -2.1214
   84CHL1    C9 8659   3.837   4.266   7.360 -0.3249  0.2260  0.5077
   84CHL1    H9 8660   3.918   4.342   7.356 -0.9085  0.8576  0.5607
   84CHL1   C10 8661   3.776   4.267   7.216 -0.3224 -1.3368  0.2025
   84CHL1   C19 8662   3.642   4.198   7.214 -0.0313 -0.1676 -0.6728
   84CHL1  H19A 8663   3.587   4.186   7.118 -1.8192  1.9814  0.0075
   84CHL1  H19B 8664   3.652   4.093   7.250 -1.4745 -0.5294 -1.2263
   84CHL1  H19C 8665   3.566   4.239   7.284  1.1923  2.0732 -0.6000
   84CHL1    C1 8666   3.758   4.424   7.179 -0.6548  0.1041 -0.1311
   84CHL1   H1A 8667   3.681   4.474   7.241 -1.7932 -3.0540  1.2091
   84CHL1   H1B 8668   3.859   4.470   7.188 -0.3321 -0.3779 -1.1058
   84CHL1    C2 8669   3.722   4.466   7.042  0.3608 -0.1371  0.5144
   84CHL1   H2A 8670   3.703   4.575   7.034  0.8470  0.0783  2.0546
   84CHL1   H2B 8671   3.620   4.427   7.019  1.0816 -1.7061 -0.1755
   84CHL1   C20 8672   3.909   4.110   7.891 -1.0227 -0.0150  0.5222
   84CHL1   H20 8673   3.819   4.046   7.891 -2.4618  1.9129 -0.3157
   84CHL1   C21 8674   3.836   4.245   7.928  0.2593 -0.5643 -0.9543
   84CHL1  H21A 8675   3.891   4.331   7.884 -1.2605  0.7586 -0.3647
   84CHL1  H21B 8676   3.823   4.261   8.037 -2.8234 -0.9331 -1.1925
   84CHL1  H21C 8677   3.735   4.224   7.886  1.4489 -2.3227 -3.1669
   84CHL1   C22 8678   4.021   4.067   7.995 -0.5161  0.4003 -0.5180
   84CHL1  H22A 8679   3.973   4.044   8.093  2.7270  1.3722  1.4496
   84CHL1  H22B 8680   4.055   3.965   7.971  0.6308  0.8319 -0.8082
   84CHL1   C23 8681   4.138   4.163   8.023  0.7426 -0.6977 -0.5287
   84CHL1  H23A 8682   4.194   4.167   7.927 -0.8849  1.1711 -1.4840
   84CHL1  H23B 8683   4.097   4.263   8.050 -1.0004 -1.8349  1.2882
   84CHL1   C24 8684   4.232   4.124   8.144  0.6477  0.1278  0.1753
   84CHL1  H24A 8685   4.170   4.078   8.224  0.5785  1.1726  0.7370
   84CHL1  H24B 8686   4.305   4.050   8.104  1.2191  1.6136 -1.6391
   84CHL1   C25 8687   4.321   4.231   8.206  0.2910  0.6335  0.1628
   84CHL1   H25 8688   4.263   4.324   8.224 -1.7218  0.1147 -2.8188
   84CHL1   C26 8689   4.386   4.176   8.330 -0.5164  0.0648  0.0636
   84CHL1  H26A 8690   4.470   4.246   8.352 -0.5677 -0.2330  1.3124
   84CHL1  H26B 8691   4.324   4.180   8.422 -2.3473  1.9787 -1.1621
   84CHL1  H26C 8692   4.439   4.079   8.314 -2.9568 -1.3025 -0.1468
   84CHL1   C27 8693   4.433   4.270   8.097  0.2486  0.1572 -0.1420
   84CHL1  H27A 8694   4.487   4.365   8.118 -0.6029  0.7452 -0.5553
   84CHL1  H27B 8695   4.506   4.188   8.077  3.0796  1.6231  3.2098
   84CHL1  H27C 8696   4.377   4.287   8.003 -1.3662 -0.1018  0.7362
   85CHL1    C3 8697   2.584   1.538   6.655 -0.9366 -0.1319 -0.5082
   85CHL1    H3 8698   2.501   1.590   6.709 -0.7764 -2.2041  1.9279
   85CHL1    O3 8699   2.552   1.491   6.524  0.2315 -0.3828 -0.3951
   85CHL1   H3' 8700   2.565   1.396   6.522  0.4543 -0.3573 -0.1605
   85CHL1    C4 8701   2.691   1.647   6.630 -0.0994  0.5289  0.3616
   85CHL1   H4A 8702   2.779   1.595   6.587  0.6482  0.0591  2.3890
   85CHL1   H4B 8703   2.654   1.711   6.546 -1.3739  0.4951  0.8754
   85CHL1    C5 8704   2.758   1.707   6.751  0.0560  0.5598  0.1550
   85CHL1    C6 8705   2.758   1.839   6.771 -0.5597  0.3094  0.1470
   85CHL1    H6 8706   2.719   1.914   6.701 -0.6000  1.5277  1.4262
   85CHL1    C7 8707   2.808   1.901   6.898 -0.2273 -0.2712 -0.2555
   85CHL1   H7A 8708   2.861   1.998   6.890  1.2297 -0.5377  3.7829
   85CHL1   H7B 8709   2.722   1.923   6.965  0.1508  1.5938 -0.3455
   85CHL1    C8 8710   2.905   1.811   6.969  0.1414  0.2305 -0.3184
   85CHL1    H8 8711   2.996   1.819   6.906  0.3513 -3.8647 -0.8067
   85CHL1   C14 8712   2.926   1.866   7.118 -0.6709 -0.3087 -0.1240
   85CHL1   H14 8713   2.825   1.850   7.163 -0.8118  0.5154 -0.1338
   85CHL1   C15 8714   2.966   2.012   7.146  0.2071  0.0000 -0.2865
   85CHL1  H15A 8715   3.036   2.043   7.065 -2.2607  0.3189 -2.4111
   85CHL1  H15B 8716   2.879   2.081   7.144 -0.8179 -1.2381  0.4332
   85CHL1   C16 8717   3.029   2.010   7.283 -0.5863 -0.1591  0.4204
   85CHL1  H16A 8718   3.134   2.045   7.279  0.0511 -2.0959 -1.0260
   85CHL1  H16B 8719   2.984   2.080   7.357  2.7645  1.8205  0.7927
   85CHL1   C17 8720   3.032   1.864   7.332  0.6062  0.1494 -0.1046
   85CHL1   H17 8721   2.931   1.850   7.375  0.0214  1.1526 -1.0960
   85CHL1   C13 8722   3.026   1.780   7.205  0.3099  0.2903 -0.0605
   85CHL1   C18 8723   3.165   1.771   7.138  0.7084 -0.2443  0.1963
   85CHL1  H18A 8724   3.150   1.725   7.038 -0.4132 -0.9386  0.6616
   85CHL1  H18B 8725   3.199   1.876   7.127 -1.9249  0.8061  1.3509
   85CHL1  H18C 8726   3.226   1.710   7.209 -0.4890 -0.1138  1.3825
   85CHL1   C12 8727   2.957   1.644   7.220 -0.0835 -0.2603  0.1519
   85CHL1  H12A 8728   3.023   1.578   7.281  0.5193  0.2320  0.0450
   85CHL1  H12B 8729   2.865   1.651   7.281  0.0486 -0.8699  0.4278
   85CHL1   C11 8730   2.934   1.578   7.086  0.2236 -0.7606  0.0897
   85CHL1  H11A 8731   3.028   1.534   7.047  0.1107 -0.0670 -1.0055
   85CHL1  H11B 8732   2.878   1.485   7.109  1.3843 -1.3362  0.6953
   85CHL1    C9 8733   2.857   1.665   6.981 -0.1248 -0.1432 -0.5016
   85CHL1    H9 8734   2.758   1.668   7.032  0.7369 -0.7187  1.2959
   85CHL1   C10 8735   2.819   1.598   6.846 -0.2529  0.1034 -0.7187
   85CHL1   C19 8736   2.944   1.535   6.785  0.0549 -0.0001  0.1255
   85CHL1  H19A 8737   2.936   1.507   6.677 -0.0543  0.1648  0.0891
   85CHL1  H19B 8738   3.031   1.604   6.790  0.7476 -0.7824 -0.7050
   85CHL1  H19C 8739   2.980   1.454   6.851 -0.3359 -0.0514  0.2750
   85CHL1    C1 8740   2.707   1.489   6.877 -0.1573 -0.4147  1.0834
   85CHL1   H1A 8741   2.767   1.410   6.926  2.3616 -0.5270 -1.8374
   85CHL1   H1B 8742   2.625   1.531   6.939 -0.2755 -0.6721  1.1005
   85CHL1    C2 8743   2.650   1.427   6.745 -0.1425 -0.8638  0.1270
   85CHL1   H2A 8744   2.579   1.346   6.772 -0.7533 -1.1391 -2.1156
   85CHL1   H2B 8745   2.728   1.372   6.688  2.0412  2.7776 -0.7513
   85CHL1   C20 8746   3.130   1.835   7.442 -0.2475  0.7145  0.2588
   85CHL1   H20 8747   3.231   1.844   7.398  0.6078  1.5071  2.2929
   85CHL1   C21 8748   3.123   1.689   7.499  0.2943 -0.1144  0.2538
   85CHL1  H21A 8749   3.182   1.683   7.593  1.5189  1.5465 -0.3644
   85CHL1  H21B 8750   3.159   1.613   7.426  0.1327 -0.4019  0.4703
   85CHL1  H21C 8751   3.020   1.666   7.535  0.5435  0.6272  1.5135
   85CHL1   C22 8752   3.128   1.938   7.562  1.0270  0.2434  0.4609
   85CHL1  H22A 8753   3.208   1.917   7.636 -0.8172 -0.2278  2.4299
   85CHL1  H22B 8754   3.140   2.045   7.535  3.1467  0.5540  2.3951
   85CHL1   C23 8755   2.999   1.925   7.650 -0.1426 -0.6651 -0.2698
   85CHL1  H23A 8756   2.913   1.954   7.585 -0.1155  0.6295  0.2374
   85CHL1  H23B 8757   2.970   1.820   7.670  1.4681 -1.3251 -1.2203
   85CHL1   C24 8758   3.001   2.012   7.778  0.4730  0.2011 -0.4378
   85CHL1  H24A 8759   3.036   2.116   7.762 -0.8029  0.4282 -2.0430
   85CHL1  H24B 8760   2.901   2.018   7.826  1.8477  1.5076  2.5215
   85CHL1   C25 8761   3.090   1.952   7.890 -0.3535  0.5245  0.2891
   85CHL1   H25 8762   3.196   1.968   7.859 -0.4098 -0.4549 -0.4411
   85CHL1   C26 8763   3.042   2.016   8.027  1.1682  0.7763 -0.5829
   85CHL1  H26A 8764   3.009   2.121   8.013 -1.9701  0.3812  2.4263
   85CHL1  H26B 8765   2.952   1.961   8.065  2.5532 -1.0884  0.1632
   85CHL1  H26C 8766   3.122   2.019   8.104  0.4956  4.3008  0.1493
   85CHL1   C27 8767   3.069   1.804   7.910 -0.1831  0.2884  0.3160
   85CHL1  H27A 8768   3.122   1.742   7.835 -2.9453 -2.0621  0.1303
   85CHL1  H27B 8769   3.113   1.771   8.006  2.6040  0.7371 -0.7105
   85CHL1  H27C 8770   2.959   1.788   7.902 -0.2249  1.0211 -0.7297
   86CHL1    C3 8771   4.927   6.626   6.999  0.1886 -0.1336 -0.0384
   86CHL1    H3 8772   4.934   6.525   7.043  2.7780  1.0657  2.7234
   86CHL1    O3 8773   4.897   6.622   6.865  0.4041  0.3548 -0.2704
   86CHL1   H3' 8774   4.966   6.673   6.822 -0.0329  2.0136  0.8986
   86CHL1    C4 8775   4.824   6.712   7.077  0.4308  0.1918  0.1980
   86CHL1   H4A 8776   4.829   6.816   7.036 -3.9555  0.4961 -0.0068
   86CHL1   H4B 8777   4.718   6.684   7.058 -0.1452  1.2860  1.5872
   86CHL1    C5 8778   4.857   6.718   7.228  0.5263 -0.0324  1.0046
   86CHL1    C6 8779   4.773   6.669   7.315  0.3798  0.2882  0.2284
   86CHL1    H6 8780   4.685   6.614   7.277  0.7838  0.3204 -0.8008
   86CHL1    C7 8781   4.808   6.655   7.460 -0.2432 -0.7824 -0.3964
   86CHL1   H7A 8782   4.721   6.682   7.523 -0.2409 -1.3448 -0.1488
   86CHL1   H7B 8783   4.835   6.549   7.481  0.6180 -0.4595  0.1748
   86CHL1    C8 8784   4.920   6.760   7.501  0.2477 -0.2773 -0.6043
   86CHL1    H8 8785   4.885   6.865   7.509  1.8409  0.3138 -0.9734
   86CHL1   C14 8786   4.986   6.725   7.635  0.4742  0.4889 -0.4408
   86CHL1   H14 8787   5.021   6.620   7.639 -1.7128 -0.2408  1.9357
   86CHL1   C15 8788   4.885   6.729   7.755  0.3386 -0.0019  0.1370
   86CHL1  H15A 8789   4.838   6.829   7.743  1.0651  0.1546 -1.9693
   86CHL1  H15B 8790   4.798   6.660   7.754  0.6948 -0.4954  1.5428
   86CHL1   C16 8791   4.982   6.712   7.880 -0.1937 -0.2289 -0.0385
   86CHL1  H16A 8792   4.945   6.782   7.958 -0.3498 -0.1448 -0.1873
   86CHL1  H16B 8793   4.978   6.605   7.910 -2.1942  0.2772  1.8011
   86CHL1   C17 8794   5.126   6.747   7.835  0.1476  0.0135  0.4986
   86CHL1   H17 8795   5.184   6.653   7.820 -0.6589 -1.0477  3.3860
   86CHL1   C13 8796   5.106   6.801   7.687 -0.6079  0.2863  0.2582
   86CHL1   C18 8797   5.083   6.954   7.702 -0.4180  0.8402 -0.0590
   86CHL1  H18A 8798   5.007   6.986   7.777 -1.0418  0.1038 -0.3718
   86CHL1  H18B 8799   5.185   6.996   7.717 -0.5677  1.2339 -0.1471
   86CHL1  H18C 8800   5.042   6.995   7.607 -1.1721 -0.9617 -0.5555
   86CHL1   C12 8801   5.217   6.766   7.587 -0.1735  0.2753 -0.3265
   86CHL1  H12A 8802   5.313   6.816   7.613 -0.7547  0.4044  1.7751
   86CHL1  H12B 8803   5.231   6.656   7.602 -1.3710  0.4873  3.3745
   86CHL1   C11 8804   5.171   6.798   7.454  0.1802  0.5883  0.7093
   86CHL1  H11A 8805   5.165   6.909   7.453  1.4219  0.7377 -2.4766
   86CHL1  H11B 8806   5.258   6.788   7.385 -0.0371  2.8138  0.0506
   86CHL1    C9 8807   5.035   6.740   7.399  0.6135  1.0124  0.0360
   86CHL1    H9 8808   5.044   6.630   7.395 -1.2035  0.8542 -0.5867
   86CHL1   C10 8809   4.996   6.765   7.254 -0.3425 -0.2954 -0.7935
   86CHL1   C19 8810   5.002   6.916   7.234  0.0130 -0.2261  0.1320
   86CHL1  H19A 8811   5.110   6.944   7.239  0.0215 -0.2058 -0.1938
   86CHL1  H19B 8812   4.962   6.951   7.137  0.3792 -0.2604 -0.0311
   86CHL1  H19C 8813   4.945   6.965   7.315  0.9070  0.6975  0.2242
   86CHL1    C1 8814   5.106   6.698   7.168  1.1904 -0.1499  0.0211
   86CHL1   H1A 8815   5.202   6.750   7.190  1.4472 -0.1194 -1.1315
   86CHL1   H1B 8816   5.116   6.593   7.201 -1.0509 -0.8626 -1.3757
   86CHL1    C2 8817   5.068   6.694   7.014  0.0168  0.2283  0.3442
   86CHL1   H2A 8818   5.140   6.627   6.964  0.0994  1.9506 -2.0031
   86CHL1   H2B 8819   5.070   6.793   6.964 -1.9593 -0.3894 -1.0733
   86CHL1   C20 8820   5.212   6.828   7.944  0.1859  0.3128  0.7461
   86CHL1   H20 8821   5.159   6.926   7.940 -0.3996  0.0005  0.5933
   86CHL1   C21 8822   5.359   6.850   7.896 -0.4234  0.2112  0.9624
   86CHL1  H21A 8823   5.362   6.906   7.800 -1.4979 -0.6802  0.3909
   86CHL1  H21B 8824   5.403   6.750   7.877  0.7709  0.9504 -0.2746
   86CHL1  H21C 8825   5.414   6.903   7.977  1.0322  1.6843 -0.8713
   86CHL1   C22 8826   5.202   6.763   8.077 -0.7431 -0.1095 -0.9260
   86CHL1  H22A 8827   5.097   6.751   8.111 -1.3745  1.6646 -2.1017
   86CHL1  H22B 8828   5.247   6.662   8.070 -0.8920 -0.2760  0.2323
   86CHL1   C23 8829   5.273   6.845   8.186 -0.8066  0.0195  0.4761
   86CHL1  H23A 8830   5.380   6.820   8.175 -0.8577  0.4752 -1.3408
   86CHL1  H23B 8831   5.268   6.953   8.164 -3.3940 -0.2836 -0.8544
   86CHL1   C24 8832   5.221   6.817   8.331 -0.0056 -0.3291 -0.1026
   86CHL1  H24A 8833   5.113   6.839   8.318  0.3351  2.1705  0.7427
   86CHL1  H24B 8834   5.235   6.714   8.369 -1.5399  0.0598  1.6647
   86CHL1   C25 8835   5.274   6.906   8.441  0.1540 -0.2297 -0.3828
   86CHL1   H25 8836   5.231   6.866   8.535  2.1912 -0.6267  0.4384
   86CHL1   C26 8837   5.425   6.905   8.455 -0.2833 -0.0514  0.2195
   86CHL1  H26A 8838   5.474   6.968   8.378 -0.3555 -0.2137  0.0393
   86CHL1  H26B 8839   5.450   6.945   8.556  1.7338 -0.9655  0.1444
   86CHL1  H26C 8840   5.473   6.804   8.454 -2.0316 -0.9266 -0.6834
   86CHL1   C27 8841   5.227   7.055   8.431 -0.1086 -0.0796 -0.6583
   86CHL1  H27A 8842   5.278   7.115   8.354 -0.5413  1.4405  0.2032
   86CHL1  H27B 8843   5.116   7.061   8.420  0.0585  1.6231 -1.7372
   86CHL1  H27C 8844   5.255   7.091   8.533  0.6967 -1.2113 -0.4666
   87CHL1    C3 8845   5.658   3.318   6.987  0.6583 -0.4352 -0.3595
   87CHL1    H3 8846   5.751   3.378   6.977  0.5390  0.2345  2.0288
   87CHL1    O3 8847   5.589   3.306   6.866  0.3156 -0.0258 -0.9002
   87CHL1   H3' 8848   5.517   3.251   6.900  1.0333 -2.5374 -3.0641
   87CHL1    C4 8849   5.693   3.178   7.041  0.0190  0.1277  0.3313
   87CHL1   H4A 8850   5.603   3.114   7.057 -1.0788  1.9453  1.9600
   87CHL1   H4B 8851   5.743   3.119   6.963 -2.1602 -1.8067  0.2842
   87CHL1    C5 8852   5.757   3.181   7.176  0.6478 -0.1342  0.0732
   87CHL1    C6 8853   5.878   3.140   7.199 -0.0095  0.0486  0.0900
   87CHL1    H6 8854   5.939   3.098   7.118 -2.2122 -1.7516 -0.7315
   87CHL1    C7 8855   5.950   3.141   7.338 -0.0690  0.4678  0.3755
   87CHL1   H7A 8856   5.983   3.036   7.354 -2.8630 -0.4941  0.3845
   87CHL1   H7B 8857   6.035   3.212   7.326  0.0497  0.3686  0.6406
   87CHL1    C8 8858   5.851   3.183   7.453  0.6986  0.5598 -0.3356
   87CHL1    H8 8859   5.779   3.099   7.458  1.8112 -0.5438 -1.7852
   87CHL1   C14 8860   5.924   3.215   7.569  0.3256 -0.2784  0.3232
   87CHL1   H14 8861   5.966   3.316   7.547 -2.7925  0.8343 -1.1075
   87CHL1   C15 8862   6.041   3.118   7.616 -0.1987  0.6777 -0.0523
   87CHL1  H15A 8863   5.998   3.016   7.604  1.7688 -0.0138 -1.6908
   87CHL1  H15B 8864   6.137   3.127   7.561 -0.2347  2.2316  0.0989
   87CHL1   C16 8865   6.059   3.150   7.763  0.0082  0.2386 -0.2614
   87CHL1  H16A 8866   6.054   3.054   7.818 -0.5573  0.7949  0.6820
   87CHL1  H16B 8867   6.165   3.180   7.775  0.2394 -0.8176  0.4410
   87CHL1   C17 8868   5.946   3.262   7.793 -0.3538 -0.0692 -0.3715
   87CHL1   H17 8869   5.993   3.354   7.752  0.7345 -0.4172  0.0490
   87CHL1   C13 8870   5.836   3.245   7.690 -0.4321  0.5198 -0.1901
   87CHL1   C18 8871   5.745   3.121   7.723  0.6235 -0.0145  0.6324
   87CHL1  H18A 8872   5.659   3.103   7.655  0.6634 -0.8229  0.7922
   87CHL1  H18B 8873   5.811   3.032   7.731 -1.4225 -1.6134  0.3206
   87CHL1  H18C 8874   5.709   3.152   7.823 -1.7055  2.7736 -0.8900
   87CHL1   C12 8875   5.747   3.364   7.661 -0.1239 -0.1932 -0.3896
   87CHL1  H12A 8876   5.682   3.388   7.748 -0.4771 -1.4384 -0.2802
   87CHL1  H12B 8877   5.813   3.452   7.648 -0.6842  0.3501  0.3293
   87CHL1   C11 8878   5.675   3.355   7.532  0.1264 -0.3481  0.4436
   87CHL1  H11A 8879   5.592   3.284   7.552 -0.9952  1.3565  2.1095
   87CHL1  H11B 8880   5.641   3.456   7.503  2.2851 -0.0927 -1.4983
   87CHL1    C9 8881   5.757   3.297   7.413 -0.1755  0.1046 -0.2147
   87CHL1    H9 8882   5.826   3.378   7.378 -0.3683  0.3388 -0.0506
   87CHL1   C10 8883   5.674   3.259   7.282 -0.0942  0.1377  0.0971
   87CHL1   C19 8884   5.548   3.174   7.311  0.7204 -0.1648  0.9147
   87CHL1  H19A 8885   5.465   3.232   7.357 -1.9144 -1.7312 -1.5130
   87CHL1  H19B 8886   5.508   3.131   7.217  1.8803 -0.7587  0.6734
   87CHL1  H19C 8887   5.583   3.087   7.371  1.1731  1.1584  2.6676
   87CHL1    C1 8888   5.622   3.394   7.230  0.0006  0.2413  0.6070
   87CHL1   H1A 8889   5.541   3.433   7.295 -0.3960  0.9790 -0.3091
   87CHL1   H1B 8890   5.708   3.465   7.224  2.7133 -2.7422  1.2144
   87CHL1    C2 8891   5.569   3.394   7.090  0.6759 -0.3752 -0.5682
   87CHL1   H2A 8892   5.547   3.496   7.052  1.0706 -0.4468 -1.0017
   87CHL1   H2B 8893   5.477   3.333   7.099  1.7832 -2.1557 -0.7166
   87CHL1   C20 8894   5.906   3.294   7.937  0.2021 -0.7360 -0.2577
   87CHL1   H20 8895   5.801   3.326   7.922 -0.2993 -2.5987 -0.9762
   87CHL1   C21 8896   5.977   3.424   7.981  0.1667 -0.1853 -0.7188
   87CHL1  H21A 8897   5.953   3.453   8.086 -0.6329 -0.3709 -0.8433
   87CHL1  H21B 8898   5.958   3.514   7.918  1.0229  1.3885  1.1588
   87CHL1  H21C 8899   6.083   3.392   7.976  0.2016 -0.0693 -0.7240
   87CHL1   C22 8900   5.916   3.172   8.034 -0.6913  0.0823 -0.3282
   87CHL1  H22A 8901   5.853   3.085   8.006  0.4072 -1.0305  0.5562
   87CHL1  H22B 8902   6.016   3.124   8.033 -0.3290  0.8207  0.0100
   87CHL1   C23 8903   5.889   3.201   8.178 -0.3299 -0.4185  0.1591
   87CHL1  H23A 8904   5.904   3.109   8.239  2.8145  0.8959  1.5491
   87CHL1  H23B 8905   5.957   3.279   8.215  1.0398 -0.1414 -2.6956
   87CHL1   C24 8906   5.737   3.240   8.199 -0.0252 -0.3401  0.0938
   87CHL1  H24A 8907   5.709   3.341   8.164 -1.3754 -1.0804 -1.0497
   87CHL1  H24B 8908   5.672   3.170   8.142 -0.8960 -0.0077  0.6523
   87CHL1   C25 8909   5.687   3.256   8.343  0.5130 -0.2654 -0.2774
   87CHL1   H25 8910   5.689   3.155   8.390 -0.6043 -1.3201 -2.3420
   87CHL1   C26 8911   5.779   3.354   8.421  0.3146  0.4671 -0.8416
   87CHL1  H26A 8912   5.758   3.355   8.530 -0.2111  2.3786 -0.9168
   87CHL1  H26B 8913   5.887   3.334   8.408  0.0966 -0.9595 -0.5205
   87CHL1  H26C 8914   5.759   3.453   8.374 -1.6238  1.6206  2.1415
   87CHL1   C27 8915   5.537   3.300   8.339 -0.5477 -0.3506 -0.3343
   87CHL1  H27A 8916   5.513   3.385   8.273 -0.1503 -1.1406 -1.5317
   87CHL1  H27B 8917   5.485   3.204   8.319 -1.3094 -0.4893  1.9931
   87CHL1  H27C 8918   5.511   3.334   8.441 -0.2077 -1.7209  0.2414
   88CHL1    C3 8919   4.021   2.829   6.937  0.3478 -0.0958  0.8421
   88CHL1    H3 8920   3.916   2.797   6.953 -0.2544  1.7849  0.8995
   88CHL1    O3 8921   4.057   2.839   6.798 -0.3483 -0.4595 -0.0605
   88CHL1   H3' 8922   4.133   2.781   6.796 -0.8503 -1.2192  1.1447
   88CHL1    C4 8923   4.014   2.970   6.995 -0.1255  0.3584 -0.0483
   88CHL1   H4A 8924   4.112   3.022   6.987 -0.3702  0.9521  0.6389
   88CHL1   H4B 8925   3.936   3.025   6.937 -1.6657 -1.1637  0.4888
   88CHL1    C5 8926   3.986   2.980   7.143 -0.2278 -0.0032 -0.2914
   88CHL1    C6 8927   3.881   3.056   7.188 -1.2246 -0.7776 -0.4678
   88CHL1    H6 8928   3.818   3.090   7.106  2.0886 -0.5519 -3.1383
   88CHL1    C7 8929   3.846   3.077   7.333 -0.0081 -0.3633 -0.4174
   88CHL1   H7A 8930   3.817   3.181   7.359  0.1589  0.0954 -1.9194
   88CHL1   H7B 8931   3.760   3.010   7.358  0.7532 -0.6234  1.7115
   88CHL1    C8 8932   3.972   3.038   7.422 -0.1442 -0.0104  0.0814
   88CHL1    H8 8933   4.048   3.117   7.409  2.2998 -2.5802 -2.8800
   88CHL1   C14 8934   3.935   3.023   7.570  0.2930 -0.1113 -0.0980
   88CHL1   H14 8935   3.853   2.948   7.577  0.0380  0.1940  0.1972
   88CHL1   C15 8936   3.866   3.149   7.632 -0.2284  0.1037 -0.4537
   88CHL1  H15A 8937   3.924   3.244   7.629 -0.4689  0.3670  1.8075
   88CHL1  H15B 8938   3.763   3.168   7.595 -0.7047  0.8045  1.1728
   88CHL1   C16 8939   3.866   3.110   7.779  0.1167 -0.5409  0.1933
   88CHL1  H16A 8940   3.899   3.194   7.843  1.7738 -1.2379  0.3013
   88CHL1  H16B 8941   3.759   3.089   7.803 -0.5369  1.1887 -1.0172
   88CHL1   C17 8942   3.962   2.988   7.802 -0.1049  0.3567 -0.4017
   88CHL1   H17 8943   3.891   2.904   7.791  0.4319 -0.2608  0.7201
   88CHL1   C13 8944   4.042   2.979   7.674  0.4054  0.5234  0.9610
   88CHL1   C18 8945   4.164   3.061   7.673  0.1591  0.6265 -0.0799
   88CHL1  H18A 8946   4.240   3.012   7.738  0.9127  0.6120 -0.9655
   88CHL1  H18B 8947   4.211   3.066   7.573  3.5839 -0.8074  1.3107
   88CHL1  H18C 8948   4.153   3.167   7.705 -1.8208  0.9695 -1.6598
   88CHL1   C12 8949   4.080   2.838   7.627  0.1199 -0.1796  0.1437
   88CHL1  H12A 8950   4.159   2.800   7.694  1.6993  1.6874 -0.5663
   88CHL1  H12B 8951   3.992   2.770   7.631 -0.5780  0.7421  1.9327
   88CHL1   C11 8952   4.130   2.837   7.480  0.3711 -0.6008  0.1346
   88CHL1  H11A 8953   4.228   2.890   7.476  0.3717 -0.6074  0.0577
   88CHL1  H11B 8954   4.149   2.734   7.444 -0.0193 -0.1296 -1.5077
   88CHL1    C9 8955   4.032   2.902   7.382 -0.3480  0.1212 -0.3471
   88CHL1    H9 8956   3.944   2.834   7.374  0.0626 -0.3967 -0.5379
   88CHL1   C10 8957   4.080   2.900   7.235 -0.2672  0.5139  0.1175
   88CHL1   C19 8958   4.223   2.964   7.234  0.3341 -0.1342  0.2473
   88CHL1  H19A 8959   4.250   3.016   7.140  2.0986 -0.4865  0.5175
   88CHL1  H19B 8960   4.235   3.048   7.304 -2.2050  2.8486 -2.5850
   88CHL1  H19C 8961   4.301   2.886   7.249 -0.1419 -1.2455 -2.4007
   88CHL1    C1 8962   4.074   2.752   7.172 -0.5097 -0.6887  0.0423
   88CHL1   H1A 8963   4.154   2.697   7.226 -0.7412 -1.2572 -0.1857
   88CHL1   H1B 8964   3.972   2.709   7.179 -0.6408 -0.7551 -1.7882
   88CHL1    C2 8965   4.115   2.751   7.020 -0.1600 -0.7932  0.6336
   88CHL1   H2A 8966   4.113   2.645   6.987  0.4315 -0.9270  1.0200
   88CHL1   H2B 8967   4.221   2.771   6.994  0.6058 -1.8451  2.7423
   88CHL1   C20 8968   4.044   2.986   7.932 -0.0095  0.3273  0.3937
   88CHL1   H20 8969   4.121   3.066   7.928 -0.5368  0.9595  1.9140
   88CHL1   C21 8970   4.118   2.848   7.957 -0.6949  0.6838 -0.1472
   88CHL1  H21A 8971   4.050   2.764   7.981  2.8930 -2.2365  0.5592
   88CHL1  H21B 8972   4.176   2.870   8.049  0.9147  1.8502 -1.3756
   88CHL1  H21C 8973   4.202   2.839   7.884  1.6193  3.5630  1.8895
   88CHL1   C22 8974   3.956   3.027   8.056 -0.5079  0.2845  0.3243
   88CHL1  H22A 8975   3.892   3.112   8.024 -0.3502  0.1742 -0.2940
   88CHL1  H22B 8976   3.883   2.950   8.091 -0.7402  1.3524  2.3370
   88CHL1   C23 8977   4.042   3.073   8.170 -0.4113 -0.2915 -0.2096
   88CHL1  H23A 8978   4.111   2.990   8.198  1.2114  0.7769 -0.8391
   88CHL1  H23B 8979   4.110   3.155   8.138 -0.5003 -0.3421 -0.5357
   88CHL1   C24 8980   3.960   3.123   8.287  0.0148  0.1427  0.3717
   88CHL1  H24A 8981   3.889   3.200   8.251  2.3020  2.0271 -0.3635
   88CHL1  H24B 8982   3.905   3.040   8.336  2.4150 -0.7226  1.7558
   88CHL1   C25 8983   4.044   3.193   8.393 -0.1929 -0.1692  0.1061
   88CHL1   H25 8984   4.125   3.124   8.424  0.1419  0.5393  0.8495
   88CHL1   C26 8985   4.118   3.321   8.338 -0.5990 -0.2874  0.4653
   88CHL1  H26A 8986   4.156   3.379   8.424  1.4944 -0.3803 -0.3434
   88CHL1  H26B 8987   4.210   3.292   8.283  0.6415  2.5117  0.8806
   88CHL1  H26C 8988   4.047   3.378   8.274 -0.5930  0.1712  0.8642
   88CHL1   C27 8989   3.963   3.223   8.511  0.5953 -0.0086 -0.0985
   88CHL1  H27A 8990   4.016   3.276   8.594 -2.2475 -1.6672  3.0261
   88CHL1  H27B 8991   3.876   3.281   8.475 -1.2150 -2.4909  0.0866
   88CHL1  H27C 8992   3.921   3.129   8.553  2.5017  0.2667  2.7156
   89CHL1    C3 8993   6.028   5.300   7.033  0.1586 -0.6088 -0.3162
   89CHL1    H3 8994   6.073   5.396   7.066 -1.5851  0.2835 -0.4194
   89CHL1    O3 8995   5.990   5.316   6.893 -0.1884 -0.4190 -0.2719
   89CHL1   H3' 8996   5.934   5.242   6.870 -0.6741 -0.2899  0.4677
   89CHL1    C4 8997   6.130   5.183   7.050  0.5075  0.5849  1.1918
   89CHL1   H4A 8998   6.083   5.091   7.007  3.0459 -0.0005 -0.5547
   89CHL1   H4B 8999   6.223   5.196   6.991 -0.5171 -0.3140 -0.7006
   89CHL1    C5 9000   6.180   5.171   7.190 -0.4918  0.1168  0.1584
   89CHL1    C6 9001   6.309   5.191   7.222  0.2048  0.0695  0.6207
   89CHL1    H6 9002   6.378   5.213   7.140 -1.4543 -0.2091 -0.9264
   89CHL1    C7 9003   6.361   5.183   7.360  0.0489 -0.4763 -0.0146
   89CHL1   H7A 9004   6.462   5.136   7.363  0.9302  1.1930 -1.4360
   89CHL1   H7B 9005   6.377   5.287   7.395  0.9502 -0.8988  0.8880
   89CHL1    C8 9006   6.266   5.105   7.450 -0.2835  0.5326 -0.4959
   89CHL1    H8 9007   6.264   4.996   7.428 -0.8724 -0.0684  2.1396
   89CHL1   C14 9008   6.307   5.117   7.599  0.6076  0.1991  0.1575
   89CHL1   H14 9009   6.321   5.225   7.621  0.8328  0.1868  0.0784
   89CHL1   C15 9010   6.441   5.065   7.639 -0.2863 -0.3440  0.2010
   89CHL1  H15A 9011   6.477   4.977   7.581 -1.1722 -2.0792  2.1171
   89CHL1  H15B 9012   6.520   5.142   7.625  0.9562 -1.3490  1.2962
   89CHL1   C16 9013   6.431   5.042   7.785  0.0710 -0.2089 -0.6188
   89CHL1  H16A 9014   6.451   4.933   7.800 -0.5401 -0.1118  1.1436
   89CHL1  H16B 9015   6.509   5.097   7.843 -1.3220 -0.1003  1.2361
   89CHL1   C17 9016   6.284   5.067   7.829  0.2541 -0.4749 -0.5496
   89CHL1   H17 9017   6.270   5.176   7.850 -2.7779 -0.5807 -1.5078
   89CHL1   C13 9018   6.211   5.048   7.699  0.1329 -0.0940  0.7913
   89CHL1   C18 9019   6.200   4.894   7.670 -0.0409  0.2601 -0.3173
   89CHL1  H18A 9020   6.300   4.850   7.654 -0.7457 -1.7586  0.4556
   89CHL1  H18B 9021   6.144   4.843   7.751 -0.8286  1.6267  0.0281
   89CHL1  H18C 9022   6.149   4.872   7.574  1.1859 -0.2202 -0.8845
   89CHL1   C12 9023   6.075   5.113   7.681  0.5887 -0.0217 -0.2959
   89CHL1  H12A 9024   5.995   5.072   7.746 -0.1536  0.6442 -0.7571
   89CHL1  H12B 9025   6.082   5.222   7.703 -0.4889 -0.2034  1.1200
   89CHL1   C11 9026   6.018   5.105   7.538 -1.1386  0.0246 -0.2576
   89CHL1  H11A 9027   5.995   4.999   7.514  0.2359 -0.5041  0.6157
   89CHL1  H11B 9028   5.919   5.153   7.522 -0.7090  0.6444 -1.2034
   89CHL1    C9 9029   6.125   5.164   7.434  0.8669 -0.1032 -0.7620
   89CHL1    H9 9030   6.136   5.273   7.454  2.5028 -0.0042 -1.9847
   89CHL1   C10 9031   6.069   5.146   7.293  0.5604 -0.0729  0.0073
   89CHL1   C19 9032   6.017   5.008   7.262 -0.1802  0.3953  0.2477
   89CHL1  H19A 9033   6.000   4.981   7.155 -1.7651 -0.7719  0.7617
   89CHL1  H19B 9034   6.070   4.922   7.306 -2.2531 -1.1919 -0.1871
   89CHL1  H19C 9035   5.917   5.001   7.309 -0.2938 -0.7923 -0.1303
   89CHL1    C1 9036   5.953   5.248   7.268  0.9570  0.9360  0.2943
   89CHL1   H1A 9037   5.856   5.214   7.310  0.6789  0.2916 -0.8362
   89CHL1   H1B 9038   5.980   5.344   7.317 -0.4122  1.4430  0.0947
   89CHL1    C2 9039   5.905   5.272   7.124 -0.6111 -0.0718 -0.0636
   89CHL1   H2A 9040   5.840   5.362   7.121 -1.8264 -0.9358 -0.3310
   89CHL1   H2B 9041   5.845   5.186   7.087 -0.7647 -0.0965  0.2350
   89CHL1   C20 9042   6.241   4.982   7.955 -0.1539  0.4341 -0.7297
   89CHL1   H20 9043   6.218   4.880   7.917 -0.9388  0.4441 -0.3061
   89CHL1   C21 9044   6.110   5.037   8.007 -0.3160 -0.0690  0.7073
   89CHL1  H21A 9045   6.130   5.128   8.067 -0.6241 -0.2473  1.0873
   89CHL1  H21B 9046   6.063   4.972   8.084 -1.8586  0.7834  0.5136
   89CHL1  H21C 9047   6.032   5.049   7.929  1.6443 -1.5445 -1.6501
   89CHL1   C22 9048   6.329   4.968   8.073  0.0109  0.0221  0.2773
   89CHL1  H22A 9049   6.432   4.949   8.035  0.3428 -2.2337  2.0543
   89CHL1  H22B 9050   6.326   5.068   8.121 -3.1528  0.3451 -0.3518
   89CHL1   C23 9051   6.297   4.868   8.186  0.2341 -0.3068 -0.1940
   89CHL1  H23A 9052   6.203   4.894   8.238  1.7517  1.2571  1.9658
   89CHL1  H23B 9053   6.297   4.767   8.139 -0.2049 -0.4730  0.1602
   89CHL1   C24 9054   6.398   4.882   8.302 -0.3862 -0.4023  0.5742
   89CHL1  H24A 9055   6.493   4.844   8.258 -0.8296 -0.1639 -0.6291
   89CHL1  H24B 9056   6.410   4.989   8.327 -0.3171 -0.8731  2.7380
   89CHL1   C25 9057   6.374   4.797   8.425 -0.2635  0.0955 -0.7144
   89CHL1   H25 9058   6.278   4.826   8.474  1.2087  1.5680  1.5006
   89CHL1   C26 9059   6.375   4.646   8.389 -0.0036 -0.4157  0.4803
   89CHL1  H26A 9060   6.298   4.625   8.313 -0.5017  1.3964  0.4431
   89CHL1  H26B 9061   6.474   4.614   8.349 -1.2051 -2.6575 -0.9057
   89CHL1  H26C 9062   6.348   4.588   8.480 -0.7169  0.6862  0.9975
   89CHL1   C27 9063   6.476   4.830   8.535  0.6404 -0.8514  0.7181
   89CHL1  H27A 9064   6.484   4.754   8.615  0.3981 -0.1835  1.3766
   89CHL1  H27B 9065   6.575   4.829   8.483  0.2667  0.7458 -0.1026
   89CHL1  H27C 9066   6.454   4.930   8.578  0.0451 -0.3640 -0.6559
   90CHL1    C3 9067   6.155   5.752   6.970  0.2781 -0.9076  0.0472
   90CHL1    H3 9068   6.136   5.643   6.964  1.5176 -1.0997 -0.5907
   90CHL1    O3 9069   6.178   5.821   6.849 -0.0610  0.3133 -0.4036
   90CHL1   H3' 9070   6.228   5.900   6.869 -1.8966  1.3813  0.1610
   90CHL1    C4 9071   6.032   5.821   7.038 -1.1193  0.0729 -0.1407
   90CHL1   H4A 9072   6.060   5.928   7.044  2.4784 -0.6933 -1.0953
   90CHL1   H4B 9073   5.939   5.810   6.978 -1.3489 -0.3788  0.2853
   90CHL1    C5 9074   6.006   5.766   7.177  0.0114  0.2017 -0.1388
   90CHL1    C6 9075   5.897   5.700   7.198  0.1957 -0.0281 -1.2421
   90CHL1    H6 9076   5.826   5.678   7.117  0.2707  1.8514 -1.8673
   90CHL1    C7 9077   5.867   5.648   7.339 -0.1380  0.1211 -0.0424
   90CHL1   H7A 9078   5.764   5.673   7.373  0.6402  4.8807 -0.4975
   90CHL1   H7B 9079   5.879   5.538   7.337  1.7137  0.3028 -1.0377
   90CHL1    C8 9080   5.958   5.694   7.449 -0.6446  1.1347 -0.4031
   90CHL1    H8 9081   5.926   5.797   7.476 -0.6088  1.3370 -1.1071
   90CHL1   C14 9082   5.947   5.596   7.568 -0.0157 -0.0904 -0.2578
   90CHL1   H14 9083   5.997   5.507   7.524  1.2516  1.1169 -1.3590
   90CHL1   C15 9084   5.808   5.555   7.624  0.0448  0.2020  0.0632
   90CHL1  H15A 9085   5.744   5.646   7.627 -0.1727  0.0253  1.4932
   90CHL1  H15B 9086   5.752   5.477   7.568 -2.5886  0.8028  1.6398
   90CHL1   C16 9087   5.834   5.504   7.768  0.0150  0.8632  0.6056
   90CHL1  H16A 9088   5.782   5.565   7.845 -0.0835  0.6591  0.7000
   90CHL1  H16B 9089   5.817   5.396   7.783 -1.9702  0.9531 -0.5329
   90CHL1   C17 9090   5.990   5.522   7.789  0.0844 -0.7123  0.4477
   90CHL1   H17 9091   6.023   5.424   7.748 -0.9262 -0.6804 -0.5000
   90CHL1   C13 9092   6.033   5.630   7.686  0.2312  0.2889  0.1192
   90CHL1   C18 9093   5.998   5.770   7.747 -0.2001  0.0106  0.0832
   90CHL1  H18A 9094   6.006   5.853   7.674 -0.3747  0.1580  0.2314
   90CHL1  H18B 9095   5.889   5.775   7.771  0.1970  0.2061  2.0120
   90CHL1  H18C 9096   6.049   5.800   7.841 -1.2229  0.7189  0.4277
   90CHL1   C12 9097   6.180   5.630   7.634 -0.3180  0.8374 -0.1437
   90CHL1  H12A 9098   6.258   5.654   7.710 -0.1735 -0.2325  0.0536
   90CHL1  H12B 9099   6.195   5.528   7.594  3.2695  1.1289  0.0891
   90CHL1   C11 9100   6.203   5.730   7.522 -0.2515 -0.2932  0.6010
   90CHL1  H11A 9101   6.184   5.832   7.560 -0.0176 -0.2259  0.5382
   90CHL1  H11B 9102   6.309   5.750   7.498 -0.2870  3.1901  2.6775
   90CHL1    C9 9103   6.107   5.692   7.398  0.4193  0.2927  0.2756
   90CHL1    H9 9104   6.135   5.589   7.367  0.4823  0.5370 -0.4887
   90CHL1   C10 9105   6.125   5.780   7.272 -0.1999 -0.7148 -0.0150
   90CHL1   C19 9106   6.135   5.927   7.311 -0.2066 -0.8220 -0.1202
   90CHL1  H19A 9107   6.104   5.998   7.232 -2.7684  1.0859  2.4006
   90CHL1  H19B 9108   6.067   5.962   7.392  0.2926 -2.5339  1.0955
   90CHL1  H19C 9109   6.242   5.945   7.336 -0.4815  0.3369  0.2826
   90CHL1    C1 9110   6.256   5.736   7.203  0.0108 -0.2065  0.1353
   90CHL1   H1A 9111   6.332   5.772   7.274  0.8272  0.6036 -1.1028
   90CHL1   H1B 9112   6.263   5.626   7.206 -2.2657 -0.4429 -0.5928
   90CHL1    C2 9113   6.278   5.786   7.058  0.9451  0.4416 -0.3634
   90CHL1   H2A 9114   6.353   5.715   7.016  0.1687 -0.8636  0.3826
   90CHL1   H2B 9115   6.300   5.895   7.057 -1.6264  1.0791  1.7740
   90CHL1   C20 9116   6.044   5.536   7.930  0.0705  0.4566 -0.5286
   90CHL1   H20 9117   6.022   5.642   7.958 -0.6987  0.3323 -0.6338
   90CHL1   C21 9118   6.196   5.518   7.934  0.3485  0.3443  0.0946
   90CHL1  H21A 9119   6.230   5.454   7.850  2.7823  0.7230  0.6965
   90CHL1  H21B 9120   6.219   5.474   8.033  3.4800 -0.3094 -0.8138
   90CHL1  H21C 9121   6.239   5.620   7.927  2.1377 -0.3934 -0.4126
   90CHL1   C22 9122   5.977   5.439   8.036  0.5246 -0.2617 -0.0406
   90CHL1  H22A 9123   5.866   5.437   8.041  0.5006  0.7739  0.1231
   90CHL1  H22B 9124   6.011   5.338   8.008 -1.2071 -0.8978  0.0415
   90CHL1   C23 9125   6.013   5.460   8.185 -0.1578  0.4557  0.3493
   90CHL1  H23A 9126   6.047   5.361   8.221  2.0104  0.2918 -1.8864
   90CHL1  H23B 9127   6.092   5.537   8.195 -0.0836  0.1019  3.5791
   90CHL1   C24 9128   5.897   5.525   8.267 -0.6774  0.4619 -0.0968
   90CHL1  H24A 9129   5.862   5.622   8.227 -1.6270 -0.3391 -1.2758
   90CHL1  H24B 9130   5.811   5.457   8.288 -0.4529  0.4690  0.9307
   90CHL1   C25 9131   5.938   5.553   8.417 -0.2288  0.3280 -0.0561
   90CHL1   H25 9132   6.035   5.603   8.399  0.5711 -1.5237 -1.1486
   90CHL1   C26 9133   5.836   5.647   8.476 -0.0669  0.1051 -0.7039
   90CHL1  H26A 9134   5.737   5.597   8.470  0.7362 -1.3982 -2.3985
   90CHL1  H26B 9135   5.863   5.671   8.581  0.5749 -0.9662 -0.6017
   90CHL1  H26C 9136   5.834   5.744   8.423  0.9209  1.7058  1.9630
   90CHL1   C27 9137   5.966   5.427   8.505 -0.7200 -0.0851 -0.1184
   90CHL1  H27A 9138   5.979   5.450   8.613  0.4982 -3.0486  0.4439
   90CHL1  H27B 9139   5.883   5.354   8.497  0.3779 -1.7268  2.3376
   90CHL1  H27C 9140   6.061   5.384   8.467 -1.1158 -0.6755 -0.4512
   91CHL1    C3 9141   0.374   2.543   7.199 -0.0687  0.5081 -0.0531
   91CHL1    H3 9142   0.398   2.457   7.134 -1.0952  0.1830 -0.0255
   91CHL1    O3 9143   0.352   2.664   7.125 -0.0349  0.1102  0.4863
   91CHL1   H3' 9144   0.259   2.687   7.130 -0.0616 -0.1857  1.6182
   91CHL1    C4 9145   0.253   2.506   7.282 -0.7783 -0.5210  0.4847
   91CHL1   H4A 9146   0.209   2.599   7.324 -1.0486 -0.1311 -0.6334
   91CHL1   H4B 9147   0.177   2.466   7.211  0.4753 -1.7686 -0.2029
   91CHL1    C5 9148   0.283   2.414   7.396  0.0275  0.1633  0.0303
   91CHL1    C6 9149   0.197   2.308   7.420 -0.4146 -0.3760  0.4093
   91CHL1    H6 9150   0.106   2.297   7.359  0.4897 -1.6952 -0.7689
   91CHL1    C7 9151   0.216   2.204   7.532 -0.1900 -0.3109 -0.0458
   91CHL1   H7A 9152   0.130   2.196   7.602 -0.0494 -0.3280  0.1262
   91CHL1   H7B 9153   0.237   2.111   7.476  1.3977 -0.8469  1.3612
   91CHL1    C8 9154   0.337   2.245   7.624 -0.3032  0.3180  0.2263
   91CHL1    H8 9155   0.308   2.325   7.695 -0.0706  0.3693  0.2641
   91CHL1   C14 9156   0.376   2.122   7.705  0.4100 -0.2452 -0.4360
   91CHL1   H14 9157   0.393   2.047   7.624  0.7496  0.3798 -0.9619
   91CHL1   C15 9158   0.267   2.061   7.797 -0.2896  0.2668 -0.2298
   91CHL1  H15A 9159   0.206   2.142   7.842  0.8184  0.8285  0.2930
   91CHL1  H15B 9160   0.202   1.992   7.738 -2.0968  2.2077 -0.6013
   91CHL1   C16 9161   0.342   1.989   7.908  0.3140  0.1343 -0.4817
   91CHL1  H16A 9162   0.322   2.031   8.009 -2.0366 -2.9456  0.4974
   91CHL1  H16B 9163   0.317   1.881   7.902  1.5590 -0.1017 -2.4691
   91CHL1   C17 9164   0.493   2.001   7.874  0.2422  0.0884 -0.3194
   91CHL1   H17 9165   0.517   1.926   7.795 -0.3746  1.2346 -1.6192
   91CHL1   C13 9166   0.498   2.135   7.790  0.0667 -0.1690  0.2280
   91CHL1   C18 9167   0.485   2.255   7.886 -0.4904 -0.0692  0.4548
   91CHL1  H18A 9168   0.416   2.241   7.972 -1.4350  2.2409  0.1608
   91CHL1  H18B 9169   0.584   2.255   7.937  0.3846  0.7519 -1.1549
   91CHL1  H18C 9170   0.455   2.349   7.835 -1.0219 -0.2145  0.4982
   91CHL1   C12 9171   0.618   2.166   7.698 -0.0168 -0.8124 -0.1516
   91CHL1  H12A 9172   0.711   2.184   7.756 -0.4425  1.7691 -0.1482
   91CHL1  H12B 9173   0.637   2.079   7.632 -0.1635 -1.1929  0.3031
   91CHL1   C11 9174   0.602   2.300   7.613  0.2745  0.0759 -0.0351
   91CHL1  H11A 9175   0.609   2.385   7.684  0.8204 -0.6569  0.8027
   91CHL1  H11B 9176   0.676   2.308   7.530 -0.4477 -0.2635 -0.7217
   91CHL1    C9 9177   0.459   2.293   7.539 -0.8599 -0.5663 -0.2869
   91CHL1    H9 9178   0.482   2.214   7.464 -0.9758 -0.9621  0.0898
   91CHL1   C10 9179   0.425   2.420   7.462  0.0742 -0.7749  0.2284
   91CHL1   C19 9180   0.416   2.533   7.562  0.4998  0.1267 -0.5173
   91CHL1  H19A 9181   0.521   2.551   7.592 -0.0047  0.9245  0.8856
   91CHL1  H19B 9182   0.382   2.629   7.518  2.4428  0.6540 -0.9718
   91CHL1  H19C 9183   0.352   2.505   7.649  2.0815  1.1319  1.0363
   91CHL1    C1 9184   0.535   2.440   7.359 -0.1476  0.1581  0.0792
   91CHL1   H1A 9185   0.634   2.451   7.407 -0.5266 -0.1260  0.9527
   91CHL1   H1B 9186   0.537   2.350   7.295  0.0592  0.4746 -0.3641
   91CHL1    C2 9187   0.513   2.561   7.275  0.3316  0.4373 -0.1418
   91CHL1   H2A 9188   0.592   2.570   7.197 -0.0745  2.9928 -0.3193
   91CHL1   H2B 9189   0.501   2.659   7.324 -1.4461  0.8277 -1.2481
   91CHL1   C20 9190   0.580   1.977   8.000  0.3596  0.2049 -0.2781
   91CHL1   H20 9191   0.561   2.060   8.071  1.7242 -0.5911  1.0884
   91CHL1   C21 9192   0.733   1.987   7.972 -0.3681  0.2067  0.2209
   91CHL1  H21A 9193   0.797   1.954   8.057 -1.0325 -0.4722  0.4638
   91CHL1  H21B 9194   0.772   2.082   7.929 -1.5237 -0.1866 -1.8307
   91CHL1  H21C 9195   0.755   1.912   7.893  0.7531 -2.0484  2.5436
   91CHL1   C22 9196   0.554   1.844   8.081  0.4055 -0.5358 -0.2484
   91CHL1  H22A 9197   0.625   1.848   8.166 -1.7530 -0.1732  1.6500
   91CHL1  H22B 9198   0.454   1.858   8.128 -0.2727  0.1613 -1.8324
   91CHL1   C23 9199   0.567   1.712   8.001  0.1726  0.0657  0.7601
   91CHL1  H23A 9200   0.461   1.685   7.985 -0.0049 -0.2374  2.2765
   91CHL1  H23B 9201   0.624   1.732   7.908 -0.5263  1.1742  0.5494
   91CHL1   C24 9202   0.633   1.600   8.077 -0.1791 -0.1041  0.3445
   91CHL1  H24A 9203   0.730   1.639   8.113  0.1723  0.4249 -1.1134
   91CHL1  H24B 9204   0.575   1.576   8.169 -1.8713 -0.1376 -0.6715
   91CHL1   C25 9205   0.652   1.468   7.993  0.5507 -0.0597 -0.7981
   91CHL1   H25 9206   0.693   1.485   7.891  0.1668 -1.1763 -1.1494
   91CHL1   C26 9207   0.742   1.366   8.065 -0.3274 -0.3273 -0.1463
   91CHL1  H26A 9208   0.845   1.395   8.095 -0.5499 -1.2309  1.6860
   91CHL1  H26B 9209   0.681   1.329   8.150 -3.0379  0.2396 -1.7493
   91CHL1  H26C 9210   0.749   1.276   8.001 -0.4563 -0.4338 -0.0126
   91CHL1   C27 9211   0.513   1.409   7.984 -0.5650  0.3150 -0.5432
   91CHL1  H27A 9212   0.478   1.379   8.085  1.7727  1.5619  0.7129
   91CHL1  H27B 9213   0.450   1.474   7.919  1.4132  0.9879 -1.8600
   91CHL1  H27C 9214   0.518   1.310   7.934 -0.3365 -0.7377  1.4970
   92CHL1    C3 9215   3.359   3.278   6.727  0.2850  0.8116  0.7170
   92CHL1    H3 9216   3.250   3.288   6.712  0.3940  2.0117  0.6453
   92CHL1    O3 9217   3.422   3.280   6.599  0.1148 -0.1163  0.0549
   92CHL1   H3' 9218   3.509   3.240   6.599  0.2642  0.1082 -1.8866
   92CHL1    C4 9219   3.418   3.383   6.821 -0.4536  0.0179 -0.0329
   92CHL1   H4A 9220   3.527   3.389   6.804 -0.5702 -0.4706 -0.9943
   92CHL1   H4B 9221   3.384   3.481   6.782 -1.7122 -0.0344  0.8488
   92CHL1    C5 9222   3.397   3.365   6.968 -0.4371 -0.3730 -0.0974
   92CHL1    C6 9223   3.361   3.476   7.041  0.3107  0.2383  0.0494
   92CHL1    H6 9224   3.343   3.573   6.993  1.0459  0.4139  0.1181
   92CHL1    C7 9225   3.332   3.470   7.192 -0.6583 -0.0201  0.3941
   92CHL1   H7A 9226   3.377   3.561   7.238 -0.1762 -0.3284  0.5401
   92CHL1   H7B 9227   3.223   3.477   7.209 -0.8783 -1.1784 -0.4313
   92CHL1    C8 9228   3.384   3.335   7.254  0.0217  0.0556 -0.0611
   92CHL1    H8 9229   3.494   3.341   7.272 -0.0973 -0.8492  1.0371
   92CHL1   C14 9230   3.336   3.312   7.393 -0.0921 -0.1554 -0.0921
   92CHL1   H14 9231   3.225   3.306   7.385  0.0302 -1.1625 -1.3447
   92CHL1   C15 9232   3.374   3.421   7.495 -0.0918  0.4181  0.4616
   92CHL1  H15A 9233   3.483   3.437   7.487 -0.0830 -0.4543 -2.0957
   92CHL1  H15B 9234   3.320   3.517   7.481  0.9413  0.8525 -0.7439
   92CHL1   C16 9235   3.357   3.356   7.632  0.0819  0.4855 -0.5621
   92CHL1  H16A 9236   3.454   3.353   7.686  0.4488 -1.5053 -1.2572
   92CHL1  H16B 9237   3.281   3.416   7.688 -1.3736  0.7281 -2.6796
   92CHL1   C17 9238   3.312   3.204   7.604  0.3260 -0.6507  0.0946
   92CHL1   H17 9239   3.202   3.211   7.593 -0.0363 -1.9825  2.2967
   92CHL1   C13 9240   3.364   3.175   7.461 -0.0181  0.0252  0.8877
   92CHL1   C18 9241   3.515   3.152   7.479  0.6840 -0.4668  0.3709
   92CHL1  H18A 9242   3.569   3.242   7.517  1.9082 -0.9174 -0.2556
   92CHL1  H18B 9243   3.539   3.057   7.531  1.1226  0.4615  1.9245
   92CHL1  H18C 9244   3.567   3.145   7.381  1.6456 -1.8213  0.9437
   92CHL1   C12 9245   3.294   3.071   7.375 -0.0119 -0.2910  0.0355
   92CHL1  H12A 9246   3.310   2.970   7.417  2.2441 -0.6956 -1.5904
   92CHL1  H12B 9247   3.185   3.092   7.369  0.3418  1.5378 -0.5693
   92CHL1   C11 9248   3.354   3.077   7.233 -0.0414 -0.7033 -0.0170
   92CHL1  H11A 9249   3.459   3.042   7.238 -0.0583 -1.0615 -1.5751
   92CHL1  H11B 9250   3.296   3.002   7.176 -1.5817  1.9943 -2.3139
   92CHL1    C9 9251   3.341   3.216   7.162 -0.4433  0.0404 -1.3197
   92CHL1    H9 9252   3.230   3.227   7.160 -0.4899  0.0604  0.2170
   92CHL1   C10 9253   3.405   3.223   7.024  0.0200  0.5565  0.8020
   92CHL1   C19 9254   3.558   3.192   7.044 -0.6081 -0.5714  0.5354
   92CHL1  H19A 9255   3.615   3.184   6.949  0.7901 -0.1691  1.3061
   92CHL1  H19B 9256   3.607   3.267   7.110  0.1489 -1.8245  1.4458
   92CHL1  H19C 9257   3.565   3.087   7.080  1.7434 -0.9342 -0.7385
   92CHL1    C1 9258   3.326   3.127   6.928  0.1269  0.0194 -1.0156
   92CHL1   H1A 9259   3.339   3.023   6.964  1.4358  0.1826 -0.9504
   92CHL1   H1B 9260   3.219   3.154   6.915 -0.9646 -2.6875  1.3195
   92CHL1    C2 9261   3.386   3.133   6.783  0.0684  0.2510 -1.1581
   92CHL1   H2A 9262   3.342   3.057   6.716  1.1751 -0.4874 -1.0686
   92CHL1   H2B 9263   3.495   3.116   6.797 -0.2522 -1.8915 -0.8485
   92CHL1   C20 9264   3.324   3.098   7.717  0.2776 -0.6369 -0.0458
   92CHL1   H20 9265   3.408   3.030   7.691  2.2865  1.6353  0.2575
   92CHL1   C21 9266   3.197   3.001   7.711  0.0473 -0.0740  0.4336
   92CHL1  H21A 9267   3.105   3.057   7.739  0.3865  1.3807 -1.2138
   92CHL1  H21B 9268   3.220   2.911   7.771  0.1508  0.1702  0.7578
   92CHL1  H21C 9269   3.187   2.969   7.605 -1.4743 -2.0667  1.1103
   92CHL1   C22 9270   3.356   3.140   7.859 -0.0097 -0.5721 -0.5007
   92CHL1  H22A 9271   3.415   3.068   7.920 -0.0057 -0.0190  0.1677
   92CHL1  H22B 9272   3.430   3.223   7.847 -1.0126  0.3088 -0.7371
   92CHL1   C23 9273   3.238   3.201   7.934  0.4977  0.3802 -0.0382
   92CHL1  H23A 9274   3.168   3.246   7.861  1.7964 -0.7751 -2.0965
   92CHL1  H23B 9275   3.179   3.127   7.991  1.0569  0.1828  0.2896
   92CHL1   C24 9276   3.281   3.310   8.032  0.1403  0.1166  0.3366
   92CHL1  H24A 9277   3.334   3.261   8.116 -1.4443 -0.1225  1.2266
   92CHL1  H24B 9278   3.346   3.387   7.984 -0.8488  1.1195  0.5481
   92CHL1   C25 9279   3.163   3.390   8.095  0.1778 -0.3770 -0.0064
   92CHL1   H25 9280   3.092   3.419   8.015  1.0915  3.0114  0.2617
   92CHL1   C26 9281   3.084   3.307   8.198 -0.3981  0.1609 -0.6434
   92CHL1  H26A 9282   2.994   3.360   8.234  0.8872  2.4110 -0.5386
   92CHL1  H26B 9283   3.041   3.219   8.145 -0.1001  0.1183 -0.8235
   92CHL1  H26C 9284   3.148   3.271   8.281 -1.1619 -2.0174 -0.9373
   92CHL1   C27 9285   3.215   3.521   8.162 -0.2854  0.5753  0.4426
   92CHL1  H27A 9286   3.291   3.502   8.241  1.5075 -0.2053 -1.3479
   92CHL1  H27B 9287   3.274   3.587   8.095  0.7347 -1.5214 -0.8669
   92CHL1  H27C 9288   3.132   3.579   8.206 -0.7829  0.6083 -0.5024
   93CHL1    C3 9289   1.485   3.493   6.988 -0.6523 -0.2456 -0.0026
   93CHL1    H3 9290   1.510   3.601   6.986 -0.0245 -0.3836  0.1134
   93CHL1    O3 9291   1.429   3.466   6.861  0.1184  0.0908  0.2892
   93CHL1   H3' 9292   1.358   3.531   6.856  0.3694  0.3828  0.4691
   93CHL1    C4 9293   1.616   3.413   7.013 -0.0757  1.1443  0.2345
   93CHL1   H4A 9294   1.602   3.308   6.978  0.6344  1.1517 -0.0806
   93CHL1   H4B 9295   1.690   3.455   6.942 -1.0820 -0.9210 -2.2399
   93CHL1    C5 9296   1.667   3.434   7.157  0.0675 -1.1915  0.1884
   93CHL1    C6 9297   1.791   3.480   7.178  0.1462 -0.2452  0.6756
   93CHL1    H6 9298   1.842   3.495   7.081 -1.4485  2.1436  0.1355
   93CHL1    C7 9299   1.854   3.512   7.313  0.8685  0.2228  1.4879
   93CHL1   H7A 9300   1.952   3.460   7.310  0.0313 -1.3657  0.6908
   93CHL1   H7B 9301   1.858   3.623   7.311  0.5951  0.3180 -2.6276
   93CHL1    C8 9302   1.776   3.449   7.419 -0.1343  0.8297  0.3233
   93CHL1    H8 9303   1.794   3.339   7.415  0.2450  0.9242 -2.1353
   93CHL1   C14 9304   1.812   3.516   7.546  0.0455 -0.1502 -0.5328
   93CHL1   H14 9305   1.784   3.621   7.527  0.8220 -0.0335 -1.0744
   93CHL1   C15 9306   1.958   3.533   7.582 -0.8224  0.1321  0.2894
   93CHL1  H15A 9307   2.011   3.437   7.566 -2.5300 -0.3393 -3.5551
   93CHL1  H15B 9308   2.000   3.619   7.527 -1.2451 -0.0862 -0.3914
   93CHL1   C16 9309   1.961   3.562   7.735  0.1653  0.4065  0.9462
   93CHL1  H16A 9310   2.031   3.497   7.791 -1.2594 -1.3148  0.8135
   93CHL1  H16B 9311   2.007   3.663   7.740 -2.2369  1.8254 -2.3682
   93CHL1   C17 9312   1.812   3.553   7.784 -0.4561  0.2387  0.7279
   93CHL1   H17 9313   1.772   3.657   7.788 -0.5866  0.2140  0.0792
   93CHL1   C13 9314   1.744   3.471   7.671 -0.2231 -0.3494  0.6571
   93CHL1   C18 9315   1.771   3.316   7.687  0.1677 -0.0200 -0.4523
   93CHL1  H18A 9316   1.872   3.283   7.720 -1.2584 -2.4012  2.0019
   93CHL1  H18B 9317   1.717   3.272   7.773  0.5361  0.3120 -0.0472
   93CHL1  H18C 9318   1.743   3.249   7.603  0.5071  0.1680 -0.7208
   93CHL1   C12 9319   1.594   3.500   7.654  0.4509  0.0685 -0.7113
   93CHL1  H12A 9320   1.531   3.481   7.744  1.4726  0.9075  0.2047
   93CHL1  H12B 9321   1.579   3.608   7.631 -1.5378 -0.2043 -0.9513
   93CHL1   C11 9322   1.533   3.437   7.529  0.0077  0.1507 -0.1833
   93CHL1  H11A 9323   1.530   3.331   7.561 -1.9741  0.9236  2.5554
   93CHL1  H11B 9324   1.436   3.491   7.521  0.9004  1.8771  0.1657
   93CHL1    C9 9325   1.619   3.467   7.403  0.5468  0.1595 -0.0302
   93CHL1    H9 9326   1.616   3.578   7.397 -1.9834  0.1937  0.8112
   93CHL1   C10 9327   1.567   3.417   7.271  0.2841 -0.9921  0.7150
   93CHL1   C19 9328   1.533   3.268   7.284  0.6005  0.1853 -0.0265
   93CHL1  H19A 9329   1.461   3.249   7.367  0.0763  2.4351  0.0842
   93CHL1  H19B 9330   1.482   3.228   7.194  1.7816 -1.2703 -0.0837
   93CHL1  H19C 9331   1.625   3.208   7.298  0.4680  0.2320  1.1296
   93CHL1    C1 9332   1.432   3.491   7.236  0.0176 -0.0191 -1.0007
   93CHL1   H1A 9333   1.360   3.452   7.312  2.0561 -0.7031  0.6946
   93CHL1   H1B 9334   1.449   3.600   7.248 -2.0514  0.1578  1.2330
   93CHL1    C2 9335   1.373   3.478   7.095 -0.2918 -0.3852  0.6046
   93CHL1   H2A 9336   1.292   3.553   7.082  0.0983  0.1336  1.1157
   93CHL1   H2B 9337   1.341   3.373   7.077 -3.5745  0.9481 -2.4766
   93CHL1   C20 9338   1.800   3.500   7.937  0.1337  0.0815 -0.2075
   93CHL1   H20 9339   1.844   3.398   7.947  3.1335  1.3888  0.7906
   93CHL1   C21 9340   1.649   3.488   7.978 -0.3622 -0.0253 -0.2618
   93CHL1  H21A 9341   1.611   3.391   7.941  0.8727 -0.5980 -0.0554
   93CHL1  H21B 9342   1.596   3.577   7.937 -1.1233 -0.1091  0.5011
   93CHL1  H21C 9343   1.643   3.489   8.089  1.1422 -0.6549 -0.1509
   93CHL1   C22 9344   1.893   3.578   8.030  0.1453 -0.4948 -0.0185
   93CHL1  H22A 9345   1.988   3.577   7.973  0.1608  1.5940 -0.0978
   93CHL1  H22B 9346   1.863   3.685   8.030  0.7258 -0.3104 -1.4905
   93CHL1   C23 9347   1.909   3.521   8.177  1.0191 -0.2507  0.0661
   93CHL1  H23A 9348   1.818   3.542   8.238  1.6123 -0.4225  1.0433
   93CHL1  H23B 9349   1.913   3.410   8.174 -2.1971 -0.4461 -0.6992
   93CHL1   C24 9350   2.018   3.571   8.267 -0.3927  0.3397  0.2038
   93CHL1  H24A 9351   2.107   3.567   8.200  0.6885  1.2815  1.5111
   93CHL1  H24B 9352   2.002   3.677   8.297 -0.1632  0.1950  0.8586
   93CHL1   C25 9353   2.044   3.476   8.383 -0.4074  0.9737  0.9438
   93CHL1   H25 9354   2.076   3.373   8.354 -2.4372 -0.1350  2.3552
   93CHL1   C26 9355   2.179   3.526   8.452  0.7446  0.7858  0.3675
   93CHL1  H26A 9356   2.212   3.455   8.531  1.4175  0.3194 -0.3142
   93CHL1  H26B 9357   2.260   3.548   8.378 -0.3590  1.1488 -0.7607
   93CHL1  H26C 9358   2.152   3.625   8.496  1.1549  1.0302  0.0785
   93CHL1   C27 9359   1.931   3.475   8.484 -0.3830  0.3627  0.1745
   93CHL1  H27A 9360   1.838   3.446   8.432 -0.4597  0.5319  0.2158
   93CHL1  H27B 9361   1.960   3.410   8.569 -1.6097  0.4713  0.6978
   93CHL1  H27C 9362   1.917   3.583   8.510  0.9752  0.4245  0.7528
   94CHL1    C3 9363   4.966   4.678   6.905  0.7939 -0.6998 -0.2017
   94CHL1    H3 9364   5.059   4.733   6.880  0.1675  0.7241  0.4617
   94CHL1    O3 9365   4.905   4.622   6.793  0.3196 -0.3204  0.2148
   94CHL1   H3' 9366   4.940   4.647   6.707 -2.4209  0.5684 -0.7354
   94CHL1    C4 9367   4.992   4.565   6.997 -0.5064 -0.3397 -0.4175
   94CHL1   H4A 9368   4.906   4.495   6.997 -0.8333 -0.0637 -3.4346
   94CHL1   H4B 9369   5.074   4.503   6.954  2.2448  2.9359 -0.2931
   94CHL1    C5 9370   5.029   4.600   7.139 -0.4447  0.6186  0.0146
   94CHL1    C6 9371   5.140   4.554   7.200 -0.0270  0.5913 -0.6768
   94CHL1    H6 9372   5.202   4.487   7.139 -1.9040 -1.6713 -0.2495
   94CHL1    C7 9373   5.193   4.583   7.341 -0.0584  0.7671 -0.9163
   94CHL1   H7A 9374   5.207   4.480   7.380  0.0632  0.1586 -2.5049
   94CHL1   H7B 9375   5.286   4.644   7.336  0.4286 -0.0507 -3.9996
   94CHL1    C8 9376   5.086   4.651   7.428  0.4291 -0.1006  0.5362
   94CHL1    H8 9377   5.005   4.582   7.461  0.8505 -0.1392  1.5280
   94CHL1   C14 9378   5.149   4.711   7.545  0.1773  0.4439  0.3839
   94CHL1   H14 9379   5.207   4.798   7.507 -0.4615  0.5612 -0.3331
   94CHL1   C15 9380   5.239   4.624   7.630  0.0079 -0.2525 -0.1983
   94CHL1  H15A 9381   5.181   4.530   7.644 -0.9257  0.0807 -1.6617
   94CHL1  H15B 9382   5.334   4.608   7.575  1.2476 -0.3578  1.8367
   94CHL1   C16 9383   5.254   4.702   7.762  0.1352  0.3145  0.9614
   94CHL1  H16A 9384   5.223   4.634   7.844 -0.9787  1.1184  1.2346
   94CHL1  H16B 9385   5.361   4.727   7.774  0.9709 -1.9712 -0.9418
   94CHL1   C17 9386   5.160   4.824   7.749  0.3385 -0.1933 -0.7296
   94CHL1   H17 9387   5.222   4.903   7.703 -0.1298  0.8946  0.4591
   94CHL1   C13 9388   5.058   4.782   7.641 -0.4125 -0.0650  0.6096
   94CHL1   C18 9389   4.958   4.682   7.704  0.2728  0.3841 -0.0014
   94CHL1  H18A 9390   4.919   4.611   7.629  0.3660  1.5574 -1.1949
   94CHL1  H18B 9391   5.005   4.617   7.781  1.9803 -1.3204 -2.3497
   94CHL1  H18C 9392   4.869   4.733   7.746 -1.6065 -1.0495 -2.0425
   94CHL1   C12 9393   4.989   4.896   7.557  0.1709 -0.6098 -0.0316
   94CHL1  H12A 9394   4.923   4.968   7.610  1.4890  2.4810 -2.2767
   94CHL1  H12B 9395   5.074   4.962   7.529  1.0714 -2.1681 -1.1136
   94CHL1   C11 9396   4.923   4.844   7.431  0.0646 -0.2675 -0.4367
   94CHL1  H11A 9397   4.845   4.770   7.460 -1.0869  0.9674 -0.2818
   94CHL1  H11B 9398   4.869   4.928   7.383  1.1226 -0.2093 -1.5689
   94CHL1    C9 9399   5.023   4.761   7.338  0.4660 -0.0425 -0.9996
   94CHL1    H9 9400   5.104   4.828   7.301  0.3276  0.9564  0.4325
   94CHL1   C10 9401   4.948   4.702   7.216  0.2713  0.4923  0.1882
   94CHL1   C19 9402   4.815   4.626   7.257 -0.1223 -0.2931 -0.2614
   94CHL1  H19A 9403   4.781   4.550   7.184 -1.6577 -2.8875  2.8760
   94CHL1  H19B 9404   4.840   4.564   7.346  0.6705 -0.9320 -0.9193
   94CHL1  H19C 9405   4.734   4.698   7.282  0.9286  1.0562 -0.6029
   94CHL1    C1 9406   4.924   4.823   7.109 -0.0933 -0.3803  0.4355
   94CHL1   H1A 9407   4.850   4.886   7.164  2.3913  1.6347  1.6382
   94CHL1   H1B 9408   5.012   4.888   7.093 -2.6363  3.2000 -0.2506
   94CHL1    C2 9409   4.864   4.781   6.970 -0.4369  0.6400 -0.8984
   94CHL1   H2A 9410   4.860   4.874   6.910 -1.8978  1.4740  0.4087
   94CHL1   H2B 9411   4.769   4.724   6.982  0.9713 -1.6644 -0.1648
   94CHL1   C20 9412   5.107   4.877   7.886 -0.0584 -1.5486 -0.2372
   94CHL1   H20 9413   5.045   4.803   7.942  0.7070 -1.0260  1.3729
   94CHL1   C21 9414   5.025   5.007   7.861  0.0019 -0.2354  0.4056
   94CHL1  H21A 9415   4.990   5.044   7.960 -1.0598 -3.4372  1.3477
   94CHL1  H21B 9416   4.930   4.979   7.810  1.0474  1.0199 -2.4448
   94CHL1  H21C 9417   5.086   5.086   7.812 -0.9537  1.2491  1.5029
   94CHL1   C22 9418   5.229   4.912   7.971 -0.2001 -0.0274  0.0248
   94CHL1  H22A 9419   5.293   4.828   8.005  0.8186  1.6882  2.8169
   94CHL1  H22B 9420   5.301   4.978   7.918  0.4108 -0.6335  0.0950
   94CHL1   C23 9421   5.199   4.995   8.100  0.0955  0.5920 -0.3938
   94CHL1  H23A 9422   5.293   5.008   8.159  0.3028  2.0639 -1.0136
   94CHL1  H23B 9423   5.165   5.098   8.075  0.4548  0.4214 -1.6570
   94CHL1   C24 9424   5.104   4.927   8.206  0.2110 -0.4795  0.0885
   94CHL1  H24A 9425   5.002   4.924   8.163  0.7740 -1.5212 -1.2393
   94CHL1  H24B 9426   5.128   4.821   8.230  2.2115 -0.5488 -1.8354
   94CHL1   C25 9427   5.094   4.992   8.349  0.8342  0.0772  0.4116
   94CHL1   H25 9428   5.192   4.989   8.400  0.9383  1.8129  0.3547
   94CHL1   C26 9429   5.033   5.138   8.350 -0.5126 -0.0307  0.0769
   94CHL1  H26A 9430   5.054   5.187   8.447  0.8359 -0.8008  0.2015
   94CHL1  H26B 9431   5.065   5.194   8.259  1.1331  2.5980  2.1211
   94CHL1  H26C 9432   4.924   5.133   8.329 -0.3162  0.7739 -1.3181
   94CHL1   C27 9433   4.998   4.917   8.435  0.4779 -0.7065 -0.3463
   94CHL1  H27A 9434   5.034   4.815   8.457 -0.8966 -0.8908  1.2959
   94CHL1  H27B 9435   4.993   4.968   8.533 -1.5829 -0.6719 -0.4101
   94CHL1  H27C 9436   4.897   4.908   8.390  1.0602 -1.5514 -1.5196
   95CHL1    C3 9437   4.109   3.295   6.619  0.4361  0.1564  0.2925
   95CHL1    H3 9438   4.049   3.203   6.638 -2.9331  2.5568  2.3644
   95CHL1    O3 9439   4.116   3.309   6.480 -0.4020  0.1529 -0.2628
   95CHL1   H3' 9440   4.197   3.359   6.471 -0.1431 -0.4338 -1.4897
   95CHL1    C4 9441   4.019   3.417   6.671 -0.8786  0.3139  0.8608
   95CHL1   H4A 9442   4.051   3.513   6.626  0.0106 -0.4677 -0.2237
   95CHL1   H4B 9443   3.918   3.400   6.629 -0.4650 -4.4812  1.2424
   95CHL1    C5 9444   4.016   3.425   6.818 -0.2792  0.0721  0.7562
   95CHL1    C6 9445   3.898   3.416   6.880 -0.1768 -0.9174 -0.0812
   95CHL1    H6 9446   3.807   3.417   6.817  2.2320  0.1612 -3.8799
   95CHL1    C7 9447   3.893   3.424   7.025  0.2779 -0.7039 -0.3112
   95CHL1   H7A 9448   3.804   3.478   7.065 -0.3643 -1.2025 -1.0356
   95CHL1   H7B 9449   3.868   3.321   7.059  0.4491 -1.5726 -2.6826
   95CHL1    C8 9450   4.024   3.478   7.095 -0.1276 -0.1407  0.1328
   95CHL1    H8 9451   4.024   3.587   7.074  0.0673  0.4755  2.9668
   95CHL1   C14 9452   4.022   3.450   7.243 -0.5079 -0.0978  0.8281
   95CHL1   H14 9453   4.022   3.340   7.252 -0.1818 -0.1735 -0.0122
   95CHL1   C15 9454   3.902   3.499   7.324 -0.5531  0.3407  0.2298
   95CHL1  H15A 9455   3.870   3.600   7.289  0.6603  0.8550  0.5506
   95CHL1  H15B 9456   3.820   3.425   7.312 -0.3986  0.2786 -0.5073
   95CHL1   C16 9457   3.967   3.523   7.467 -0.0121  0.0113 -0.1467
   95CHL1  H16A 9458   3.976   3.633   7.484 -0.7375  0.0634 -0.0670
   95CHL1  H16B 9459   3.913   3.481   7.554  0.5140 -0.2486  0.0577
   95CHL1   C17 9460   4.114   3.472   7.462  0.2279  0.7969 -0.2802
   95CHL1   H17 9461   4.101   3.363   7.482 -2.5156  1.4701  2.2648
   95CHL1   C13 9462   4.153   3.502   7.314 -0.6575 -0.3385  0.6615
   95CHL1   C18 9463   4.173   3.656   7.289 -0.8137  0.4857 -0.2870
   95CHL1  H18A 9464   4.085   3.720   7.313 -1.8709 -1.2391  0.5915
   95CHL1  H18B 9465   4.259   3.691   7.349 -0.7258 -1.4184  0.7605
   95CHL1  H18C 9466   4.189   3.670   7.180 -1.1541  2.1973 -0.1426
   95CHL1   C12 9467   4.269   3.410   7.259 -0.1671 -0.8874  0.3979
   95CHL1  H12A 9468   4.368   3.441   7.299  1.2183 -2.4774 -1.5895
   95CHL1  H12B 9469   4.233   3.312   7.295  1.4963 -1.0167  1.8580
   95CHL1   C11 9470   4.278   3.432   7.104  0.1605  0.4391 -0.3608
   95CHL1  H11A 9471   4.316   3.535   7.090 -0.7929  0.7699 -0.6335
   95CHL1  H11B 9472   4.351   3.363   7.057 -0.6048 -0.0313 -0.8882
   95CHL1    C9 9473   4.137   3.410   7.035  0.1375 -0.1990 -0.0793
   95CHL1    H9 9474   4.120   3.301   7.041 -0.8970  0.0236  1.6875
   95CHL1   C10 9475   4.153   3.430   6.883  0.5353 -0.3085  0.1921
   95CHL1   C19 9476   4.219   3.571   6.847 -0.0641 -0.0041  0.0817
   95CHL1  H19A 9477   4.221   3.588   6.737 -0.4764 -0.1037  0.0570
   95CHL1  H19B 9478   4.162   3.657   6.888 -0.5908 -0.3116  0.0073
   95CHL1  H19C 9479   4.323   3.572   6.885  0.5617  3.0036 -1.3806
   95CHL1    C1 9480   4.246   3.313   6.828  0.4729 -0.3284 -0.8033
   95CHL1   H1A 9481   4.352   3.312   6.862  0.1800 -0.0521  0.1242
   95CHL1   H1B 9482   4.199   3.216   6.857 -2.4256  1.2173 -0.0556
   95CHL1    C2 9483   4.249   3.302   6.679  0.4831  0.7007 -0.6528
   95CHL1   H2A 9484   4.316   3.217   6.655 -1.9026 -1.3518 -0.4606
   95CHL1   H2B 9485   4.309   3.387   6.638  1.9328  0.4051  0.7340
   95CHL1   C20 9486   4.211   3.528   7.576  0.4156 -0.8201 -0.2609
   95CHL1   H20 9487   4.238   3.631   7.545  1.8678 -1.2031 -0.3444
   95CHL1   C21 9488   4.325   3.429   7.583 -0.6777  0.6155 -0.2747
   95CHL1  H21A 9489   4.389   3.442   7.674 -0.7910  0.9260 -0.2377
   95CHL1  H21B 9490   4.398   3.441   7.500 -2.5576 -0.8045 -2.2196
   95CHL1  H21C 9491   4.283   3.327   7.570 -1.6308  0.8097  1.0847
   95CHL1   C22 9492   4.133   3.539   7.710  0.2468 -0.0947  0.3990
   95CHL1  H22A 9493   4.071   3.631   7.702  1.5809  0.7358 -1.0390
   95CHL1  H22B 9494   4.069   3.449   7.724  1.2188 -0.9660 -0.5342
   95CHL1   C23 9495   4.226   3.545   7.834 -0.0148  0.3692 -0.2486
   95CHL1  H23A 9496   4.284   3.453   7.859 -0.2537  1.0530  3.4281
   95CHL1  H23B 9497   4.299   3.625   7.808  2.2881 -1.5284 -0.0150
   95CHL1   C24 9498   4.155   3.598   7.964  0.2753  0.1983 -1.1006
   95CHL1  H24A 9499   4.073   3.666   7.930 -1.3587 -1.5520 -0.8705
   95CHL1  H24B 9500   4.105   3.518   8.024  0.0878  1.6188  0.7256
   95CHL1   C25 9501   4.258   3.662   8.060  0.3691 -0.0973 -0.5177
   95CHL1   H25 9502   4.341   3.591   8.076  1.1601  1.0814  0.8838
   95CHL1   C26 9503   4.312   3.792   8.009  0.0983 -0.7777  0.2327
   95CHL1  H26A 9504   4.387   3.824   8.084 -1.3919  1.6401  0.7887
   95CHL1  H26B 9505   4.354   3.791   7.906 -0.8128  0.4113 -0.1743
   95CHL1  H26C 9506   4.223   3.858   8.004 -0.5851 -1.6918 -0.1269
   95CHL1   C27 9507   4.195   3.700   8.199 -0.5919  0.4478 -0.4092
   95CHL1  H27A 9508   4.115   3.776   8.190 -0.7735  0.1094 -1.9903
   95CHL1  H27B 9509   4.154   3.603   8.234 -1.0583  0.9994  0.6170
   95CHL1  H27C 9510   4.272   3.725   8.276  0.4077 -3.4723  0.1072
   96CHL1    C3 9511   4.625   3.113   6.600 -0.4116 -0.9014 -0.3739
   96CHL1    H3 9512   4.568   3.208   6.588 -0.9257 -1.3402 -1.6073
   96CHL1    O3 9513   4.655   3.072   6.468 -0.0664 -0.2753  0.4677
   96CHL1   H3' 9514   4.599   3.001   6.435  2.6910 -1.8443 -1.2245
   96CHL1    C4 9515   4.754   3.135   6.673 -0.9528  0.0400 -0.2484
   96CHL1   H4A 9516   4.813   3.041   6.661 -2.3869 -0.9486  0.2104
   96CHL1   H4B 9517   4.810   3.214   6.618  0.8363  0.6889  2.3287
   96CHL1    C5 9518   4.739   3.156   6.821 -0.3950  0.0534  0.3079
   96CHL1    C6 9519   4.780   3.267   6.873 -1.2833  0.4556 -0.6733
   96CHL1    H6 9520   4.824   3.348   6.814 -0.1464 -0.6109 -1.3377
   96CHL1    C7 9521   4.775   3.292   7.023  0.0341  0.2865 -0.1953
   96CHL1   H7A 9522   4.864   3.347   7.060 -0.2631  0.5553  0.1364
   96CHL1   H7B 9523   4.686   3.359   7.032  0.9292  1.3677  1.1773
   96CHL1    C8 9524   4.747   3.158   7.101  0.2502 -0.1875 -0.4060
   96CHL1    H8 9525   4.844   3.103   7.096  1.2716  1.3418  1.2642
   96CHL1   C14 9526   4.704   3.194   7.244  1.2255 -0.1317  0.1019
   96CHL1   H14 9527   4.609   3.249   7.230  1.1666  0.0042  0.9506
   96CHL1   C15 9528   4.787   3.284   7.335 -0.2364 -0.4844  0.5514
   96CHL1  H15A 9529   4.892   3.255   7.311 -0.9214 -2.0109 -0.8162
   96CHL1  H15B 9530   4.761   3.381   7.289 -1.8293 -2.4105 -3.0123
   96CHL1   C16 9531   4.729   3.273   7.471 -0.0962 -0.0043  0.1473
   96CHL1  H16A 9532   4.815   3.260   7.539 -0.5441  0.6854  0.8612
   96CHL1  H16B 9533   4.674   3.367   7.494 -0.3496 -0.0101 -0.4103
   96CHL1   C17 9534   4.632   3.154   7.470  1.0951 -0.3466 -0.6321
   96CHL1   H17 9535   4.532   3.196   7.446  1.1650  0.3908  0.3025
   96CHL1   C13 9536   4.667   3.079   7.340 -0.1141 -0.0277 -0.0494
   96CHL1   C18 9537   4.801   3.003   7.372  0.2081  0.0242  0.0632
   96CHL1  H18A 9538   4.777   2.906   7.421 -3.6080 -0.2712 -2.0087
   96CHL1  H18B 9539   4.847   2.971   7.276 -2.9366 -2.5592 -0.7649
   96CHL1  H18C 9540   4.872   3.067   7.428 -0.6744 -0.6869  2.1035
   96CHL1   C12 9541   4.554   2.994   7.275  0.2534 -0.2178 -0.8078
   96CHL1  H12A 9542   4.553   2.898   7.331  1.0478  0.1371 -0.1530
   96CHL1  H12B 9543   4.467   3.062   7.266  0.4894  0.1739 -0.1717
   96CHL1   C11 9544   4.599   2.957   7.130  0.7153 -0.0179 -0.7845
   96CHL1  H11A 9545   4.685   2.887   7.133 -1.5979 -3.0366  0.2286
   96CHL1  H11B 9546   4.514   2.906   7.081  0.0069 -1.8253  2.0496
   96CHL1    C9 9547   4.636   3.077   7.045  0.0827  0.1682 -0.1152
   96CHL1    H9 9548   4.545   3.139   7.051 -2.2128 -2.9068 -0.4221
   96CHL1   C10 9549   4.661   3.046   6.893  0.1930 -0.5820  1.1001
   96CHL1   C19 9550   4.751   2.912   6.883  0.3639 -0.5488  0.1303
   96CHL1  H19A 9551   4.697   2.824   6.924 -0.7116 -0.4332 -0.9544
   96CHL1  H19B 9552   4.787   2.884   6.781  0.7985  1.7815 -0.4188
   96CHL1  H19C 9553   4.831   2.929   6.957 -0.3243  3.6426  0.1470
   96CHL1    C1 9554   4.521   3.033   6.821 -0.5565 -0.3775 -0.1175
   96CHL1   H1A 9555   4.465   2.959   6.881  1.1573 -1.1855  0.5690
   96CHL1   H1B 9556   4.469   3.131   6.820  1.6799  0.9372 -2.5870
   96CHL1    C2 9557   4.539   3.000   6.664  0.2800 -0.3986 -0.0454
   96CHL1   H2A 9558   4.439   3.006   6.617  0.6420 -2.4507 -1.1823
   96CHL1   H2B 9559   4.590   2.905   6.639  0.9169  0.3645 -1.7706
   96CHL1   C20 9560   4.630   3.097   7.613 -0.1917  1.0241 -0.1874
   96CHL1   H20 9561   4.737   3.067   7.625 -0.4640  0.2685  0.3732
   96CHL1   C21 9562   4.541   2.966   7.606  0.3015  0.3860 -0.2045
   96CHL1  H21A 9563   4.581   2.890   7.535 -0.0818  0.4633 -0.5070
   96CHL1  H21B 9564   4.440   2.990   7.568 -0.0984  0.3321  0.7949
   96CHL1  H21C 9565   4.517   2.921   7.705  0.5492 -1.0735 -0.7803
   96CHL1   C22 9566   4.609   3.197   7.725 -0.1176 -0.0718  0.3368
   96CHL1  H22A 9567   4.702   3.257   7.735 -1.5282  2.3570 -0.4886
   96CHL1  H22B 9568   4.520   3.258   7.701 -0.6326 -0.6357  0.8019
   96CHL1   C23 9569   4.579   3.141   7.868 -0.4837 -0.4030 -0.1684
   96CHL1  H23A 9570   4.472   3.111   7.869 -0.9778  1.2724  0.3894
   96CHL1  H23B 9571   4.637   3.049   7.889  0.7626  1.0773  3.5408
   96CHL1   C24 9572   4.599   3.244   7.977  0.0963  0.1755 -0.1068
   96CHL1  H24A 9573   4.702   3.284   7.972  0.6913 -1.4105 -2.8278
   96CHL1  H24B 9574   4.528   3.328   7.959  0.2279  0.4392  0.6015
   96CHL1   C25 9575   4.588   3.192   8.118 -0.2957  0.5337 -0.8291
   96CHL1   H25 9576   4.501   3.124   8.118  0.2931 -0.2308 -0.7875
   96CHL1   C26 9577   4.707   3.103   8.146 -0.0236 -0.1530 -0.1641
   96CHL1  H26A 9578   4.691   3.041   8.237 -1.3642 -1.2444 -1.1029
   96CHL1  H26B 9579   4.735   3.023   8.075  0.2876 -0.7849  0.6543
   96CHL1  H26C 9580   4.793   3.172   8.161 -2.0757  2.6556 -0.4551
   96CHL1   C27 9581   4.575   3.301   8.230 -0.2996  0.0483  0.4278
   96CHL1  H27A 9582   4.529   3.256   8.320 -1.2418  0.2070  0.0309
   96CHL1  H27B 9583   4.680   3.335   8.243 -0.8266  1.6499  0.7527
   96CHL1  H27C 9584   4.515   3.387   8.194  1.0017  0.1934 -1.5970
   97OSM      N 9585   2.067   3.174  11.277 -0.3437  0.1949  0.0058
   97OSM    C15 9586   2.141   3.078  11.365  0.7513 -0.0180  0.6783
   97OSM   H15A 9587   2.212   3.137  11.420  1.4177  0.0048 -0.1886
   97OSM   H15B 9588   2.205   3.012  11.309  1.3895 -0.2727  1.6728
   97OSM   H15C 9589   2.084   3.020  11.437 -0.2396  0.4791  0.3159
   97OSM    C14 9590   1.980   3.277  11.351  0.1887  0.3968 -0.2249
   97OSM   H14A 9591   1.902   3.222  11.403  0.2721  0.0064 -0.5158
   97OSM   H14B 9592   1.942   3.354  11.286 -0.0342  0.0085 -0.5569
   97OSM   H14C 9593   2.029   3.336  11.428 -1.8068 -0.0376  1.4809
   97OSM    C13 9594   2.174   3.246  11.204 -0.2747  0.0915  0.0269
   97OSM   H13A 9595   2.249   3.177  11.167  0.1646  0.3478  0.4109
   97OSM   H13B 9596   2.226   3.315  11.270  1.5779 -2.2345  1.1871
   97OSM   H13C 9597   2.144   3.296  11.114 -0.9315 -2.0480 -1.0112
   97OSM    C12 9598   1.977   3.098  11.183  0.4467  0.2156 -0.2088
   97OSM   H12A 9599   1.922   3.028  11.243  1.7753 -0.1006  0.6775
   97OSM   H12B 9600   2.037   3.024  11.131 -1.8040 -1.9266  0.0719
   97OSM    C11 9601   1.898   3.178  11.079  0.3884 -0.4017 -0.0376
   97OSM   H11A 9602   1.866   3.101  11.006  2.9011 -0.1005 -1.5741
   97OSM   H11B 9603   1.973   3.244  11.030  0.2518  0.6312  1.0939
   97OSM      P 9604   1.741   3.399  11.082 -0.2732 -0.0696 -0.7785
   97OSM    O13 9605   1.621   3.443  11.160 -0.3998 -0.6914  0.5604
   97OSM    O14 9606   1.857   3.492  11.069 -0.1000 -0.4843  0.1175
   97OSM    O11 9607   1.709   3.352  10.939 -0.1843  0.5020  0.8501
   97OSM    O12 9608   1.793   3.257  11.140 -0.0076 -0.0005  0.3505
   97OSM    C1S 9609   1.641   3.443  10.847  0.8189  0.1923  0.0819
   97OSM    H1S 9610   1.686   3.544  10.852  1.0499  0.0440  1.1996
   97OSM    H1T 9611   1.534   3.447  10.875  0.7351 -1.7937  0.1907
   97OSM     NF 9612   1.586   3.500  10.615 -0.0083  0.5791  0.4240
   97OSM    HNF 9613   1.488   3.495  10.596 -0.6958 -1.6017  3.5881
   97OSM    C2S 9614   1.642   3.394  10.701 -0.3009  0.4700 -0.5866
   97OSM    H2S 9615   1.747   3.370  10.672 -1.0127 -2.6059 -0.9695
   97OSM    C3S 9616   1.565   3.260  10.688  0.6134 -0.4008  0.1707
   97OSM    H3S 9617   1.463   3.276  10.727 -0.6529  1.8429 -3.5478
   97OSM     O3 9618   1.626   3.156  10.763  0.3437 -0.0254 -0.3511
   97OSM    HO3 9619   1.706   3.191  10.804 -0.4688  0.3796  0.9658
   97OSM    C4S 9620   1.541   3.208  10.548  0.0207  0.3224 -0.0400
   97OSM    H4S 9621   1.637   3.181  10.502  0.8642  1.3901  1.0008
   97OSM    C5S 9622   1.428   3.207  10.476  0.0531 -0.3192 -0.2873
   97OSM    H5S 9623   1.333   3.243  10.519 -1.5410 -1.0705 -2.9902
   97OSM    C6S 9624   1.413   3.160  10.336 -0.1657 -0.7807 -0.1897
   97OSM    H6S 9625   1.398   3.259  10.287 -2.9978 -0.8331  0.3719
   97OSM    H6T 9626   1.320   3.100  10.335  0.8889 -2.4599 -0.6157
   97OSM    C7S 9627   1.533   3.087  10.279 -0.1899 -0.3801 -0.0242
   97OSM    H7S 9628   1.559   3.001  10.345  1.5772  0.5163  0.5254
   97OSM    H7T 9629   1.621   3.150  10.253 -0.6900  0.1591 -0.4231
   97OSM    C8S 9630   1.496   3.015  10.142 -0.0489  0.1054  0.2698
   97OSM    H8S 9631   1.404   2.955  10.158 -1.2959  2.2417  1.6803
   97OSM    H8T 9632   1.581   2.948  10.117 -0.3737  0.1032 -0.8794
   97OSM    C9S 9633   1.461   3.099  10.031  0.5123  0.0406 -0.1851
   97OSM    H9S 9634   1.554   3.149   9.996  1.5742 -1.4143  0.4847
   97OSM    H9T 9635   1.382   3.176  10.048  0.2868 -0.3398  0.5140
   97OSM   C10S 9636   1.407   3.018   9.909  0.3696  0.0909 -0.8051
   97OSM   H10S 9637   1.374   3.097   9.838 -0.8393  1.5499  1.2934
   97OSM   H10T 9638   1.318   2.956   9.933  1.8241 -1.8238 -0.0643
   97OSM   C11S 9639   1.510   2.924   9.834 -0.0918 -0.5141 -0.1297
   97OSM   H11S 9640   1.535   2.842   9.904 -2.3932  0.0168  1.4368
   97OSM   H11T 9641   1.598   2.990   9.819 -1.1780  1.7625  2.5940
   97OSM   C12S 9642   1.467   2.882   9.695  0.3209  0.0248 -0.2204
   97OSM   H12S 9643   1.417   2.964   9.640  1.7083  0.9428 -0.1673
   97OSM   H12T 9644   1.391   2.801   9.702 -0.7493  1.0039 -0.2120
   97OSM   C13S 9645   1.584   2.841   9.606 -0.5424 -0.5680 -0.1488
   97OSM   H13S 9646   1.635   2.752   9.648 -2.2733 -1.0263  1.1059
   97OSM   H13T 9647   1.653   2.927   9.594 -0.3045 -0.7532 -0.1193
   97OSM   C14S 9648   1.524   2.808   9.468 -0.6607 -0.5255  0.4865
   97OSM   H14S 9649   1.476   2.892   9.413  0.7426 -1.0606 -1.6975
   97OSM   H14T 9650   1.446   2.733   9.493 -0.1955 -1.4582 -0.7505
   97OSM   C15S 9651   1.624   2.737   9.375 -0.3071  0.3484 -0.1426
   97OSM   H15S 9652   1.560   2.698   9.294  1.3523  1.6408 -2.1724
   97OSM   H15T 9653   1.683   2.658   9.426  0.1003 -0.5509 -1.9464
   97OSM   C16S 9654   1.716   2.833   9.300  0.2764 -0.5445 -0.6562
   97OSM   H16S 9655   1.782   2.885   9.373 -0.0335 -0.5076 -0.4001
   97OSM   H16T 9656   1.654   2.909   9.246  1.1946  1.9544  1.5800
   97OSM   C17S 9657   1.802   2.758   9.192 -0.1665  0.9281 -0.2928
   97OSM   H17S 9658   1.729   2.696   9.135 -0.3867  1.7372 -0.9139
   97OSM   H17T 9659   1.879   2.691   9.234 -0.7938  0.2920 -0.1368
   97OSM   C18S 9660   1.876   2.852   9.107 -0.7370 -0.4950  0.0051
   97OSM   H18S 9661   1.896   2.944   9.166  0.2321 -0.2770 -0.6379
   97OSM   H18T 9662   1.816   2.881   9.018 -0.1242  0.6298 -0.0600
   97OSM   H18U 9663   1.971   2.806   9.070 -1.1612 -0.6263 -0.9562
   97OSM    C1F 9664   1.658   3.606  10.588 -0.6585  0.6241 -0.1183
   97OSM     OF 9665   1.778   3.599  10.617 -0.0989 -0.3974 -0.3771
   97OSM    C2F 9666   1.607   3.726  10.523 -0.1013 -0.3481 -1.2136
   97OSM    H2F 9667   1.579   3.799  10.601 -0.5157 -0.2070 -1.4939
   97OSM    H2G 9668   1.509   3.710  10.474 -1.0022  1.0452  0.0586
   97OSM    C3F 9669   1.707   3.796  10.428 -0.8081 -0.6115  0.3926
   97OSM    H3F 9670   1.792   3.822  10.495 -0.5470 -1.9270  0.5883
   97OSM    H3G 9671   1.655   3.890  10.398 -0.5021  0.3189  2.5770
   97OSM    C4F 9672   1.745   3.722  10.303 -0.1709 -1.3032  0.5525
   97OSM    H4F 9673   1.806   3.630  10.315  1.3682 -0.0471  3.4943
   97OSM    H4G 9674   1.803   3.788  10.235  1.7251 -2.6972  0.7502
   97OSM    C5F 9675   1.612   3.686  10.232 -0.0008 -0.4288  0.7227
   97OSM    H5F 9676   1.549   3.775  10.213  1.0387 -0.0725 -1.2920
   97OSM    H5G 9677   1.552   3.622  10.301 -0.5824 -0.7850 -0.1088
   97OSM    C6F 9678   1.638   3.600  10.106  1.0590 -0.0068 -0.1394
   97OSM    H6F 9679   1.698   3.511  10.134 -0.1718 -0.8865 -0.1832
   97OSM    H6G 9680   1.702   3.659  10.037  0.9128  1.4889  0.9654
   97OSM    C7F 9681   1.507   3.537  10.048  0.2063 -0.2567 -0.1471
   97OSM    H7F 9682   1.426   3.609  10.022 -0.8227 -0.7477  1.5190
   97OSM    H7G 9683   1.458   3.477  10.128  0.2847  0.6754  0.6190
   97OSM    C8F 9684   1.526   3.441   9.939 -0.0007 -0.4295  0.3648
   97OSM    H8F 9685   1.425   3.398   9.924  0.3132 -1.2738  0.6157
   97OSM    H8G 9686   1.598   3.360   9.965  0.6101  0.2398  0.8377
   97OSM    C9F 9687   1.581   3.516   9.816 -0.3563  0.2703  0.4372
   97OSM    H9F 9688   1.582   3.626   9.812  2.8647  0.3920  1.5677
   97OSM   C10F 9689   1.642   3.465   9.709 -0.1010 -0.3472 -0.3506
   97OSM   H10F 9690   1.699   3.527   9.638  3.1180 -2.8835 -0.2208
   97OSM   C11F 9691   1.678   3.316   9.687 -0.2835  0.3629  0.4437
   97OSM   H11F 9692   1.716   3.294   9.585 -1.1222  0.8458  0.0174
   97OSM   H11G 9693   1.582   3.261   9.691 -0.9500  1.1817 -2.1461
   97OSM   C12F 9694   1.775   3.246   9.787  0.0463 -0.5100 -0.4870
   97OSM   H12F 9695   1.781   3.139   9.759 -2.8363 -0.8185 -0.2895
   97OSM   H12G 9696   1.742   3.244   9.893 -0.9257 -1.9223 -0.7803
   97OSM   C13F 9697   1.914   3.317   9.785 -0.1451 -0.2101 -0.5416
   97OSM   H13F 9698   1.901   3.415   9.836 -1.1302  1.5009 -3.8331
   97OSM   H13G 9699   1.931   3.341   9.678  1.7872  1.9233  0.1700
   97OSM   C14F 9700   2.020   3.223   9.846 -0.0871  0.3336  0.8931
   97OSM   H14F 9701   2.117   3.277   9.845  0.5844 -0.8269  0.1223
   97OSM   H14G 9702   2.028   3.132   9.781 -2.2292  2.8351 -3.2834
   97OSM   C15F 9703   1.999   3.162   9.985 -0.4227  0.3167 -0.0643
   97OSM   H15F 9704   2.097   3.118  10.016  0.0123  0.8600 -0.6426
   97OSM   H15G 9705   1.927   3.078   9.982 -1.0165  0.8474 -0.8657
   97OSM   C16F 9706   1.951   3.247  10.102  1.1351 -0.6084 -0.1674
   97OSM   H16F 9707   1.866   3.314  10.076  1.8550  0.4141  0.0445
   97OSM   H16G 9708   2.041   3.308  10.126  0.3766  0.9664 -1.1711
   97OSM   C17F 9709   1.919   3.177  10.233 -0.4332 -0.2379  0.1692
   97OSM   H17F 9710   1.987   3.090  10.246 -2.2740 -1.4732  2.3896
   97OSM   H17G 9711   1.814   3.143  10.216 -0.7947  0.8591  0.1419
   97OSM   C18F 9712   1.927   3.260  10.360 -0.5115  0.6410 -0.7321
   97OSM   H18F 9713   1.888   3.209  10.450  0.2871  1.7897  0.3019
   97OSM   H18G 9714   1.875   3.357  10.345  2.0393  1.9968 -1.5682
   97OSM   H18H 9715   2.031   3.297  10.379  0.1161 -1.5062  0.2725
   98OSM      N 9716   1.583   2.801  11.070  0.3415  0.0360  0.5070
   98OSM    C15 9717   1.692   2.739  11.158  0.3240  0.2392  0.2702
   98OSM   H15A 9718   1.748   2.820  11.203 -0.5124  1.7658 -1.2810
   98OSM   H15B 9719   1.756   2.682  11.092 -2.7286 -2.6170 -0.4683
   98OSM   H15C 9720   1.654   2.664  11.226  0.4108 -0.1352 -0.0921
   98OSM    C14 9721   1.478   2.853  11.154 -0.1269 -0.0909 -0.0487
   98OSM   H14A 9722   1.499   2.936  11.220 -0.7356  0.4572 -0.5253
   98OSM   H14B 9723   1.436   2.772  11.211  0.6261 -1.5201 -1.4265
   98OSM   H14C 9724   1.400   2.896  11.093 -0.3088  1.9580  1.5001
   98OSM    C13 9725   1.634   2.909  10.982  0.1533  0.4413  0.1323
   98OSM   H13A 9726   1.563   2.986  10.957  1.0547  0.6376 -1.9921
   98OSM   H13B 9727   1.684   2.868  10.896 -0.1540 -0.4162  0.3446
   98OSM   H13C 9728   1.706   2.962  11.042 -2.1015  0.8759  2.6356
   98OSM    C12 9729   1.527   2.691  10.976  0.5954  0.1814  0.7837
   98OSM   H12A 9730   1.447   2.725  10.912  2.2820  0.8671 -1.0567
   98OSM   H12B 9731   1.480   2.620  11.043 -3.2918  0.1136 -1.7526
   98OSM    C11 9732   1.628   2.623  10.882  0.4687 -0.3142  0.4791
   98OSM   H11A 9733   1.663   2.700  10.811 -0.2083  0.2643  0.7557
   98OSM   H11B 9734   1.567   2.549  10.826  1.5809 -0.1833 -0.9556
   98OSM      P 9735   1.875   2.543  10.871  0.0428  0.5782  0.0203
   98OSM    O13 9736   1.934   2.677  10.878 -0.2575 -0.0741  0.2351
   98OSM    O14 9737   1.947   2.427  10.933  0.4978  0.9013  0.2897
   98OSM    O11 9738   1.833   2.503  10.724 -0.1008 -0.2430  0.7828
   98OSM    O12 9739   1.736   2.558  10.952  0.0328  0.2381  0.7931
   98OSM    C1S 9740   1.788   2.365  10.708  1.0207  1.5347  0.3086
   98OSM    H1S 9741   1.688   2.356  10.755  1.2020  1.1990  0.6351
   98OSM    H1T 9742   1.864   2.290  10.738 -0.0179  1.0564  1.8602
   98OSM     NF 9743   1.725   2.188  10.540 -0.5041  0.2378  0.2005
   98OSM    HNF 9744   1.793   2.115  10.549  1.2362  1.8160  0.3073
   98OSM    C2S 9745   1.774   2.326  10.555  0.2123 -0.2349  0.4787
   98OSM    H2S 9746   1.704   2.390  10.497 -1.2337 -0.1563  2.2138
   98OSM    C3S 9747   1.907   2.351  10.486 -0.1849  0.1276 -0.2657
   98OSM    H3S 9748   1.980   2.286  10.539 -2.0961  0.1876  2.7289
   98OSM     O3 9749   1.961   2.484  10.490 -0.2064  0.0103 -0.2583
   98OSM    HO3 9750   1.913   2.530  10.560 -0.8261  0.9418 -1.2624
   98OSM    C4S 9751   1.910   2.312  10.339  0.1349  0.2701 -0.5731
   98OSM    H4S 9752   1.830   2.353  10.275 -0.2857 -0.0705 -0.2723
   98OSM    C5S 9753   1.990   2.213  10.296  0.4718 -0.3007 -0.4071
   98OSM    H5S 9754   2.068   2.170  10.361  0.0539  0.0904  0.3623
   98OSM    C6S 9755   1.995   2.152  10.160 -0.0036  0.4902 -0.4295
   98OSM    H6S 9756   1.963   2.046  10.155  0.5010  0.3582 -1.1989
   98OSM    H6T 9757   2.101   2.138  10.129  0.6647  1.8806  1.1224
   98OSM    C7S 9758   1.927   2.238  10.049  0.0294  0.0606  0.0857
   98OSM    H7S 9759   1.953   2.345  10.043  0.6479 -0.1277 -0.7494
   98OSM    H7T 9760   1.816   2.242  10.059 -0.0026 -1.3660  0.6301
   98OSM    C8S 9761   1.965   2.184   9.912 -0.1941  0.7439  0.0726
   98OSM    H8S 9762   1.911   2.087   9.902 -1.2656  1.4684 -1.5361
   98OSM    H8T 9763   2.075   2.171   9.904 -0.2445 -0.4344  0.9686
   98OSM    C9S 9764   1.913   2.275   9.800  0.3316 -0.3457 -0.0543
   98OSM    H9S 9765   1.962   2.373   9.818 -0.0554 -0.0723 -0.4786
   98OSM    H9T 9766   1.806   2.303   9.807  0.1417 -0.8845 -0.7141
   98OSM   C10S 9767   1.927   2.217   9.660 -0.2482  0.4723 -0.1514
   98OSM   H10S 9768   1.865   2.127   9.639  1.6689 -0.5739 -1.7836
   98OSM   H10T 9769   2.032   2.180   9.658  0.1476  1.5978 -1.5370
   98OSM   C11S 9770   1.905   2.306   9.547 -0.2603  0.4423  0.1942
   98OSM   H11S 9771   1.991   2.377   9.546  0.3185 -0.2492 -1.0323
   98OSM   H11T 9772   1.811   2.366   9.550 -0.5270  0.0890 -0.6815
   98OSM   C12S 9773   1.896   2.232   9.408  0.0537  0.2056 -0.5364
   98OSM   H12S 9774   1.842   2.136   9.423  0.9420 -0.1207  0.7835
   98OSM   H12T 9775   2.001   2.199   9.391 -0.6785 -2.1165 -1.0394
   98OSM   C13S 9776   1.848   2.313   9.288  0.2743  0.2038 -0.3968
   98OSM   H13S 9777   1.920   2.390   9.253  1.4007 -1.2715 -1.4542
   98OSM   H13T 9778   1.759   2.368   9.324  0.2707  0.7154 -1.1588
   98OSM   C14S 9779   1.819   2.226   9.167  0.2518 -0.2218  0.4033
   98OSM   H14S 9780   1.745   2.144   9.182  0.2911 -0.4281 -0.4991
   98OSM   H14T 9781   1.913   2.175   9.135  0.0735  0.0284 -0.5581
   98OSM   C15S 9782   1.778   2.308   9.050 -0.2397 -0.0147 -1.0571
   98OSM   H15S 9783   1.758   2.237   8.967 -0.5735  1.0430 -1.9043
   98OSM   H15T 9784   1.852   2.380   9.011  0.3155  1.9319  2.9922
   98OSM   C16S 9785   1.645   2.392   9.067  0.2396  1.5797 -0.0020
   98OSM   H16S 9786   1.650   2.468   9.148 -1.7945  0.1126  1.5990
   98OSM   H16T 9787   1.565   2.323   9.102  0.4437  0.6941 -1.2249
   98OSM   C17S 9788   1.598   2.466   8.943 -0.5977  0.1648  0.5548
   98OSM   H17S 9789   1.663   2.555   8.930 -1.7250  0.9154 -0.0614
   98OSM   H17T 9790   1.510   2.523   8.978 -0.7003  1.1382 -1.1858
   98OSM   C18S 9791   1.567   2.391   8.818  0.4668 -0.4053  0.2671
   98OSM   H18S 9792   1.510   2.299   8.839 -1.6106  0.7977  0.2158
   98OSM   H18T 9793   1.655   2.368   8.754 -0.5682  3.6984 -3.2035
   98OSM   H18U 9794   1.500   2.456   8.757  1.9002  1.5396  0.6329
   98OSM    C1F 9795   1.598   2.147  10.556  0.2385 -0.1908  0.0329
   98OSM     OF 9796   1.513   2.232  10.575 -0.1621 -0.3362  0.7226
   98OSM    C2F 9797   1.575   1.999  10.550 -0.9566  0.5651 -0.6136
   98OSM    H2F 9798   1.572   1.967  10.656 -1.2398  2.5682  0.0067
   98OSM    H2G 9799   1.664   1.950  10.503 -0.2869 -2.1985  3.0768
   98OSM    C3F 9800   1.438   1.948  10.493 -0.3019 -0.2185  0.3981
   98OSM    H3F 9801   1.360   2.018  10.531 -0.3002 -0.7507  1.4037
   98OSM    H3G 9802   1.415   1.846  10.531  0.3574 -0.9840 -1.1653
   98OSM    C4F 9803   1.432   1.950  10.336 -0.0663 -0.2074 -0.4565
   98OSM    H4F 9804   1.424   2.054  10.300 -1.1447 -0.7930 -2.0250
   98OSM    H4G 9805   1.336   1.904  10.302  0.4551 -2.2644  0.7007
   98OSM    C5F 9806   1.558   1.883  10.277  0.4205  0.0941 -0.2392
   98OSM    H5F 9807   1.566   1.788  10.335  3.3591 -0.2059 -1.0234
   98OSM    H5G 9808   1.646   1.946  10.298  2.9668 -2.0105 -3.6163
   98OSM    C6F 9809   1.553   1.863  10.126 -0.1208 -0.2572  0.9648
   98OSM    H6F 9810   1.517   1.959  10.083 -0.0866 -1.2189 -1.3769
   98OSM    H6G 9811   1.473   1.787  10.116  0.2945 -0.7964  1.6061
   98OSM    C7F 9812   1.682   1.812  10.058 -0.3523 -0.0346 -0.1227
   98OSM    H7F 9813   1.716   1.727  10.122 -2.0630  0.1937  1.1713
   98OSM    H7G 9814   1.762   1.885  10.078 -0.4012 -0.4787  1.9358
   98OSM    C8F 9815   1.662   1.793   9.908  0.2604  0.6307  0.2257
   98OSM    H8F 9816   1.584   1.717   9.885 -0.8604  2.0312 -0.7193
   98OSM    H8G 9817   1.760   1.763   9.866  0.6108 -1.1522  2.1178
   98OSM    C9F 9818   1.627   1.926   9.844 -0.4147 -0.6747  0.3978
   98OSM    H9F 9819   1.708   2.000   9.852  0.2736 -1.3257 -0.4288
   98OSM   C10F 9820   1.519   1.942   9.769 -0.0707 -0.4361 -0.4886
   98OSM   H10F 9821   1.507   2.036   9.713  0.2613 -1.2283 -1.9366
   98OSM   C11F 9822   1.404   1.845   9.744 -0.6130 -0.2092  0.8383
   98OSM   H11F 9823   1.314   1.908   9.760 -0.7992 -0.0552 -0.6871
   98OSM   H11G 9824   1.405   1.748   9.798 -0.4598 -2.0910 -2.2911
   98OSM   C12F 9825   1.403   1.826   9.590  0.7152 -0.1397  0.0818
   98OSM   H12F 9826   1.384   1.926   9.546 -2.4641 -0.0476  1.3899
   98OSM   H12G 9827   1.306   1.775   9.573  0.0265  1.0310  0.4291
   98OSM   C13F 9828   1.528   1.765   9.536 -0.3662  0.1099  0.2184
   98OSM   H13F 9829   1.549   1.678   9.601 -0.4356 -0.8671 -1.0390
   98OSM   H13G 9830   1.614   1.837   9.541 -0.0158 -0.1640 -1.3822
   98OSM   C14F 9831   1.508   1.752   9.387 -0.4140  0.6117  0.3420
   98OSM   H14F 9832   1.401   1.730   9.371  0.2970 -1.7187 -1.8670
   98OSM   H14G 9833   1.558   1.663   9.344 -1.4685 -0.1953  0.7515
   98OSM   C15F 9834   1.536   1.879   9.307  0.8929  0.2300 -0.1086
   98OSM   H15F 9835   1.645   1.900   9.314  0.7535  1.1998 -0.7526
   98OSM   H15G 9836   1.487   1.971   9.345 -2.3615 -0.8752 -1.2900
   98OSM   C16F 9837   1.511   1.862   9.157  0.4176 -0.5840  0.1178
   98OSM   H16F 9838   1.547   1.951   9.102  2.2412 -1.6177 -0.4268
   98OSM   H16G 9839   1.402   1.865   9.132  0.6096 -2.0558 -1.0332
   98OSM   C17F 9840   1.580   1.742   9.100  0.1311 -0.4595 -0.3230
   98OSM   H17F 9841   1.539   1.646   9.137 -0.1693  0.6101  2.3666
   98OSM   H17G 9842   1.685   1.753   9.134 -0.7240  1.5474  2.0519
   98OSM   C18F 9843   1.563   1.738   8.950 -0.1048 -0.3447 -0.5130
   98OSM   H18F 9844   1.604   1.834   8.914  1.5632 -0.6135  0.5575
   98OSM   H18G 9845   1.454   1.727   8.931 -0.5727  0.6235  1.3146
   98OSM   H18H 9846   1.620   1.656   8.901  1.7050  0.4591  0.1841
   99OSM      N 9847   4.099   4.899  11.125  0.5396 -0.5067 -0.4188
   99OSM    C15 9848   4.234   4.932  11.071  0.0791 -0.5958 -0.3806
   99OSM   H15A 9849   4.278   4.846  11.022  1.3173 -0.7842  0.9914
   99OSM   H15B 9850   4.297   4.970  11.150 -0.8026  0.5856 -0.2247
   99OSM   H15C 9851   4.210   5.008  10.998 -1.9988 -1.8566 -1.1132
   99OSM    C14 9852   4.111   4.797  11.226 -0.6073 -0.1457  0.1184
   99OSM   H14A 9853   4.167   4.712  11.188 -1.2727  0.1536 -1.6419
   99OSM   H14B 9854   4.012   4.769  11.259 -0.3003  3.0746  4.7005
   99OSM   H14C 9855   4.167   4.833  11.311  0.5048 -0.2799 -0.5364
   99OSM    C13 9856   4.037   5.019  11.197  0.7802  0.4108  0.4582
   99OSM   H13A 9857   4.105   5.060  11.271  1.9171  0.3206 -0.5028
   99OSM   H13B 9858   3.936   4.996  11.228  0.3525  0.9388 -0.5035
   99OSM   H13C 9859   4.033   5.103  11.130 -0.5727  0.6997  0.8832
   99OSM    C12 9860   4.018   4.850  11.007  0.0524 -0.5881  0.0265
   99OSM   H12A 9861   3.922   4.819  11.045 -0.3219  1.4977  0.9043
   99OSM   H12B 9862   4.080   4.767  10.974  2.6298  1.0275  0.5415
   99OSM    C11 9863   3.980   4.945  10.894 -0.0961 -0.2581  0.5450
   99OSM   H11A 9864   3.920   4.877  10.830  0.3549  1.6719 -2.0711
   99OSM   H11B 9865   4.063   4.967  10.823 -4.1628  1.6206 -4.1554
   99OSM      P 9866   3.758   5.083  10.906 -0.3472 -0.0373  0.2329
   99OSM    O13 9867   3.684   4.977  10.972 -0.0754 -0.1923 -0.1936
   99OSM    O14 9868   3.711   5.223  10.924 -0.2314  0.2494 -0.0186
   99OSM    O11 9869   3.756   5.049  10.755  0.0597 -0.2358  0.1163
   99OSM    O12 9870   3.914   5.068  10.933 -0.5344 -0.7343  0.0291
   99OSM    C1S 9871   3.632   5.014  10.698  0.2364 -0.3577  0.7941
   99OSM    H1S 9872   3.548   5.082  10.722 -1.5921 -1.7486 -1.2887
   99OSM    H1T 9873   3.600   4.912  10.729  0.9448 -1.4636 -1.7861
   99OSM     NF 9874   3.506   4.999  10.486 -0.7925  0.1044 -0.6711
   99OSM    HNF 9875   3.471   4.911  10.453 -2.4051  0.6579 -0.5310
   99OSM    C2S 9876   3.644   5.018  10.536 -0.4381  0.4066 -0.4672
   99OSM    H2S 9877   3.673   5.122  10.509 -2.4668  0.8225 -1.1920
   99OSM    C3S 9878   3.744   4.907  10.483 -0.7093  0.0418  0.1585
   99OSM    H3S 9879   3.712   4.803  10.502  0.7350 -0.2855  0.9420
   99OSM     O3 9880   3.872   4.907  10.546 -0.0114 -0.2494  0.2627
   99OSM    HO3 9881   3.862   4.964  10.622  3.9780  1.8867 -0.5383
   99OSM    C4S 9882   3.763   4.917  10.329  0.1811 -0.2586 -0.6334
   99OSM    H4S 9883   3.679   4.877  10.270 -0.9351 -0.9089  1.3072
   99OSM    C5S 9884   3.863   4.981  10.264  0.1634 -0.2571 -0.1821
   99OSM    H5S 9885   3.940   5.017  10.333 -1.3805  1.4464  0.7599
   99OSM    C6S 9886   3.891   5.008  10.117  0.4216  0.0718 -0.6912
   99OSM    H6S 9887   3.998   4.983  10.099  0.3164 -0.2367 -0.8847
   99OSM    H6T 9888   3.863   5.115  10.105  0.3067  0.1309  0.0845
   99OSM    C7S 9889   3.808   4.916  10.031  0.1415  0.0618  0.5323
   99OSM    H7S 9890   3.701   4.946  10.035  0.1512  0.1660  0.0911
   99OSM    H7T 9891   3.818   4.813  10.070 -0.5877  0.0254  0.6350
   99OSM    C8S 9892   3.862   4.929   9.884  0.9629 -0.7574  0.6231
   99OSM    H8S 9893   3.811   4.855   9.818 -0.1498 -0.5503  1.2307
   99OSM    H8T 9894   3.971   4.908   9.878  0.9352 -0.7133 -0.1800
   99OSM    C9S 9895   3.839   5.064   9.812  0.2805  0.0238  0.1884
   99OSM    H9S 9896   3.914   5.138   9.846  1.1021 -0.1696 -1.1446
   99OSM    H9T 9897   3.733   5.095   9.827  0.3275  0.1544  0.2445
   99OSM   C10S 9898   3.870   5.047   9.669  0.0156 -0.4991 -1.1798
   99OSM   H10S 9899   3.809   4.966   9.623  1.0050 -0.7222 -2.1377
   99OSM   H10T 9900   3.979   5.029   9.674  0.1477  0.2804 -1.1793
   99OSM   C11S 9901   3.863   5.177   9.592  0.7218  0.1883  0.0529
   99OSM   H11S 9902   3.915   5.263   9.640  0.5751  0.2764  0.0557
   99OSM   H11T 9903   3.754   5.200   9.595  0.8166  0.5916  1.8970
   99OSM   C12S 9904   3.914   5.149   9.449  0.5523 -0.1236 -1.1357
   99OSM   H12S 9905   4.008   5.090   9.442  1.8230  1.6823 -0.0318
   99OSM   H12T 9906   3.844   5.070   9.413 -0.8873 -0.2198  1.5492
   99OSM   C13S 9907   3.903   5.258   9.348  0.4872  0.2136 -0.3658
   99OSM   H13S 9908   3.972   5.338   9.383 -0.4619 -0.3296  3.1919
   99OSM   H13T 9909   3.803   5.307   9.355  0.1076 -0.3718 -1.4439
   99OSM   C14S 9910   3.936   5.215   9.203 -0.5031  0.8611 -0.3906
   99OSM   H14S 9911   4.033   5.163   9.211 -2.3098 -2.7104  0.1832
   99OSM   H14T 9912   3.947   5.302   9.134  2.0243  1.0934  0.2033
   99OSM   C15S 9913   3.838   5.119   9.139 -0.2556 -0.0388 -0.7677
   99OSM   H15S 9914   3.801   5.047   9.216 -3.2136  1.7868 -0.3108
   99OSM   H15T 9915   3.898   5.073   9.058  1.9983  0.4308  0.5527
   99OSM   C16S 9916   3.700   5.174   9.084 -0.3228  0.2017  0.0220
   99OSM   H16S 9917   3.652   5.235   9.164 -0.4079 -0.6171  0.6056
   99OSM   H16T 9918   3.634   5.086   9.063 -0.2496  0.1641 -0.0494
   99OSM   C17S 9919   3.721   5.257   8.954  0.2715  0.1398 -0.9489
   99OSM   H17S 9920   3.802   5.332   8.972  0.1015  0.7017 -2.4319
   99OSM   H17T 9921   3.631   5.317   8.929  0.5231  1.5064  1.1072
   99OSM   C18S 9922   3.762   5.167   8.837  0.1716 -0.7023  0.0466
   99OSM   H18S 9923   3.767   5.238   8.752  0.7034  0.3159  0.9073
   99OSM   H18T 9924   3.690   5.083   8.827 -2.0721  1.3665 -3.2173
   99OSM   H18U 9925   3.868   5.138   8.854  0.6236  1.0975  0.4226
   99OSM    C1F 9926   3.417   5.096  10.489  0.2042 -0.1033  0.4602
   99OSM     OF 9927   3.437   5.207  10.539  0.9680  0.1741 -0.0652
   99OSM    C2F 9928   3.285   5.064  10.424  0.0719  0.0874 -0.5235
   99OSM    H2F 9929   3.208   5.086  10.501 -0.1234 -1.6632 -0.1776
   99OSM    H2G 9930   3.266   4.955  10.407  1.7769 -0.4201  0.5797
   99OSM    C3F 9931   3.262   5.160  10.302 -0.6500  0.3253 -0.5526
   99OSM    H3F 9932   3.162   5.146  10.256 -0.9842 -0.3132  0.3433
   99OSM    H3G 9933   3.255   5.261  10.348 -0.7822 -0.2615  0.7633
   99OSM    C4F 9934   3.369   5.157  10.201 -0.0691 -0.2235 -0.2012
   99OSM    H4F 9935   3.384   5.056  10.157  0.9161  0.1215 -0.6822
   99OSM    H4G 9936   3.467   5.191  10.239  0.4598 -2.9524  1.1805
   99OSM    C5F 9937   3.352   5.261  10.087  0.2371  0.1680  0.3141
   99OSM    H5F 9938   3.376   5.366  10.115 -0.7315  0.4756  0.0219
   99OSM    H5G 9939   3.246   5.257  10.055  0.4896  2.8836 -1.1499
   99OSM    C6F 9940   3.446   5.225   9.967  0.9089 -0.7450 -0.1132
   99OSM    H6F 9941   3.480   5.120   9.984 -1.5103 -1.7269 -0.9295
   99OSM    H6G 9942   3.533   5.293   9.973 -0.2866  0.8209  0.0375
   99OSM    C7F 9943   3.382   5.242   9.830  0.6819 -0.1405 -0.5514
   99OSM    H7F 9944   3.332   5.342   9.827 -0.0886 -0.4109  1.3404
   99OSM    H7G 9945   3.292   5.178   9.842 -1.0957  2.2028 -0.4857
   99OSM    C8F 9946   3.469   5.207   9.707 -0.3542 -0.3693  0.1875
   99OSM    H8F 9947   3.494   5.099   9.715 -0.5235 -0.9091 -4.2118
   99OSM    H8G 9948   3.560   5.270   9.719 -0.0362 -0.9332  0.8013
   99OSM    C9F 9949   3.396   5.225   9.574 -0.1345  0.7643  1.0371
   99OSM    H9F 9950   3.317   5.150   9.557 -0.4021  1.0515  1.0020
   99OSM   C10F 9951   3.422   5.322   9.484 -0.1738  0.3907  0.2802
   99OSM   H10F 9952   3.354   5.324   9.397 -0.3566 -2.6213  0.2444
   99OSM   C11F 9953   3.521   5.438   9.497 -0.9103  0.4832  0.2767
   99OSM   H11F 9954   3.609   5.436   9.428 -0.9507  0.4458  0.2264
   99OSM   H11G 9955   3.561   5.451   9.600 -0.9750  0.2032  0.3384
   99OSM   C12F 9956   3.461   5.579   9.470  0.0102 -0.1348  0.6180
   99OSM   H12F 9957   3.427   5.592   9.365  0.6843 -1.2735  0.2457
   99OSM   H12G 9958   3.540   5.654   9.496 -0.0383  0.0779  0.1622
   99OSM   C13F 9959   3.329   5.614   9.554 -0.4037 -0.1927  0.5084
   99OSM   H13F 9960   3.255   5.532   9.545 -1.9285  1.1279  0.5092
   99OSM   H13G 9961   3.297   5.717   9.525  1.2349 -0.3203 -2.1302
   99OSM   C14F 9962   3.361   5.647   9.705 -0.0185 -0.0525  0.5872
   99OSM   H14F 9963   3.425   5.738   9.711 -0.8583  0.4552  2.3606
   99OSM   H14G 9964   3.419   5.563   9.749  0.3733  0.4885  1.1151
   99OSM   C15F 9965   3.228   5.668   9.784 -0.6172  0.5769  0.7285
   99OSM   H15F 9966   3.190   5.564   9.788 -1.7733  1.0079  1.5765
   99OSM   H15G 9967   3.159   5.738   9.732  2.3848  2.5574 -0.9626
   99OSM   C16F 9968   3.251   5.720   9.932  0.3698 -0.3185 -0.2204
   99OSM   H16F 9969   3.150   5.723   9.977  0.1166 -1.0271 -0.7165
   99OSM   H16G 9970   3.282   5.826   9.927 -0.2900 -0.0186  1.3847
   99OSM   C17F 9971   3.346   5.628  10.016  0.3420 -0.4168  0.3702
   99OSM   H17F 9972   3.438   5.611   9.955 -0.5000 -1.7339 -0.5794
   99OSM   H17G 9973   3.297   5.529  10.020 -0.3590 -0.1750 -1.2718
   99OSM   C18F 9974   3.385   5.674  10.156  0.4211  0.2558 -0.2886
   99OSM   H18F 9975   3.299   5.699  10.221  0.0351  0.7351 -0.9814
   99OSM   H18G 9976   3.452   5.762  10.160  0.8287 -0.0777  0.8611
   99OSM   H18H 9977   3.438   5.589  10.207  0.1522 -0.9755 -1.9795
  100OSM      N 9978   0.335   5.717  10.865  0.1541 -0.0096  0.0216
  100OSM    C15 9979   0.268   5.608  10.936 -0.2029 -0.0374  0.3272
  100OSM   H15A 9980   0.316   5.512  10.920 -1.0144 -0.4265  0.2000
  100OSM   H15B 9981   0.161   5.613  10.926 -0.1788 -0.3757 -0.1357
  100OSM   H15C 9982   0.292   5.632  11.039 -1.2910  1.1928  0.3165
  100OSM    C14 9983   0.283   5.721  10.724  0.1639  0.1693  1.1233
  100OSM   H14A 9984   0.178   5.744  10.722  0.1010 -0.0730  1.5768
  100OSM   H14B 9985   0.295   5.631  10.666 -1.4602  0.1930  0.7133
  100OSM   H14C 9986   0.326   5.802  10.668  0.7919 -0.2113  1.0481
  100OSM    C13 9987   0.303   5.842  10.938 -0.1371 -0.7925  0.3532
  100OSM   H13A 9988   0.342   5.928  10.885 -0.3354  0.7791  2.5824
  100OSM   H13B 9989   0.327   5.842  11.044 -0.6054 -2.4886  0.4834
  100OSM   H13C 9990   0.195   5.851  10.935 -0.2202 -1.8876 -0.6020
  100OSM    C12 9991   0.480   5.691  10.871 -0.1129  0.0076  0.2268
  100OSM   H12A 9992   0.511   5.693  10.975  0.5322  1.9284  0.0203
  100OSM   H12B 9993   0.540   5.771  10.832 -0.9261  0.3958 -0.2407
  100OSM    C11 9994   0.537   5.557  10.806  0.5631  0.3056 -0.0200
  100OSM   H11A 9995   0.646   5.540  10.822  0.4761 -0.1736  0.0686
  100OSM   H11B 9996   0.515   5.568  10.698  0.6076  0.8039  0.0161
  100OSM      P 9997   0.463   5.298  10.770 -0.3058 -0.0859  0.0619
  100OSM    O13 9998   0.580   5.215  10.800 -0.1714 -0.3669 -0.8543
  100OSM    O14 9999   0.336   5.236  10.803  0.1045  0.0244  0.3434
  100OSM    O1110000   0.473   5.339  10.616  0.3777  0.5113  0.3695
  100OSM    O1210001   0.477   5.437  10.855  0.0345  0.0474  0.5090
  100OSM    C1S10002   0.431   5.238  10.517  0.3844  0.4504  0.4766
  100OSM    H1S10003   0.323   5.210  10.520  0.9398 -1.7340  1.3180
  100OSM    H1T10004   0.489   5.144  10.521  1.9499  1.4093  1.0145
  100OSM     NF10005   0.418   5.193  10.278  0.1134  0.2947  0.1413
  100OSM    HNF10006   0.501   5.150  10.244  0.3673 -0.3352  1.4995
  100OSM    C2S10007   0.453   5.292  10.376  0.5594  0.1596  0.3098
  100OSM    H2S10008   0.379   5.375  10.371  0.6962  0.3216  0.8440
  100OSM    C3S10009   0.600   5.347  10.349  0.7368  0.5440  0.2817
  100OSM    H3S10010   0.671   5.262  10.359 -1.7771 -1.5273  1.5887
  100OSM     O310011   0.641   5.441  10.445 -1.0005  0.0185 -0.0257
  100OSM    HO310012   0.577   5.418  10.513 -3.4377  0.7609 -1.9262
  100OSM    C4S10013   0.608   5.417  10.218 -0.9266 -0.0223 -0.0957
  100OSM    H4S10014   0.583   5.522  10.237 -1.9629 -0.4626  1.1036
  100OSM    C5S10015   0.642   5.363  10.101 -1.4595  0.1133  0.9597
  100OSM    H5S10016   0.670   5.256  10.100  0.1546  0.5041  1.2849
  100OSM    C6S10017   0.661   5.454   9.988 -0.1877  0.3314 -0.4226
  100OSM    H6S10018   0.757   5.425   9.941 -0.6796 -1.2453 -0.4860
  100OSM    H6T10019   0.666   5.558  10.028 -1.9590  0.2022  0.2575
  100OSM    C7S10020   0.557   5.459   9.869 -0.5163 -0.8341  0.0924
  100OSM    H7S10021   0.570   5.551   9.809 -0.3652 -1.3918 -0.7486
  100OSM    H7T10022   0.458   5.462   9.920 -0.5324  0.7127  0.0267
  100OSM    C8S10023   0.561   5.330   9.783 -1.2442  0.4569 -0.2374
  100OSM    H8S10024   0.516   5.241   9.832 -1.3206  0.9126  0.5321
  100OSM    H8T10025   0.667   5.310   9.756 -1.6405 -1.7713 -0.3086
  100OSM    C9S10026   0.486   5.335   9.650 -0.1348 -0.6737  0.0434
  100OSM    H9S10027   0.479   5.228   9.620  0.2748 -0.5893 -0.3661
  100OSM    H9T10028   0.536   5.394   9.571 -0.6565 -0.2147  0.0503
  100OSM   C10S10029   0.344   5.386   9.653 -0.2820  0.4705 -0.1990
  100OSM   H10S10030   0.361   5.488   9.694  3.5108  0.6659 -1.8392
  100OSM   H10T10031   0.273   5.328   9.716  0.6897 -0.3918  0.1151
  100OSM   C11S10032   0.283   5.399   9.510  0.4346 -0.1179 -0.2112
  100OSM   H11S10033   0.367   5.439   9.449  0.8427  0.2376  0.5715
  100OSM   H11T10034   0.201   5.474   9.516 -0.2485 -0.7540 -1.2337
  100OSM   C12S10035   0.230   5.276   9.445  0.5496 -0.8065 -0.0639
  100OSM   H12S10036   0.136   5.252   9.498 -0.5219  2.8101 -0.0556
  100OSM   H12T10037   0.315   5.206   9.463  1.6685  0.2125 -1.1690
  100OSM   C13S10038   0.223   5.299   9.301 -0.3465 -0.0650  0.5221
  100OSM   H13S10039   0.316   5.342   9.258 -1.0892  0.3338 -0.7371
  100OSM   H13T10040   0.136   5.365   9.279 -0.6818 -0.7368 -0.2584
  100OSM   C14S10041   0.200   5.174   9.218 -0.2231 -0.2175  0.1818
  100OSM   H14S10042   0.125   5.096   9.244 -2.6087  1.4581 -1.2188
  100OSM   H14T10043   0.300   5.128   9.201  0.4116  1.3858 -0.5990
  100OSM   C15S10044   0.174   5.218   9.072 -0.0791 -0.4973 -0.3181
  100OSM   H15S10045   0.255   5.286   9.039 -0.0612 -0.4138 -0.1058
  100OSM   H15T10046   0.074   5.264   9.056 -0.2727 -0.7456  0.1433
  100OSM   C16S10047   0.177   5.094   8.980  0.4080 -0.4383  0.2446
  100OSM   H16S10048   0.075   5.051   8.990  0.4608 -0.5373  0.3671
  100OSM   H16T10049   0.234   5.009   9.025 -1.4101 -1.2724  1.0555
  100OSM   C17S10050   0.218   5.108   8.832 -0.0668  0.2341  0.4364
  100OSM   H17S10051   0.164   5.180   8.768 -0.3523 -0.7824 -0.4925
  100OSM   H17T10052   0.201   5.011   8.782  0.8907  0.8421 -1.1414
  100OSM   C18S10053   0.368   5.131   8.811 -0.4460 -0.4811 -1.0040
  100OSM   H18S10054   0.393   5.237   8.834  2.5863 -1.3153  0.0299
  100OSM   H18T10055   0.407   5.105   8.710  0.7324  1.0458 -0.9767
  100OSM   H18U10056   0.424   5.075   8.889  0.3381  2.1449  0.4544
  100OSM    C1F10057   0.304   5.128  10.269  0.3969 -1.0149  0.4846
  100OSM     OF10058   0.199   5.166  10.319  0.6531  0.1854 -0.6342
  100OSM    C2F10059   0.311   4.995  10.196 -0.0185 -0.1878 -0.2517
  100OSM    H2F10060   0.365   4.922  10.260 -1.2455 -0.7827  0.1300
  100OSM    H2G10061   0.385   5.015  10.116  0.6769  0.0418  0.4356
  100OSM    C3F10062   0.170   4.957  10.137 -0.4124 -0.1440  0.5784
  100OSM    H3F10063   0.105   4.944  10.225  0.9572  0.3750  1.7076
  100OSM    H3G10064   0.190   4.857  10.093  1.3511  0.5172 -0.2270
  100OSM    C4F10065   0.108   5.039  10.022 -0.7764 -0.6427  0.2224
  100OSM    H4F10066   0.088   5.146  10.046 -1.0807 -0.6296 -0.0729
  100OSM    H4G10067   0.017   4.987   9.985 -0.9049  0.6913 -1.5033
  100OSM    C5F10068   0.203   5.045   9.903 -0.4371  0.1405 -0.3212
  100OSM    H5F10069   0.261   4.950   9.909 -0.8155  0.0085  3.2390
  100OSM    H5G10070   0.282   5.119   9.928  2.3808 -2.5750 -0.5135
  100OSM    C6F10071   0.139   5.051   9.766 -0.7674 -0.4037 -0.4999
  100OSM    H6F10072   0.219   5.061   9.690 -1.4616 -2.1230 -1.5148
  100OSM    H6G10073   0.074   5.142   9.758  0.5020  0.4565 -1.4010
  100OSM    C7F10074   0.069   4.921   9.734 -0.4515  1.0553 -0.5885
  100OSM    H7F10075   0.004   4.888   9.818 -0.1997  1.3446 -0.2745
  100OSM    H7G10076   0.137   4.834   9.742 -0.5515  1.0510  0.2608
  100OSM    C8F10077  -0.018   4.910   9.601  0.2202 -0.6480  0.4249
  100OSM    H8F10078   0.047   4.920   9.512 -0.5958  2.7517  0.0748
  100OSM    H8G10079  -0.086   4.998   9.599  1.4330  0.3181  0.5863
  100OSM    C9F10080  -0.083   4.773   9.595 -0.2655  0.6930  0.5104
  100OSM    H9F10081  -0.124   4.752   9.695  0.3467  0.9294  0.8172
  100OSM   C10F10082  -0.103   4.686   9.494  0.2220 -0.8766  0.0272
  100OSM   H10F10083  -0.144   4.584   9.504  0.7486 -1.2186 -1.1986
  100OSM   C11F10084  -0.065   4.713   9.349  0.4822 -0.2326  0.4558
  100OSM   H11F10085  -0.067   4.618   9.291 -1.0151 -0.4270  0.7874
  100OSM   H11G10086   0.035   4.757   9.329  0.6279 -1.4211 -1.7696
  100OSM   C12F10087  -0.166   4.808   9.278 -0.4673 -0.4281  0.3026
  100OSM   H12F10088  -0.176   4.908   9.326 -0.8860  0.3771 -1.3825
  100OSM   H12G10089  -0.272   4.775   9.273  0.6458 -4.4908  0.2639
  100OSM   C13F10090  -0.110   4.839   9.137  0.4152  0.2130 -0.2429
  100OSM   H13F10091  -0.009   4.883   9.152 -0.7424  3.2211 -0.6582
  100OSM   H13G10092  -0.174   4.925   9.108 -0.5518  0.5207  2.5067
  100OSM   C14F10093  -0.122   4.731   9.036 -0.7570  0.5025 -0.2700
  100OSM   H14F10094  -0.228   4.700   9.026 -0.2270 -0.7616 -2.8392
  100OSM   H14G10095  -0.066   4.638   9.059 -1.1063  0.2062 -0.5905
  100OSM   C15F10096  -0.087   4.782   8.901  0.1557 -0.6128 -0.1575
  100OSM   H15F10097   0.020   4.811   8.904  0.2908 -1.1361  1.8319
  100OSM   H15G10098  -0.136   4.878   8.873  1.5658  0.0548 -0.4446
  100OSM   C16F10099  -0.106   4.681   8.791 -0.6036  0.1099 -0.2309
  100OSM   H16F10100  -0.215   4.667   8.778 -0.7639  0.0772  1.0593
  100OSM   H16G10101  -0.051   4.587   8.812  0.0870  0.5385 -0.0878
  100OSM   C17F10102  -0.045   4.739   8.658 -0.3380 -0.3981 -0.7435
  100OSM   H17F10103   0.060   4.750   8.691 -0.6584  1.4421 -0.2314
  100OSM   H17G10104  -0.076   4.846   8.655  3.3794  0.8470 -0.2515
  100OSM   C18F10105  -0.037   4.658   8.530  1.0145  0.6015 -0.0403
  100OSM   H18F10106  -0.132   4.614   8.494  2.2883 -0.0868 -2.8020
  100OSM   H18G10107   0.041   4.581   8.547  0.5689  0.5257  2.0366
  100OSM   H18H10108  -0.003   4.730   8.453  0.5146  2.2550  1.2204
  101OSM      N10109   2.091   5.218  11.094 -0.3701 -0.0026 -0.3107
  101OSM    C1510110   2.201   5.186  11.188 -0.3431 -0.1310 -0.4635
  101OSM   H15A10111   2.208   5.080  11.208  0.1979 -0.0481 -0.2065
  101OSM   H15B10112   2.178   5.238  11.279 -3.8467 -0.6979 -0.8797
  101OSM   H15C10113   2.295   5.218  11.147 -0.0441 -1.2394 -0.6788
  101OSM    C1410114   1.970   5.185  11.172  0.5841 -0.2918 -0.1596
  101OSM   H14A10115   1.959   5.080  11.196  1.5608  0.3359  3.6945
  101OSM   H14B10116   1.873   5.200  11.129 -0.0853 -1.6406  0.7943
  101OSM   H14C10117   1.968   5.233  11.269 -0.1853 -0.6211 -0.0051
  101OSM    C1310118   2.086   5.357  11.059 -0.3662 -0.8283  0.5091
  101OSM   H13A10119   2.010   5.370  10.983  0.3063 -4.0279 -0.8993
  101OSM   H13B10120   2.183   5.380  11.018  0.4777  0.7971  3.2018
  101OSM   H13C10121   2.067   5.420  11.144  2.6478 -0.0827  0.7294
  101OSM    C1210122   2.114   5.143  10.964 -0.9269  0.5391 -0.2567
  101OSM   H12A10123   2.023   5.166  10.911 -1.4437  2.0761  1.2270
  101OSM   H12B10124   2.132   5.038  10.980  1.1195  0.5446 -2.0235
  101OSM    C1110125   2.239   5.186  10.880 -0.0262  0.5686  0.0251
  101OSM   H11A10126   2.220   5.288  10.841  0.9033  1.0333  0.7276
  101OSM   H11B10127   2.237   5.120  10.791  0.1952 -0.6389  0.8826
  101OSM      P10128   2.458   5.041  10.918  0.2698  0.1481  0.0401
  101OSM    O1310129   2.578   5.043  11.003 -0.2172 -0.6048  0.0426
  101OSM    O1410130   2.373   4.921  10.926 -0.7931  0.2696 -0.2673
  101OSM    O1110131   2.502   5.070  10.771 -0.4050  0.1391 -0.5183
  101OSM    O1210132   2.366   5.171  10.946 -0.2274  0.4024  0.3456
  101OSM    C1S10133   2.538   5.205  10.731 -0.2225  0.2036  0.0627
  101OSM    H1S10134   2.637   5.224  10.778  0.2832 -0.2858 -0.7677
  101OSM    H1T10135   2.461   5.277  10.765  0.5754  1.6099 -0.9720
  101OSM     NF10136   2.645   5.304  10.531 -0.2248 -0.4432  0.0550
  101OSM    HNF10137   2.631   5.394  10.489  2.5343  0.4971  0.9188
  101OSM    C2S10138   2.539   5.214  10.575 -0.0112  0.0817  0.5608
  101OSM    H2S10139   2.558   5.112  10.535 -1.0819  0.2730 -0.4955
  101OSM    C3S10140   2.403   5.247  10.523 -0.2853  0.1287  0.1065
  101OSM    H3S10141   2.361   5.337  10.572 -1.1623  0.2661 -0.8618
  101OSM     O310142   2.309   5.137  10.538 -0.1816 -0.4901 -0.2816
  101OSM    HO310143   2.339   5.066  10.594 -0.0524 -0.8664 -0.8155
  101OSM    C4S10144   2.406   5.272  10.379 -0.0309 -0.5096  0.7248
  101OSM    H4S10145   2.436   5.184  10.320 -1.2597  0.9528 -2.3080
  101OSM    C5S10146   2.389   5.387  10.321  0.1834 -0.1071 -1.1576
  101OSM    H5S10147   2.389   5.476  10.385  2.4932 -1.8612  1.4939
  101OSM    C6S10148   2.386   5.413  10.174  0.3170  0.2554  0.1263
  101OSM    H6S10149   2.482   5.465  10.155 -0.1767  1.6340  1.2174
  101OSM    H6T10150   2.308   5.485  10.144  2.1328  2.9532  1.4768
  101OSM    C7S10151   2.377   5.284  10.088  0.2456  0.7181 -0.0892
  101OSM    H7S10152   2.279   5.237  10.111  0.1378 -1.9661 -4.7254
  101OSM    H7T10153   2.457   5.207  10.101  0.3565  0.4814 -1.8835
  101OSM    C8S10154   2.378   5.313   9.935  0.3091  0.6670  0.4907
  101OSM    H8S10155   2.305   5.389   9.902  0.2455 -0.3590 -1.9717
  101OSM    H8T10156   2.351   5.220   9.880  0.5752  0.7668  0.1848
  101OSM    C9S10157   2.514   5.346   9.882  0.2587  0.0432  0.1645
  101OSM    H9S10158   2.573   5.254   9.902 -0.3210  0.0906  2.3436
  101OSM    H9T10159   2.549   5.431   9.944  0.8219  0.2242 -0.3909
  101OSM   C10S10160   2.508   5.399   9.746 -0.1199 -0.3073 -0.1511
  101OSM   H10S10161   2.606   5.436   9.710 -1.1506  2.1223 -0.6108
  101OSM   H10T10162   2.434   5.481   9.736  0.4981  0.2979  0.1734
  101OSM   C11S10163   2.476   5.296   9.631 -0.0673 -0.8664 -0.3026
  101OSM   H11S10164   2.391   5.232   9.662  0.0672 -0.7620  0.2960
  101OSM   H11T10165   2.566   5.231   9.617 -0.0648 -0.8143 -0.5302
  101OSM   C12S10166   2.439   5.360   9.497 -0.3912 -0.2055  0.0590
  101OSM   H12S10167   2.524   5.413   9.450 -2.1834  2.5141 -0.3211
  101OSM   H12T10168   2.359   5.436   9.511  0.3228  0.6861 -0.5832
  101OSM   C13S10169   2.385   5.254   9.395  0.5424 -0.0331 -0.5280
  101OSM   H13S10170   2.335   5.305   9.310 -0.8536 -1.4618 -0.6094
  101OSM   H13T10171   2.310   5.192   9.448 -0.4743  0.4415 -1.3805
  101OSM   C14S10172   2.491   5.168   9.342  0.8318  1.0066 -0.2382
  101OSM   H14S10173   2.443   5.075   9.304  0.7666  0.3219  1.4141
  101OSM   H14T10174   2.570   5.130   9.410  1.8253 -1.9616 -2.8332
  101OSM   C15S10175   2.560   5.229   9.227 -0.4858  0.4779  0.4401
  101OSM   H15S10176   2.625   5.312   9.262  0.6228 -0.8145  1.5516
  101OSM   H15T10177   2.491   5.279   9.157 -0.8328  1.8600  1.7244
  101OSM   C16S10178   2.638   5.127   9.141  0.2035  0.5419 -0.4705
  101OSM   H16S10179   2.558   5.061   9.101 -0.9374  0.1161  2.2930
  101OSM   H16T10180   2.707   5.056   9.191 -0.9623  0.0782  0.5362
  101OSM   C17S10181   2.722   5.195   9.036  0.2785  0.5395 -0.6043
  101OSM   H17S10182   2.788   5.259   9.098 -0.1549  0.0746  0.3534
  101OSM   H17T10183   2.675   5.260   8.959 -1.6948 -0.6832 -0.4964
  101OSM   C18S10184   2.809   5.089   8.959  0.0751  0.5107  0.6595
  101OSM   H18S10185   2.752   4.995   8.945  1.6324 -0.3793  0.0053
  101OSM   H18T10186   2.899   5.059   9.016  0.3432 -0.6962 -0.3546
  101OSM   H18U10187   2.843   5.131   8.862  1.0789 -0.4945  0.5628
  101OSM    C1F10188   2.769   5.268  10.566  0.0880 -0.4516 -0.4787
  101OSM     OF10189   2.802   5.152  10.580  0.1317  0.0942  0.1125
  101OSM    C2F10190   2.874   5.381  10.586  0.1482 -0.0900  0.1286
  101OSM    H2F10191   2.916   5.380  10.689  0.2007  1.1184  0.1274
  101OSM    H2G10192   2.826   5.481  10.579  0.6187  0.3550  2.3876
  101OSM    C3F10193   3.000   5.357  10.510  0.5623 -0.5591  0.3592
  101OSM    H3F10194   3.050   5.265  10.548  1.4789 -0.3593 -0.3233
  101OSM    H3G10195   3.067   5.443  10.532  0.6953 -0.7124  0.5616
  101OSM    C4F10196   2.975   5.344  10.355 -0.5161  0.1882 -0.5534
  101OSM    H4F10197   2.935   5.240  10.352 -0.0783  0.0209 -0.5915
  101OSM    H4G10198   3.068   5.333  10.296 -0.4308 -1.8448 -0.1289
  101OSM    C5F10199   2.869   5.435  10.286 -0.4240  0.0919 -0.2671
  101OSM    H5F10200   2.915   5.530  10.253 -0.6754 -0.9764 -4.1564
  101OSM    H5G10201   2.781   5.429  10.354 -0.5687 -0.5659 -0.5037
  101OSM    C6F10202   2.817   5.374  10.149 -0.1431  0.4684 -0.6037
  101OSM    H6F10203   2.778   5.271  10.162 -1.6373  1.1013  0.2191
  101OSM    H6G10204   2.730   5.436  10.117 -0.1445  1.0946  0.5324
  101OSM    C7F10205   2.925   5.391  10.041 -0.2106  0.8070  0.1028
  101OSM    H7F10206   3.015   5.332  10.071  0.3567  2.4679  1.8885
  101OSM    H7G10207   2.950   5.499  10.046 -0.2428  0.8061  0.2848
  101OSM    C8F10208   2.882   5.344   9.902  0.3342 -0.4036  0.4058
  101OSM    H8F10209   2.805   5.411   9.860 -0.2411 -2.4249 -2.0058
  101OSM    H8G10210   2.833   5.245   9.913 -0.9212  0.2500  0.9572
  101OSM    C9F10211   2.996   5.355   9.806 -0.3643  0.3231  0.2303
  101OSM    H9F10212   3.099   5.379   9.836  0.7636  0.1546 -3.1280
  101OSM   C10F10213   2.988   5.349   9.667 -0.1324  0.1006 -0.8730
  101OSM   H10F10214   3.085   5.351   9.614 -0.2529  1.0411 -1.0664
  101OSM   C11F10215   2.871   5.323   9.581 -0.4755  0.1223  0.3782
  101OSM   H11F10216   2.776   5.337   9.636 -1.0597  0.7516 -0.7627
  101OSM   H11G10217   2.867   5.216   9.552 -0.4668  0.7192 -2.0199
  101OSM   C12F10218   2.865   5.407   9.452 -0.3255 -0.8677 -0.5778
  101OSM   H12F10219   2.869   5.516   9.472 -1.4547 -0.6557 -1.4524
  101OSM   H12G10220   2.763   5.395   9.410 -0.5393 -0.1845 -0.2639
  101OSM   C13F10221   2.963   5.373   9.340 -0.3317  0.0084  0.1563
  101OSM   H13F10222   2.922   5.289   9.280  1.4832 -0.7734 -0.0506
  101OSM   H13G10223   3.058   5.340   9.387  1.3533  0.1927 -2.9040
  101OSM   C14F10224   2.997   5.497   9.250 -0.2524 -1.3592 -0.3094
  101OSM   H14F10225   3.029   5.581   9.316  0.5867 -0.3838 -1.8950
  101OSM   H14G10226   2.902   5.540   9.214 -0.4925 -1.0523  0.6587
  101OSM   C15F10227   3.089   5.478   9.131  0.6206  0.3592 -0.4438
  101OSM   H15F10228   3.178   5.416   9.155 -0.4338 -2.7272 -3.6276
  101OSM   H15G10229   3.131   5.575   9.098  0.8986  1.0579  1.7908
  101OSM   C16F10230   3.022   5.418   9.006  0.8384  0.5563  0.1191
  101OSM   H16F10231   2.922   5.464   8.988  0.3320 -0.0717  1.1894
  101OSM   H16G10232   2.992   5.312   9.022 -1.3383  0.9144 -1.1545
  101OSM   C17F10233   3.105   5.423   8.874  0.2377  0.0813 -1.0678
  101OSM   H17F10234   3.134   5.530   8.875 -1.0738  0.4495  0.3573
  101OSM   H17G10235   3.043   5.403   8.784  0.9139  2.0914 -2.0585
  101OSM   C18F10236   3.221   5.330   8.882 -0.2743  0.6661 -0.4312
  101OSM   H18F10237   3.309   5.363   8.942 -0.2293  1.1399 -0.7450
  101OSM   H18G10238   3.261   5.318   8.778  0.0996 -1.2973 -0.0995
  101OSM   H18H10239   3.186   5.228   8.906 -1.3272  0.3832 -2.8818
  102OSM      N10240   3.897   0.821  10.925  0.0177  0.0391  0.1844
  102OSM    C1510241   4.045   0.787  10.935  0.1958  0.1723 -0.7748
  102OSM   H15A10242   4.060   0.686  10.900 -1.7082  0.0258 -1.2827
  102OSM   H15B10243   4.076   0.783  11.038  1.7217 -2.9076 -1.2580
  102OSM   H15C10244   4.115   0.851  10.883  1.5868 -0.5344  0.1737
  102OSM    C1410245   3.840   0.742  11.036  0.0362  0.1966 -0.1041
  102OSM   H14A10246   3.882   0.643  11.036 -0.4414 -0.0079 -0.4345
  102OSM   H14B10247   3.733   0.744  11.045 -0.0014  1.9147 -0.5688
  102OSM   H14C10248   3.884   0.786  11.125 -1.0558  0.8207  0.1416
  102OSM    C1310249   3.878   0.967  10.955  0.4853  0.5763 -0.2363
  102OSM   H13A10250   3.914   1.032  10.877  1.8400  1.1032  0.8056
  102OSM   H13B10251   3.926   0.999  11.046  0.4469  0.8549 -0.3127
  102OSM   H13C10252   3.771   0.972  10.971  0.2061 -3.8435  0.6715
  102OSM    C1210253   3.846   0.788  10.785 -0.7585 -0.4069 -0.3312
  102OSM   H12A10254   3.758   0.849  10.777 -0.0603  0.9942  1.9264
  102OSM   H12B10255   3.835   0.681  10.774 -1.6122 -0.1993 -1.6829
  102OSM    C1110256   3.938   0.840  10.670  1.1308  0.3934  0.1993
  102OSM   H11A10257   3.895   0.790  10.580  1.7357 -0.5000  0.3947
  102OSM   H11B10258   4.043   0.804  10.677  1.0267 -0.3492 -1.4612
  102OSM      P10259   3.817   1.060  10.599  0.0836  0.0879  0.3317
  102OSM    O1310260   3.693   0.991  10.631 -0.1939 -0.1378  0.6973
  102OSM    O1410261   3.829   1.204  10.633 -0.3406  0.4918 -0.3650
  102OSM    O1110262   3.847   1.052  10.442  0.4248 -0.2067 -0.4388
  102OSM    O1210263   3.940   0.983  10.662  0.2173  0.2264 -0.0952
  102OSM    C1S10264   3.975   1.050  10.390 -0.1891 -0.9217  0.8357
  102OSM    H1S10265   4.027   0.957  10.422  2.0735 -0.3808 -0.9976
  102OSM    H1T10266   4.024   1.148  10.407 -0.8623 -0.5164  0.4667
  102OSM     NF10267   4.088   0.998  10.182  0.5667 -0.2207 -0.0276
  102OSM    HNF10268   4.142   1.073  10.146  0.1859 -0.5637 -1.3895
  102OSM    C2S10269   3.963   1.046  10.232 -0.3609 -0.5148 -0.5494
  102OSM    H2S10270   3.883   0.973  10.208  0.9415 -1.4609 -2.2470
  102OSM    C3S10271   3.920   1.189  10.191  0.1828 -0.2694 -0.6938
  102OSM    H3S10272   3.989   1.261  10.239 -0.1550  0.1222 -0.7915
  102OSM     O310273   3.797   1.219  10.254  0.4435  0.2259  0.2223
  102OSM    HO310274   3.804   1.152  10.322  1.9606  0.0141 -0.1169
  102OSM    C4S10275   3.913   1.220  10.042  0.2407 -0.2746  0.0386
  102OSM    H4S10276   3.993   1.283  10.002  0.2102  0.2145  0.7226
  102OSM    C5S10277   3.812   1.188   9.956 -0.4190  0.1307 -0.1589
  102OSM    H5S10278   3.725   1.135   9.996  0.0779 -0.1454  0.5765
  102OSM    C6S10279   3.810   1.219   9.809  0.5601 -0.8911 -0.1864
  102OSM    H6S10280   3.788   1.327   9.795 -1.6442 -1.1584  0.7357
  102OSM    H6T10281   3.724   1.158   9.774 -1.0850 -1.1287  3.7889
  102OSM    C7S10282   3.928   1.174   9.721 -0.5321  0.7171  0.2469
  102OSM    H7S10283   4.027   1.226   9.724 -0.0238 -0.2337  0.2649
  102OSM    H7T10284   3.899   1.206   9.619 -0.8685 -0.3688 -0.0054
  102OSM    C8S10285   3.961   1.025   9.735 -0.3272 -0.6177  0.5109
  102OSM    H8S10286   3.870   0.961   9.746  0.1057 -1.5118 -0.8833
  102OSM    H8T10287   4.025   1.004   9.824 -0.7008  0.8792  1.1630
  102OSM    C9S10288   4.032   0.979   9.603 -0.1439  0.5151  0.3249
  102OSM    H9S10289   4.063   0.876   9.631 -0.1852  0.7337  1.2372
  102OSM    H9T10290   4.125   1.037   9.584  0.4694 -0.4416  0.3547
  102OSM   C10S10291   3.965   0.982   9.471  0.2887 -0.1140  0.0467
  102OSM   H10S10292   3.923   1.085   9.462  2.0517  0.8036  1.7024
  102OSM   H10T10293   3.883   0.907   9.481  0.5146 -0.4923 -0.8597
  102OSM   C11S10294   4.049   0.950   9.351  0.8153 -0.1861  0.4904
  102OSM   H11S10295   4.095   0.854   9.383 -1.2036 -0.4105  3.0510
  102OSM   H11T10296   4.131   1.025   9.356  1.5122 -0.9813  1.3431
  102OSM   C12S10297   3.976   0.949   9.217  0.2455  0.3593  0.5409
  102OSM   H12S10298   3.969   1.050   9.172 -1.3867 -0.2190 -0.5591
  102OSM   H12T10299   3.875   0.911   9.245 -2.1810  1.9609 -4.7243
  102OSM   C13S10300   4.027   0.851   9.108 -0.6431  0.4000  0.6260
  102OSM   H13S10301   3.962   0.854   9.017  2.2118  1.3831 -1.5078
  102OSM   H13T10302   4.029   0.748   9.150  0.0214  0.1286 -0.0625
  102OSM   C14S10303   4.173   0.879   9.042  0.6209 -0.1651 -0.0178
  102OSM   H14S10304   4.198   0.791   8.979  2.7902  0.6882 -0.4131
  102OSM   H14T10305   4.244   0.879   9.128 -0.1670 -1.8073  0.6909
  102OSM   C15S10306   4.176   1.011   8.961  0.1143 -0.0643 -0.0359
  102OSM   H15S10307   4.172   1.094   9.034  1.4797  1.3429 -1.4648
  102OSM   H15T10308   4.090   1.014   8.891  0.0194  0.3086  0.0968
  102OSM   C16S10309   4.304   1.025   8.880  0.1684  0.5657 -0.3449
  102OSM   H16S10310   4.391   0.996   8.943 -0.2944 -0.8925 -0.3467
  102OSM   H16T10311   4.320   1.133   8.860 -0.4753  0.9582  1.1051
  102OSM   C17S10312   4.306   0.959   8.741  0.2029  0.2639 -0.5482
  102OSM   H17S10313   4.211   0.985   8.690 -1.2234 -0.0282  1.8208
  102OSM   H17T10314   4.320   0.849   8.755  2.9304  0.3263 -2.1333
  102OSM   C18S10315   4.420   0.997   8.646 -0.2432 -0.4658 -0.5634
  102OSM   H18S10316   4.513   0.959   8.693  0.0170  1.2276  0.3683
  102OSM   H18T10317   4.433   1.106   8.630 -4.2704  0.3061  0.3216
  102OSM   H18U10318   4.407   0.950   8.546  0.3772 -0.2129 -0.7653
  102OSM    C1F10319   4.131   0.871  10.189  0.3509 -0.0465  0.4337
  102OSM     OF10320   4.054   0.783  10.188  0.4055 -0.1374  0.1793
  102OSM    C2F10321   4.280   0.851  10.194 -0.0980  0.1053 -0.1240
  102OSM    H2F10322   4.312   0.836  10.299 -0.7386  0.8586  0.1954
  102OSM    H2G10323   4.325   0.946  10.159  0.3030  0.2196  0.6861
  102OSM    C3F10324   4.330   0.734  10.105  0.6007  0.2914  0.2668
  102OSM    H3F10325   4.268   0.650  10.143  1.0558  0.9420  2.5780
  102OSM    H3G10326   4.435   0.720  10.136  0.3289  1.1574  1.6981
  102OSM    C4F10327   4.309   0.762   9.955 -0.2321  0.6264 -0.2005
  102OSM    H4F10328   4.400   0.761   9.892 -1.5660 -2.9018 -2.3708
  102OSM    H4G10329   4.255   0.856   9.930 -1.1951 -0.1831 -1.3071
  102OSM    C5F10330   4.218   0.648   9.883 -0.9445  0.1720  0.1137
  102OSM    H5F10331   4.127   0.697   9.845 -0.6497  0.4315 -0.2598
  102OSM    H5G10332   4.193   0.575   9.963 -2.0564  1.9444  1.4509
  102OSM    C6F10333   4.297   0.587   9.755  0.1453  0.2400 -0.2342
  102OSM    H6F10334   4.363   0.504   9.789  0.8664  0.6329 -0.6545
  102OSM    H6G10335   4.360   0.667   9.712  0.3948 -0.3763 -1.0496
  102OSM    C7F10336   4.201   0.562   9.641 -0.0911  0.2322  0.3690
  102OSM    H7F10337   4.151   0.659   9.618  0.4105  1.2174  3.0205
  102OSM    H7G10338   4.127   0.494   9.689  0.5793  0.5131  1.8585
  102OSM    C8F10339   4.265   0.527   9.507  0.9580  0.1585  0.0939
  102OSM    H8F10340   4.309   0.426   9.518  1.7307  0.6677  2.2044
  102OSM    H8G10341   4.359   0.587   9.499  0.7097  0.5129 -0.2207
  102OSM    C9F10342   4.171   0.518   9.386  0.4492 -0.2652  0.7121
  102OSM    H9F10343   4.065   0.502   9.409  0.0774  1.0851  0.0537
  102OSM   C10F10344   4.193   0.545   9.250  0.1914  0.1705 -0.3113
  102OSM   H10F10345   4.110   0.542   9.177 -0.1876  3.0379 -0.0938
  102OSM   C11F10346   4.321   0.574   9.188 -0.4207 -0.5104 -0.2910
  102OSM   H11F10347   4.397   0.593   9.267 -2.3242 -0.7713  1.6988
  102OSM   H11G10348   4.313   0.673   9.137  1.0626  1.1190  2.3609
  102OSM   C12F10349   4.367   0.472   9.089 -0.4948 -0.3107  0.1554
  102OSM   H12F10350   4.279   0.415   9.053 -0.0627 -1.9910  1.6050
  102OSM   H12G10351   4.426   0.392   9.139 -0.8686 -0.7392 -0.0802
  102OSM   C13F10352   4.457   0.536   8.978  0.7236 -0.2577  0.2857
  102OSM   H13F10353   4.554   0.576   9.014  0.2019  1.3556 -0.0056
  102OSM   H13G10354   4.401   0.622   8.935 -2.0713 -2.1800 -0.2444
  102OSM   C14F10355   4.490   0.440   8.861  0.1873  0.2264  0.3025
  102OSM   H14F10356   4.398   0.423   8.800  0.3804 -0.3531  0.1622
  102OSM   H14G10357   4.508   0.344   8.914 -0.0744 -0.7203 -1.2647
  102OSM   C15F10358   4.613   0.494   8.774  0.4456  0.2117 -0.4647
  102OSM   H15F10359   4.651   0.403   8.723 -1.5540 -0.7282 -0.3411
  102OSM   H15G10360   4.697   0.530   8.838 -1.6032  0.9185  2.0059
  102OSM   C16F10361   4.570   0.593   8.664 -0.2074 -0.5844  0.3238
  102OSM   H16F10362   4.512   0.683   8.696 -0.5234 -0.7681  0.2716
  102OSM   H16G10363   4.509   0.533   8.593  1.1707 -1.6293 -0.0203
  102OSM   C17F10364   4.691   0.639   8.581 -0.0571  0.3560 -0.1748
  102OSM   H17F10365   4.730   0.547   8.533  1.1059  0.3681  0.6888
  102OSM   H17G10366   4.771   0.667   8.654  0.1039 -0.0893 -0.1750
  102OSM   C18F10367   4.657   0.752   8.487  0.0420  0.2913 -0.1604
  102OSM   H18F10368   4.741   0.783   8.422 -0.7664  1.3982 -0.7113
  102OSM   H18G10369   4.633   0.834   8.558 -0.6788 -0.8106  0.8885
  102OSM   H18H10370   4.572   0.731   8.419  1.0246  0.2540 -1.4166
  103OSM      N10371   2.831   3.881  11.466  0.5523  0.3520  0.7645
  103OSM    C1510372   2.705   3.799  11.442  0.1756 -0.1175  0.0431
  103OSM   H15A10373   2.704   3.712  11.506 -0.7711 -0.4290 -0.3873
  103OSM   H15B10374   2.689   3.773  11.338  1.0777 -1.3599  0.1849
  103OSM   H15C10375   2.616   3.851  11.473  0.0476 -1.0577  1.3249
  103OSM    C1410376   2.850   3.900  11.614 -0.0978  0.1334 -0.1705
  103OSM   H14A10377   2.771   3.956  11.662 -1.5396 -1.1648 -0.9166
  103OSM   H14B10378   2.947   3.942  11.636 -0.2121 -0.5568  1.9327
  103OSM   H14C10379   2.853   3.812  11.677  2.8870  1.2238  1.4200
  103OSM    C1310380   2.956   3.802  11.419  0.5102 -0.3947 -0.9062
  103OSM   H13A10381   2.959   3.790  11.312  1.0839 -2.1901 -0.7245
  103OSM   H13B10382   2.960   3.704  11.465 -2.6099 -1.5816 -2.9070
  103OSM   H13C10383   3.042   3.856  11.456 -0.3162 -0.1965  0.7899
  103OSM    C1210384   2.824   4.009  11.385 -0.1598 -0.2287  0.2112
  103OSM   H12A10385   2.914   4.066  11.397 -0.4145  0.2914 -0.3096
  103OSM   H12B10386   2.743   4.073  11.418 -0.9605 -2.4020  2.9498
  103OSM    C1110387   2.796   4.001  11.234  0.3055 -0.3908  0.2278
  103OSM   H11A10388   2.784   4.106  11.203 -2.3196 -0.5886  0.3490
  103OSM   H11B10389   2.699   3.951  11.213 -0.8928  1.6634  0.5667
  103OSM      P10390   3.031   4.006  11.149 -0.0950 -0.1273 -0.2785
  103OSM    O1310391   3.054   4.112  11.247  0.1658 -0.3415  0.2352
  103OSM    O1410392   3.139   3.913  11.124  0.1598  0.0779  0.1917
  103OSM    O1110393   3.000   4.075  11.012 -0.0703  0.3184 -0.3931
  103OSM    O1210394   2.895   3.926  11.172  0.0288  0.0039 -0.4303
  103OSM    C1S10395   2.960   3.983  10.903  0.6363 -0.2518  0.4108
  103OSM    H1S10396   2.851   3.966  10.906  0.2526  2.0122  1.3505
  103OSM    H1T10397   3.020   3.890  10.898  0.3215 -0.7247  3.5724
  103OSM     NF10398   2.953   3.956  10.660  0.0546 -0.0612  0.6912
  103OSM    HNF10399   3.015   3.879  10.647  1.1261  0.8154  0.5505
  103OSM    C2S10400   2.999   4.044  10.758  0.2556 -0.2530  0.0796
  103OSM    H2S10401   2.954   4.144  10.742  0.5173 -0.2066 -0.3920
  103OSM    C3S10402   3.148   4.082  10.749 -0.3307  0.1427 -0.5048
  103OSM    H3S10403   3.214   3.993  10.765 -0.0667 -0.3705 -3.8271
  103OSM     O310404   3.188   4.188  10.838  0.2021 -0.1133  0.9526
  103OSM    HO310405   3.105   4.223  10.872  0.3856  1.5653 -0.1902
  103OSM    C4S10406   3.180   4.122  10.603  0.3425  0.7431  0.1716
  103OSM    H4S10407   3.106   4.188  10.555  0.3170  0.2287 -0.5063
  103OSM    C5S10408   3.287   4.095  10.524  0.0131  0.4552 -0.3006
  103OSM    H5S10409   3.370   4.030  10.554  1.5670  1.3593 -2.4326
  103OSM    C6S10410   3.315   4.144  10.387 -0.3672 -0.3280  0.0088
  103OSM    H6S10411   3.401   4.087  10.345  0.2436 -0.1087  0.9298
  103OSM    H6T10412   3.352   4.249  10.394 -0.4026 -0.3061 -0.1093
  103OSM    C7S10413   3.190   4.129  10.286 -0.1788  0.2795  0.1829
  103OSM    H7S10414   3.107   4.197  10.315 -3.1738 -2.6482 -0.8365
  103OSM    H7T10415   3.156   4.024  10.298  0.9066  0.2448  4.4020
  103OSM    C8S10416   3.222   4.148  10.133 -0.1890 -0.3737  0.0120
  103OSM    H8S10417   3.125   4.132  10.081 -1.9132 -1.4244  3.2428
  103OSM    H8T10418   3.286   4.063  10.101  1.5209  0.8942 -0.0794
  103OSM    C9S10419   3.308   4.273  10.098 -0.2298 -0.1698 -0.4890
  103OSM    H9S10420   3.408   4.255  10.142 -0.2988  2.3648  0.8756
  103OSM    H9T10421   3.253   4.359  10.144  0.6575  0.9679 -1.4744
  103OSM   C10S10422   3.306   4.293   9.941  0.2578  0.0411 -0.1558
  103OSM   H10S10423   3.327   4.195   9.893  0.9092  0.8422 -1.5811
  103OSM   H10T10424   3.388   4.366   9.926  1.2543 -1.1669 -0.7852
  103OSM   C11S10425   3.173   4.341   9.885  0.2270  0.2668  0.5254
  103OSM   H11S10426   3.133   4.406   9.966  0.6360 -0.3157  1.2055
  103OSM   H11T10427   3.098   4.261   9.862  2.5611 -1.2768 -2.3940
  103OSM   C12S10428   3.200   4.430   9.758  0.3028  0.1574  0.0186
  103OSM   H12S10429   3.289   4.495   9.774  0.1410  0.6375 -0.9981
  103OSM   H12T10430   3.104   4.482   9.737  0.4645  0.1865 -0.6728
  103OSM   C13S10431   3.214   4.345   9.625 -0.0305  0.1530 -1.0428
  103OSM   H13S10432   3.156   4.401   9.549 -0.0960  2.3278  0.5000
  103OSM   H13T10433   3.184   4.239   9.641  3.5896 -1.0909 -1.4712
  103OSM   C14S10434   3.358   4.346   9.576  0.2283  0.2156 -0.4938
  103OSM   H14S10435   3.420   4.291   9.650 -0.8571  0.7650  0.8690
  103OSM   H14T10436   3.390   4.451   9.560 -0.6998  0.9057  1.7434
  103OSM   C15S10437   3.359   4.279   9.438  0.1861  0.3946 -0.1763
  103OSM   H15S10438   3.275   4.207   9.453  0.2876  0.4554  0.7093
  103OSM   H15T10439   3.452   4.219   9.432  0.0512 -0.4656  3.8974
  103OSM   C16S10440   3.336   4.367   9.316 -0.2718  0.1164 -0.7810
  103OSM   H16S10441   3.425   4.433   9.308 -1.7323  2.2172 -0.5263
  103OSM   H16T10442   3.238   4.419   9.325 -0.0060  0.9000 -2.1490
  103OSM   C17S10443   3.335   4.289   9.188 -0.2104 -0.4136 -0.4444
  103OSM   H17S10444   3.436   4.268   9.146 -0.1333 -1.8934  0.4028
  103OSM   H17T10445   3.296   4.359   9.111  1.0208 -0.2592 -0.9563
  103OSM   C18S10446   3.264   4.152   9.188  0.3167  0.0250 -0.3883
  103OSM   H18S10447   3.156   4.162   9.214  1.0015 -0.3787  3.0838
  103OSM   H18T10448   3.310   4.087   9.264  0.5409 -0.0701 -0.6055
  103OSM   H18U10449   3.285   4.113   9.086  1.9017  0.5654 -0.2825
  103OSM    C1F10450   2.826   3.949  10.626  0.0790 -0.2879  0.2999
  103OSM     OF10451   2.741   4.018  10.680 -0.0766 -0.8220  0.2822
  103OSM    C2F10452   2.789   3.843  10.524  0.4791  0.7566 -0.3082
  103OSM    H2F10453   2.738   3.767  10.587  2.0868 -0.9070 -0.9460
  103OSM    H2G10454   2.877   3.790  10.482 -1.4225 -2.3332 -0.6530
  103OSM    C3F10455   2.692   3.887  10.410 -0.5623  0.5444 -0.2853
  103OSM    H3F10456   2.590   3.914  10.443  0.2380  2.0926  1.0492
  103OSM    H3G10457   2.686   3.795  10.347  4.0175 -0.2138  0.0536
  103OSM    C4F10458   2.753   3.998  10.317  0.0398 -0.1613 -0.3277
  103OSM    H4F10459   2.859   3.976  10.294  0.4522  0.1715  1.1806
  103OSM    H4G10460   2.736   4.090  10.376 -2.1134 -0.3240 -0.6091
  103OSM    C5F10461   2.683   4.004  10.175 -0.1971 -0.3411  0.3888
  103OSM    H5F10462   2.738   4.079  10.115 -0.3716  0.5996  1.3855
  103OSM    H5G10463   2.576   4.034  10.182 -0.5291 -0.8940 -1.5299
  103OSM    C6F10464   2.688   3.873  10.091  0.0873  0.0985  0.3574
  103OSM    H6F10465   2.624   3.791  10.131  1.7476 -1.9522 -0.9147
  103OSM    H6G10466   2.787   3.827  10.113  0.7812  1.2617 -0.2468
  103OSM    C7F10467   2.683   3.894   9.939  0.3627 -0.7066  0.0327
  103OSM    H7F10468   2.728   3.806   9.889 -3.1627 -2.4294 -0.4279
  103OSM    H7G10469   2.738   3.988   9.920 -2.0759  0.6224 -0.9933
  103OSM    C8F10470   2.544   3.917   9.869 -0.6897  0.2419  0.4899
  103OSM    H8F10471   2.543   3.928   9.758 -3.8182 -1.9199  0.1538
  103OSM    H8G10472   2.503   4.012   9.909 -3.3966 -0.9751  0.8627
  103OSM    C9F10473   2.447   3.810   9.912 -0.1266  0.4055 -0.4759
  103OSM    H9F10474   2.447   3.787  10.020 -0.7490 -0.3496 -0.6302
  103OSM   C10F10475   2.358   3.747   9.840 -0.4374  0.3264 -0.0765
  103OSM   H10F10476   2.291   3.674   9.887  1.0991 -0.5947  0.7796
  103OSM   C11F10477   2.337   3.748   9.698 -0.2767 -0.1569 -0.1898
  103OSM   H11F10478   2.385   3.835   9.647  1.9402  0.4073  2.6246
  103OSM   H11G10479   2.227   3.758   9.685 -0.8472 -2.3510  2.2173
  103OSM   C12F10480   2.375   3.610   9.617  0.5704  0.4575  0.3340
  103OSM   H12F10481   2.475   3.572   9.647  0.7766  2.9949  3.3035
  103OSM   H12G10482   2.367   3.624   9.507  0.1946  0.8489  0.4090
  103OSM   C13F10483   2.284   3.487   9.636  0.7490  0.3709 -0.0194
  103OSM   H13F10484   2.180   3.517   9.611  0.5134 -1.7592 -1.8657
  103OSM   H13G10485   2.279   3.442   9.737  2.9385  0.0320 -0.0134
  103OSM   C14F10486   2.307   3.374   9.533  1.5645 -0.2190 -0.0166
  103OSM   H14F10487   2.388   3.306   9.566  0.0290 -1.4307  1.4913
  103OSM   H14G10488   2.327   3.415   9.432 -2.1863 -0.7492 -1.1571
  103OSM   C15F10489   2.176   3.299   9.520 -0.6170  0.0043  0.6402
  103OSM   H15F10490   2.086   3.362   9.501 -0.9155 -0.2024  1.3585
  103OSM   H15G10491   2.163   3.241   9.613 -0.1779 -2.2318 -0.6296
  103OSM   C16F10492   2.178   3.183   9.409 -0.1306  0.4267 -0.6374
  103OSM   H16F10493   2.247   3.103   9.444  0.1006  0.6976 -0.4710
  103OSM   H16G10494   2.218   3.228   9.315 -1.9117  1.5582 -0.9027
  103OSM   C17F10495   2.034   3.142   9.361 -0.0755  0.5783  0.3947
  103OSM   H17F10496   2.045   3.051   9.299 -0.2500  1.6497 -1.2553
  103OSM   H17G10497   1.989   3.217   9.293  0.0131  0.7822  0.5588
  103OSM   C18F10498   1.931   3.115   9.473  0.5586  0.4708 -0.1807
  103OSM   H18F10499   1.974   3.034   9.537 -0.4193  0.5214  0.5612
  103OSM   H18G10500   1.828   3.091   9.438  1.3440 -3.1208 -0.4733
  103OSM   H18H10501   1.921   3.203   9.540  0.0113  1.0978 -1.0705
  104OSM      N10502   4.632   3.395  10.769 -0.3623 -0.4172  0.2769
  104OSM    C1510503   4.713   3.292  10.703  0.3341  1.0432 -0.1267
  104OSM   H15A10504   4.779   3.237  10.769  0.7974  1.6518 -0.0712
  104OSM   H15B10505   4.777   3.333  10.626  0.6467 -0.2552 -0.5808
  104OSM   H15C10506   4.655   3.217  10.653 -0.6773  1.7575 -0.0446
  104OSM    C1410507   4.521   3.324  10.844  0.6435  0.3664  0.3847
  104OSM   H14A10508   4.553   3.255  10.921  0.7313 -0.3724 -0.3046
  104OSM   H14B10509   4.465   3.261  10.776  1.1582 -0.6544  0.8692
  104OSM   H14C10510   4.458   3.392  10.898 -0.5165 -0.8313  0.6043
  104OSM    C1310511   4.717   3.461  10.877 -0.1860  0.2169 -1.0269
  104OSM   H13A10512   4.805   3.508  10.836  0.3347  0.1732  0.0109
  104OSM   H13B10513   4.744   3.402  10.963 -0.1886  0.1681 -1.0592
  104OSM   H13C10514   4.653   3.543  10.909  0.3055  0.4323 -0.5781
  104OSM    C1210515   4.581   3.493  10.666 -0.0192 -0.3035 -0.6833
  104OSM   H12A10516   4.514   3.437  10.602  1.0075 -1.3653 -0.8694
  104OSM   H12B10517   4.666   3.530  10.611  0.1886  1.7704  0.9173
  104OSM    C1110518   4.500   3.616  10.711 -0.3542 -0.3093  0.2613
  104OSM   H11A10519   4.404   3.586  10.759 -0.5309  0.9257  0.7058
  104OSM   H11B10520   4.464   3.673  10.622 -0.9374 -0.7579  0.2039
  104OSM      P10521   4.699   3.789  10.745  0.4027  0.1735  0.0256
  104OSM    O1310522   4.726   3.889  10.850  0.2697  0.4894  0.6025
  104OSM    O1410523   4.812   3.690  10.725  0.3657 -0.2000  0.6944
  104OSM    O1110524   4.663   3.854  10.608 -0.1302 -0.3985 -0.1414
  104OSM    O1210525   4.574   3.702  10.801 -0.0730 -0.1798 -0.3436
  104OSM    C1S10526   4.586   3.966  10.577 -0.2105 -0.2207 -0.3550
  104OSM    H1S10527   4.616   4.046  10.647  1.0780 -0.1759 -0.9311
  104OSM    H1T10528   4.477   3.946  10.592  0.1432 -1.4111  0.8587
  104OSM     NF10529   4.558   4.150  10.401 -0.2253  0.6331  0.4253
  104OSM    HNF10530   4.494   4.144  10.325 -0.4999 -0.6683  0.7270
  104OSM    C2S10531   4.609   4.016  10.433 -0.0134 -0.2504  0.0609
  104OSM    H2S10532   4.720   4.021  10.434 -0.0635  1.4302 -0.3397
  104OSM    C3S10533   4.554   3.911  10.333  0.8445  0.2281 -0.0167
  104OSM    H3S10534   4.443   3.917  10.328  0.8945  0.3397 -1.3181
  104OSM     O310535   4.563   3.773  10.379 -0.4624 -0.2451  0.3675
  104OSM    HO310536   4.597   3.787  10.468  1.2022  3.2726 -0.6118
  104OSM    C4S10537   4.609   3.922  10.192  0.1818  0.0013  0.1246
  104OSM    H4S10538   4.556   4.005  10.141  1.4099  0.9340  0.3220
  104OSM    C5S10539   4.713   3.871  10.130  0.5924  0.3834  0.5091
  104OSM    H5S10540   4.784   3.808  10.186  0.5974  0.5888  0.7321
  104OSM    C6S10541   4.751   3.908   9.987  0.2765  0.5932 -0.3559
  104OSM    H6S10542   4.839   3.976   9.978 -0.4757  1.3261 -3.4355
  104OSM    H6T10543   4.671   3.964   9.935 -1.1873  0.0653  1.2576
  104OSM    C7S10544   4.788   3.772   9.910 -0.3000  0.0054 -0.4308
  104OSM    H7S10545   4.689   3.722   9.915  0.0363 -0.5775  0.9697
  104OSM    H7T10546   4.856   3.711   9.973 -1.4064  0.7950  1.6194
  104OSM    C8S10547   4.835   3.790   9.768 -0.4194  0.5632  0.3282
  104OSM    H8S10548   4.841   3.695   9.711  2.1811  0.8241  0.0379
  104OSM    H8T10549   4.936   3.838   9.762 -0.2057 -0.0594 -1.5091
  104OSM    C9S10550   4.728   3.867   9.688 -0.9512 -0.4742 -0.4185
  104OSM    H9S10551   4.758   3.974   9.696 -0.8411 -0.6528  3.0017
  104OSM    H9T10552   4.632   3.865   9.743 -1.9278  3.9562 -1.5270
  104OSM   C10S10553   4.713   3.820   9.548  0.2006  1.1504 -0.1003
  104OSM   H10S10554   4.671   3.718   9.553  2.6984 -0.1150 -2.2622
  104OSM   H10T10555   4.804   3.792   9.490 -1.1588 -0.0219 -1.7474
  104OSM   C11S10556   4.609   3.903   9.472 -0.3297  0.2223  0.1882
  104OSM   H11S10557   4.655   4.003   9.483  0.7674 -0.1682 -0.6139
  104OSM   H11T10558   4.518   3.889   9.534  0.0782 -1.4928  0.4514
  104OSM   C12S10559   4.594   3.853   9.331  0.2540  1.2229 -0.7378
  104OSM   H12S10560   4.502   3.897   9.287  0.0389 -1.2714 -3.0405
  104OSM   H12T10561   4.569   3.745   9.332 -1.1853  1.5063 -2.0960
  104OSM   C13S10562   4.698   3.898   9.230 -0.1995  0.7844 -0.0459
  104OSM   H13S10563   4.801   3.884   9.271 -0.6608  0.2534  0.9946
  104OSM   H13T10564   4.673   3.998   9.189  0.7443  0.9083 -0.3367
  104OSM   C14S10565   4.686   3.810   9.110 -0.2522 -0.1874  0.0465
  104OSM   H14S10566   4.586   3.800   9.062  0.8809 -0.0473 -2.4895
  104OSM   H14T10567   4.723   3.707   9.129 -0.0633  0.0343  0.9648
  104OSM   C15S10568   4.783   3.861   9.000 -0.5857  0.2024  0.2338
  104OSM   H15S10569   4.888   3.845   9.032 -1.0047 -1.1467  1.0531
  104OSM   H15T10570   4.765   3.963   8.962  0.3201 -0.3650 -1.8406
  104OSM   C16S10571   4.769   3.774   8.874 -0.4957 -0.5938  0.6386
  104OSM   H16S10572   4.667   3.757   8.835  0.5002 -1.7825 -1.6864
  104OSM   H16T10573   4.824   3.679   8.896  0.7760  0.0017  0.1479
  104OSM   C17S10574   4.853   3.824   8.749  0.5914  0.0647  0.0913
  104OSM   H17S10575   4.949   3.867   8.786  0.0952  0.1984  1.2735
  104OSM   H17T10576   4.797   3.907   8.701  0.1207 -0.7342 -0.7820
  104OSM   C18S10577   4.861   3.716   8.641  0.0761 -0.0235 -0.0576
  104OSM   H18S10578   4.933   3.747   8.563 -0.1577 -1.1115 -0.7174
  104OSM   H18T10579   4.762   3.702   8.594 -0.5158  1.5095  0.6545
  104OSM   H18U10580   4.910   3.624   8.679 -1.3308 -0.3953  0.9457
  104OSM    C1F10581   4.601   4.265  10.459 -0.3365  0.8498  0.4258
  104OSM     OF10582   4.695   4.262  10.535 -0.3053  0.5926  0.1396
  104OSM    C2F10583   4.527   4.394  10.431 -0.4378  0.0864 -0.1652
  104OSM    H2F10584   4.517   4.434  10.534  1.6928  0.2848 -0.0012
  104OSM    H2G10585   4.433   4.371  10.376  0.1982 -1.1187 -0.8069
  104OSM    C3F10586   4.614   4.508  10.363  0.5300 -0.0492  0.0944
  104OSM    H3F10587   4.708   4.500  10.421  0.3394 -3.0673  0.1283
  104OSM    H3G10588   4.568   4.605  10.395 -0.8163 -0.4496 -0.5335
  104OSM    C4F10589   4.633   4.495  10.212  0.1739  1.2856  0.6378
  104OSM    H4F10590   4.682   4.583  10.164  2.8784 -0.9758 -1.0457
  104OSM    H4G10591   4.533   4.468  10.172  1.9318 -0.6415 -2.9015
  104OSM    C5F10592   4.719   4.369  10.169  0.6718  0.0713 -0.7357
  104OSM    H5F10593   4.671   4.272  10.195  0.6387 -0.3604 -2.2923
  104OSM    H5G10594   4.813   4.371  10.229  0.7448  0.1955 -0.8552
  104OSM    C6F10595   4.774   4.382  10.026  0.2753  0.5201  0.5314
  104OSM    H6F10596   4.861   4.314  10.017  0.0370 -0.0602  2.3263
  104OSM    H6G10597   4.813   4.485  10.009 -0.8554  0.4743 -3.1670
  104OSM    C7F10598   4.677   4.342   9.917 -0.5812  0.3048 -0.4218
  104OSM    H7F10599   4.580   4.395   9.931 -1.8044 -1.9782  0.4550
  104OSM    H7G10600   4.652   4.237   9.945  0.5876  0.2938  0.6589
  104OSM    C8F10601   4.732   4.355   9.775 -0.0717  0.5376  0.6220
  104OSM    H8F10602   4.837   4.320   9.773 -0.5427 -0.9275  0.3187
  104OSM    H8G10603   4.721   4.462   9.748 -1.5137 -0.1395 -1.8226
  104OSM    C9F10604   4.645   4.272   9.680 -0.2665  0.1979 -0.3746
  104OSM    H9F10605   4.582   4.192   9.724  1.9370 -1.4564 -0.0343
  104OSM   C10F10606   4.622   4.299   9.555  1.4815 -0.1443 -0.2784
  104OSM   H10F10607   4.555   4.234   9.496 -2.0835  2.1251  0.9535
  104OSM   C11F10608   4.676   4.405   9.475 -0.0156 -0.4164 -0.0709
  104OSM   H11F10609   4.770   4.446   9.518  0.4400 -2.1446  0.6723
  104OSM   H11G10610   4.597   4.481   9.457 -1.1407 -1.6105 -0.4187
  104OSM   C12F10611   4.727   4.381   9.327  0.8366  0.7427 -0.3359
  104OSM   H12F10612   4.822   4.323   9.339 -0.7012 -1.7968  0.4472
  104OSM   H12G10613   4.754   4.475   9.275  0.4007  1.1183  0.1138
  104OSM   C13F10614   4.624   4.295   9.243  0.1066  0.5167 -0.0595
  104OSM   H13F10615   4.523   4.342   9.239 -0.6790 -1.0066  0.6449
  104OSM   H13G10616   4.601   4.193   9.281  3.2094  0.3006  1.4818
  104OSM   C14F10617   4.669   4.273   9.094 -0.5405 -0.5305  0.4700
  104OSM   H14F10618   4.765   4.217   9.100 -1.1325 -1.7876 -1.1480
  104OSM   H14G10619   4.690   4.371   9.047  1.2241 -1.0051  0.1825
  104OSM   C15F10620   4.567   4.196   9.013  0.2336  0.3427 -0.5499
  104OSM   H15F10621   4.470   4.250   9.009  1.0490  1.7932 -1.2193
  104OSM   H15G10622   4.551   4.100   9.067  1.7059  0.1962 -0.3354
  104OSM   C16F10623   4.605   4.183   8.868  0.1329 -0.2252 -0.1155
  104OSM   H16F10624   4.709   4.146   8.853  0.6377 -0.4960  3.2713
  104OSM   H16G10625   4.603   4.288   8.832  0.2204  0.2465  1.1855
  104OSM   C17F10626   4.520   4.087   8.785  0.2503 -0.4559  0.0887
  104OSM   H17F10627   4.418   4.131   8.795  0.1971 -0.5230 -0.1421
  104OSM   H17G10628   4.514   3.982   8.821  1.9815 -0.5290  0.2509
  104OSM   C18F10629   4.564   4.092   8.643  0.3014 -0.0704  0.2600
  104OSM   H18F10630   4.672   4.109   8.623  0.0078 -0.2059 -1.6968
  104OSM   H18G10631   4.508   4.162   8.578  1.6630  0.6155 -0.2230
  104OSM   H18H10632   4.550   3.993   8.594  2.1688 -0.4587  0.4258
  105OSM      N10633   1.615   6.739  11.029 -0.1414  0.2701 -0.2153
  105OSM    C1510634   1.584   6.610  11.105  0.3728  0.2415 -0.1713
  105OSM   H15A10635   1.639   6.526  11.064  0.4795  0.2396 -0.0263
  105OSM   H15B10636   1.483   6.576  11.090  0.2710  0.7647 -0.7233
  105OSM   H15C10637   1.609   6.615  11.210  3.8117  0.6078 -0.8844
  105OSM    C1410638   1.517   6.842  11.090  0.0980  0.1690  0.7226
  105OSM   H14A10639   1.524   6.859  11.196  1.5168  0.2601  0.6418
  105OSM   H14B10640   1.418   6.814  11.057  0.6241 -2.0746  0.8883
  105OSM   H14C10641   1.532   6.941  11.050  1.0769 -0.3744 -0.3353
  105OSM    C1310642   1.756   6.788  11.055 -0.1712  0.3270  0.7662
  105OSM   H13A10643   1.825   6.706  11.043 -1.0043 -0.4007  0.8691
  105OSM   H13B10644   1.766   6.826  11.156  1.6028 -2.0483  1.5475
  105OSM   H13C10645   1.780   6.851  10.970  1.1358 -2.9912 -1.5077
  105OSM    C1210646   1.591   6.715  10.880  0.2043 -0.2259 -0.1037
  105OSM   H12A10647   1.578   6.815  10.841  0.0755  0.5765  1.8787
  105OSM   H12B10648   1.493   6.671  10.872 -0.0569  0.4617 -0.7263
  105OSM    C1110649   1.699   6.644  10.796  0.2148 -0.0869 -0.3215
  105OSM   H11A10650   1.793   6.701  10.780  0.3140 -0.7808 -2.6186
  105OSM   H11B10651   1.652   6.654  10.696 -0.9537 -0.4510  0.1605
  105OSM      P10652   1.857   6.451  10.870  0.1473  0.6653  0.2168
  105OSM    O1310653   1.942   6.552  10.929  0.2627 -0.8130  0.2613
  105OSM    O1410654   1.840   6.330  10.955  0.3037 -0.5029  0.1386
  105OSM    O1110655   1.907   6.412  10.725  0.5904 -0.0563 -0.4394
  105OSM    O1210656   1.715   6.508  10.849  0.4247 -0.0600  0.3348
  105OSM    C1S10657   1.808   6.372  10.627 -0.4383 -0.6529 -0.2993
  105OSM    H1S10658   1.769   6.462  10.575  1.6761 -0.3028 -1.3858
  105OSM    H1T10659   1.726   6.311  10.670 -0.7515  0.6952  1.0984
  105OSM     NF10660   1.768   6.275  10.408 -0.4790 -0.7134  0.0168
  105OSM    HNF10661   1.690   6.216  10.426 -0.3770 -0.6577  0.6820
  105OSM    C2S10662   1.865   6.276  10.518  0.6949  0.1233  0.0215
  105OSM    H2S10663   1.957   6.323  10.477 -0.5303  2.0735 -0.6432
  105OSM    C3S10664   1.893   6.135  10.574 -0.3580 -0.1052 -0.0241
  105OSM    H3S10665   1.791   6.094  10.590 -0.1977 -0.3986  0.2431
  105OSM     O310666   1.972   6.131  10.695 -0.4042 -0.1852  0.0881
  105OSM    HO310667   1.964   6.222  10.724  0.4204  0.3191 -1.1696
  105OSM    C4S10668   1.962   6.043  10.466  0.0867  0.6086  0.3882
  105OSM    H4S10669   1.889   5.997  10.397 -0.1351 -0.7270  1.4626
  105OSM    C5S10670   2.093   6.007  10.461  0.4114 -0.4634 -0.3124
  105OSM    H5S10671   2.161   6.039  10.541 -0.6573  0.9808  0.0626
  105OSM    C6S10672   2.159   5.917  10.362  0.3097 -0.2112  0.5674
  105OSM    H6S10673   2.153   5.812  10.398 -1.4550  0.6982  3.2653
  105OSM    H6T10674   2.268   5.940  10.360 -0.0014  1.3216  0.1701
  105OSM    C7S10675   2.108   5.924  10.218 -0.6072  0.5588 -0.3069
  105OSM    H7S10676   2.090   6.028  10.183  1.0119  1.1303  0.4889
  105OSM    H7T10677   2.008   5.879  10.202  0.0013 -0.2526 -2.2787
  105OSM    C8S10678   2.197   5.859  10.114 -0.6062 -0.2813  0.1720
  105OSM    H8S10679   2.228   5.761  10.158 -1.4841 -0.2428  0.8927
  105OSM    H8T10680   2.296   5.909  10.105 -1.3863  1.1120 -0.8963
  105OSM    C9S10681   2.134   5.857   9.976 -0.0032  0.2065  0.7284
  105OSM    H9S10682   2.148   5.955   9.925  4.4050 -0.9322 -0.6871
  105OSM    H9T10683   2.024   5.860   9.988 -0.1697 -1.0099 -0.2971
  105OSM   C10S10684   2.183   5.740   9.888 -0.1464 -0.0727  0.1632
  105OSM   H10S10685   2.174   5.640   9.935 -1.7383 -0.0762 -0.0646
  105OSM   H10T10686   2.293   5.746   9.878 -0.1900 -1.0498 -1.0422
  105OSM   C11S10687   2.105   5.731   9.754 -0.7044  0.7740 -0.3914
  105OSM   H11S10688   2.144   5.812   9.688 -1.1816  0.7490 -0.7136
  105OSM   H11T10689   1.999   5.761   9.768 -0.5787  0.0922  2.6664
  105OSM   C12S10690   2.115   5.600   9.685 -0.1826 -0.0119 -0.1814
  105OSM   H12S10691   2.063   5.526   9.748 -0.3770  0.4804  0.2462
  105OSM   H12T10692   2.222   5.570   9.676  0.0742  0.1771  1.8069
  105OSM   C13S10693   2.044   5.595   9.545  0.2767  0.2112  0.8267
  105OSM   H13S10694   1.934   5.579   9.556  0.5639 -3.5158 -0.1584
  105OSM   H13T10695   2.084   5.495   9.517 -0.4900  0.7570 -2.7440
  105OSM   C14S10696   2.091   5.689   9.438  0.3129  0.4913  0.1690
  105OSM   H14S10697   2.196   5.662   9.415  0.2543 -0.0720  0.5385
  105OSM   H14T10698   2.080   5.793   9.476 -0.2670  0.9215 -1.1496
  105OSM   C15S10699   2.021   5.676   9.311 -0.1804  0.6226  0.1001
  105OSM   H15S10700   1.913   5.704   9.313 -0.7528 -1.2238 -1.6515
  105OSM   H15T10701   2.030   5.567   9.293  2.0643  1.1120 -2.3802
  105OSM   C16S10702   2.097   5.751   9.192 -0.2857  0.4221 -0.3293
  105OSM   H16S10703   2.206   5.732   9.182 -0.4543 -0.8031 -0.0581
  105OSM   H16T10704   2.076   5.859   9.205  1.0681  0.8142 -1.1678
  105OSM   C17S10705   2.040   5.705   9.056 -0.4844  0.9152  0.2102
  105OSM   H17S10706   1.932   5.725   9.037 -0.3419  0.0807 -1.7099
  105OSM   H17T10707   2.065   5.597   9.052 -1.9358  0.5913 -1.1390
  105OSM   C18S10708   2.121   5.764   8.935  0.1091 -0.2319 -0.2845
  105OSM   H18S10709   2.228   5.739   8.949  0.9236  1.5046 -2.7999
  105OSM   H18T10710   2.120   5.875   8.939  0.2335 -0.2666  1.4540
  105OSM   H18U10711   2.087   5.724   8.837 -1.3533 -2.7784  1.1429
  105OSM    C1F10712   1.757   6.383  10.331  0.2954 -0.7211  1.2657
  105OSM     OF10713   1.830   6.486  10.346 -0.3891  0.7943 -0.2704
  105OSM    C2F10714   1.639   6.399  10.239 -0.4264 -0.0962  0.0314
  105OSM    H2F10715   1.614   6.508  10.237 -0.9782 -0.0048  4.0316
  105OSM    H2G10716   1.550   6.345  10.277 -0.8838  0.9963  0.5830
  105OSM    C3F10717   1.681   6.349  10.098  0.1753 -1.3598 -0.0840
  105OSM    H3F10718   1.750   6.262  10.097  1.2875 -0.5590 -2.5269
  105OSM    H3G10719   1.747   6.432  10.062 -0.9898 -0.6910 -0.7544
  105OSM    C4F10720   1.561   6.331  10.005 -0.9479 -0.6406  0.6712
  105OSM    H4F10721   1.504   6.426  10.007 -0.1162 -0.0590 -1.1696
  105OSM    H4G10722   1.499   6.245  10.038 -1.0219 -1.5362 -1.5978
  105OSM    C5F10723   1.610   6.319   9.862  0.1608  0.3405 -0.0500
  105OSM    H5F10724   1.687   6.239   9.853 -0.1116 -0.0609  1.0677
  105OSM    H5G10725   1.672   6.411   9.856 -2.1364  1.8680 -3.1844
  105OSM    C6F10726   1.509   6.301   9.747  0.0710 -0.1016  0.8250
  105OSM    H6F10727   1.413   6.356   9.757  1.4843  2.6676  0.3280
  105OSM    H6G10728   1.485   6.193   9.738 -0.5867  0.0130  1.1703
  105OSM    C7F10729   1.572   6.347   9.609  0.8215  0.3124 -0.0209
  105OSM    H7F10730   1.640   6.274   9.560  1.3028  1.3794 -0.9786
  105OSM    H7G10731   1.633   6.436   9.634  0.1685  0.6940  0.2286
  105OSM    C8F10732   1.465   6.380   9.504 -0.2705 -0.3889 -0.6755
  105OSM    H8F10733   1.375   6.421   9.556  0.8014 -1.8290  2.5660
  105OSM    H8G10734   1.428   6.279   9.477 -1.1153 -0.9332  2.2001
  105OSM    C9F10735   1.531   6.464   9.391  0.1207  0.7707  0.2103
  105OSM    H9F10736   1.581   6.559   9.416  1.9993 -0.3008  0.7309
  105OSM   C10F10737   1.545   6.409   9.267 -0.7338 -0.1664 -0.3366
  105OSM   H10F10738   1.589   6.477   9.193 -1.9388  0.0368 -0.9038
  105OSM   C11F10739   1.504   6.280   9.207  0.1338 -0.2453  0.1758
  105OSM   H11F10740   1.490   6.195   9.277 -0.3435 -0.8270 -0.6133
  105OSM   H11G10741   1.589   6.255   9.141  1.3103 -0.1348  1.5956
  105OSM   C12F10742   1.378   6.307   9.131 -0.0122  1.2145  0.0454
  105OSM   H12F10743   1.393   6.397   9.068  1.8409  0.1777 -1.0521
  105OSM   H12G10744   1.290   6.317   9.198  0.3844 -0.0296  0.7729
  105OSM   C13F10745   1.352   6.187   9.037 -0.4569 -0.5447  0.1228
  105OSM   H13F10746   1.324   6.094   9.090 -1.5649 -0.5214 -0.3860
  105OSM   H13G10747   1.445   6.153   8.986  0.2520 -1.7284  2.1052
  105OSM   C14F10748   1.234   6.207   8.941 -0.5764 -0.0532 -0.3533
  105OSM   H14F10749   1.138   6.188   8.994 -1.2336 -1.6976 -2.0231
  105OSM   H14G10750   1.232   6.123   8.868  1.0874 -2.3585  2.0218
  105OSM   C15F10751   1.230   6.335   8.866 -0.2216 -0.3134 -0.6668
  105OSM   H15F10752   1.332   6.358   8.829  0.2116 -0.1695  0.5763
  105OSM   H15G10753   1.207   6.414   8.941 -1.6145  0.2453 -1.6354
  105OSM   C16F10754   1.128   6.336   8.751 -0.2152 -0.3603 -0.2301
  105OSM   H16F10755   1.160   6.269   8.668 -0.2837 -2.3678  1.2848
  105OSM   H16G10756   1.140   6.444   8.729  0.4471  0.0836  2.0803
  105OSM   C17F10757   0.981   6.312   8.783  0.2415  0.6702  0.2132
  105OSM   H17F10758   0.967   6.210   8.825 -0.2482  0.9626  0.7823
  105OSM   H17G10759   0.930   6.320   8.685  1.1481  4.1048 -0.1136
  105OSM   C18F10760   0.924   6.420   8.880 -0.1944 -0.1929  0.0893
  105OSM   H18F10761   0.956   6.399   8.984  3.6967 -0.5660 -1.0271
  105OSM   H18G10762   0.813   6.419   8.880 -0.2138 -1.4610  1.2606
  105OSM   H18H10763   0.958   6.520   8.844 -1.7433  0.8436  1.3142
  106OSM      N10764   0.494   4.848  10.809  0.7668  0.6882 -0.1982
  106OSM    C1510765   0.416   4.940  10.893 -0.6612 -0.6862 -0.2494
  106OSM   H15A10766   0.351   4.897  10.967 -1.0191  0.3066  0.0332
  106OSM   H15B10767   0.357   5.009  10.834  0.9809  3.3380  2.3396
  106OSM   H15C10768   0.491   5.003  10.940 -1.0118  0.4008 -1.0951
  106OSM    C1410769   0.580   4.768  10.895  0.5250 -0.0921  0.5148
  106OSM   H14A10770   0.656   4.832  10.936 -0.8536  1.8739  0.1383
  106OSM   H14B10771   0.625   4.685  10.841  1.3569  1.0550 -0.6086
  106OSM   H14C10772   0.545   4.736  10.992  2.7725 -2.0260  0.7908
  106OSM    C1310773   0.403   4.760  10.738  0.3107  0.6051 -0.4299
  106OSM   H13A10774   0.456   4.681  10.688  0.1935 -0.9216  1.7102
  106OSM   H13B10775   0.351   4.801  10.652 -0.5594  0.9514  0.2432
  106OSM   H13C10776   0.330   4.706  10.798 -0.4357 -2.7496 -3.9535
  106OSM    C1210777   0.566   4.931  10.710 -0.0583 -0.2204 -0.3405
  106OSM   H12A10778   0.628   5.000  10.764 -2.0000  0.9833  0.4613
  106OSM   H12B10779   0.499   5.009  10.675 -0.8563 -0.5793  0.3636
  106OSM    C1110780   0.648   4.874  10.594 -0.0167 -0.7444  0.2351
  106OSM   H11A10781   0.667   4.956  10.522 -2.3437  0.8290  1.2648
  106OSM   H11B10782   0.581   4.800  10.546  0.0772 -0.1294 -0.8737
  106OSM      P10783   0.888   4.886  10.689  0.4082  0.1772 -0.1054
  106OSM    O1310784   0.854   5.012  10.762  0.4245  0.5351 -0.2814
  106OSM    O1410785   0.987   4.795  10.751  0.2365  0.3059 -0.3637
  106OSM    O1110786   0.958   4.922  10.546 -0.3467 -0.4993 -0.4638
  106OSM    O1210787   0.764   4.806  10.649 -0.2671  0.3425  0.0259
  106OSM    C1S10788   1.066   5.014  10.535  0.9068 -0.8121 -0.3844
  106OSM    H1S10789   1.151   4.994  10.604  1.2015 -2.1357 -1.0831
  106OSM    H1T10790   1.027   5.114  10.561  1.0243 -0.1413 -2.5893
  106OSM     NF10791   1.269   5.074  10.407  0.5196 -0.9466 -0.0914
  106OSM    HNF10792   1.273   5.171  10.385  0.2011 -0.4632  1.8393
  106OSM    C2S10793   1.137   5.014  10.396  0.2234 -0.1115 -0.6214
  106OSM    H2S10794   1.167   4.908  10.379 -1.5744 -0.6985 -0.3530
  106OSM    C3S10795   1.046   5.073  10.287  0.3471 -0.0297 -1.4498
  106OSM    H3S10796   1.043   5.182  10.311  1.2431 -0.2226 -0.3740
  106OSM     O310797   0.916   5.018  10.281  0.5890  0.2912  0.3814
  106OSM    HO310798   0.913   4.966  10.362 -0.3207 -0.6354 -0.2137
  106OSM    C4S10799   1.115   5.077  10.149  0.6853  0.0010 -0.7419
  106OSM    H4S10800   1.195   5.152  10.152 -0.7660  1.5940 -0.3527
  106OSM    C5S10801   1.086   5.016  10.034  0.1658  0.2627  0.2305
  106OSM    H5S10802   0.998   4.952  10.022  1.0769 -1.3954  1.9403
  106OSM    C6S10803   1.166   5.032   9.910 -0.3352 -0.2295 -0.6982
  106OSM    H6S10804   1.210   4.933   9.885 -1.6495 -0.9134 -0.4105
  106OSM    H6T10805   1.248   5.104   9.929 -1.0829 -0.2838  3.9739
  106OSM    C7S10806   1.084   5.081   9.790 -0.0598 -0.7169  0.0599
  106OSM    H7S10807   1.066   5.188   9.809  0.1173 -0.8438  0.9462
  106OSM    H7T10808   0.991   5.020   9.787 -0.8048  0.4251 -1.0504
  106OSM    C8S10809   1.158   5.075   9.654  0.8811  0.4633 -0.2522
  106OSM    H8S10810   1.258   5.122   9.668  2.1551 -1.1332 -3.2044
  106OSM    H8T10811   1.090   5.120   9.578 -0.6503 -0.5127  0.4988
  106OSM    C9S10812   1.173   4.933   9.602 -0.7297  0.2045  0.3280
  106OSM    H9S10813   1.075   4.887   9.576  0.0054 -0.6989 -0.9129
  106OSM    H9T10814   1.222   4.876   9.684 -1.1359 -2.1469 -0.9892
  106OSM   C10S10815   1.266   4.923   9.477  0.1354 -0.0652  0.2185
  106OSM   H10S10816   1.322   4.827   9.489 -2.7347 -1.6644  2.2039
  106OSM   H10T10817   1.333   5.011   9.483 -3.9473  3.3678  0.1063
  106OSM   C11S10818   1.187   4.921   9.341 -0.2011  0.2391 -0.0756
  106OSM   H11S10819   1.152   5.023   9.317  0.0714  0.1937 -0.6839
  106OSM   H11T10820   1.099   4.856   9.361 -1.1124  2.1167  2.5714
  106OSM   C12S10821   1.276   4.880   9.227  0.1787 -0.1343 -0.0893
  106OSM   H12S10822   1.305   4.774   9.244 -2.0681 -0.7446  0.3179
  106OSM   H12T10823   1.368   4.941   9.218 -0.1035  0.2315 -0.5631
  106OSM   C13S10824   1.197   4.892   9.090 -0.1889  0.4909 -0.6182
  106OSM   H13S10825   1.279   4.885   9.015  0.6620  1.4380  0.1914
  106OSM   H13T10826   1.136   4.984   9.082 -1.8242 -0.4247  0.6976
  106OSM   C14S10827   1.119   4.764   9.065 -0.0270 -0.3915  0.3676
  106OSM   H14S10828   1.038   4.769   9.140 -0.2523  0.7092  0.0765
  106OSM   H14T10829   1.183   4.676   9.088 -1.5783 -1.2899  1.4005
  106OSM   C15S10830   1.050   4.747   8.923 -0.1481  0.2269  0.8368
  106OSM   H15S10831   1.114   4.796   8.847 -0.1979  1.4881  1.5716
  106OSM   H15T10832   0.964   4.818   8.920 -1.7775 -1.6689  0.2432
  106OSM   C16S10833   1.014   4.603   8.891  0.0000 -0.2803 -0.6922
  106OSM   H16S10834   0.953   4.557   8.972  0.4400  0.4558  0.0784
  106OSM   H16T10835   1.107   4.543   8.886 -1.0975 -1.9841 -1.4633
  106OSM   C17S10836   0.933   4.589   8.764  0.3941  0.3917 -0.0361
  106OSM   H17S10837   0.838   4.643   8.785 -0.7182 -0.4927 -2.5089
  106OSM   H17T10838   0.898   4.485   8.752 -4.0694  1.3800  1.9320
  106OSM   C18S10839   1.001   4.637   8.637  0.1264  0.4069 -0.4753
  106OSM   H18S10840   1.098   4.587   8.622  0.6912  1.3787 -0.1457
  106OSM   H18T10841   1.020   4.747   8.630 -1.4859  0.7155 -0.5293
  106OSM   H18U10842   0.935   4.621   8.549 -1.7385  0.1338  0.8911
  106OSM    C1F10843   1.378   5.022  10.468  0.1426 -0.5284  0.6187
  106OSM     OF10844   1.372   4.916  10.541  0.0613 -0.2999  0.4253
  106OSM    C2F10845   1.505   5.099  10.444  0.1705 -0.1143 -0.7967
  106OSM    H2F10846   1.522   5.166  10.531 -1.0603  0.2228 -0.8033
  106OSM    H2G10847   1.487   5.164  10.356  2.4249 -0.5388 -1.6481
  106OSM    C3F10848   1.633   5.014  10.423  0.1270 -0.7895  0.6330
  106OSM    H3F10849   1.665   4.966  10.519  1.1485  1.8739  1.7141
  106OSM    H3G10850   1.719   5.076  10.389  0.7437 -2.2316 -0.5388
  106OSM    C4F10851   1.615   4.907  10.311 -0.5588 -0.3819  0.2158
  106OSM    H4F10852   1.534   4.839  10.345 -1.2223  0.3778  0.1625
  106OSM    H4G10853   1.713   4.857  10.324 -0.5182  0.1211  2.0880
  106OSM    C5F10854   1.580   4.952  10.171  0.0537 -1.1027 -0.0247
  106OSM    H5F10855   1.667   5.010  10.133 -0.2304 -1.6776 -1.6151
  106OSM    H5G10856   1.495   5.023  10.183 -0.6267 -2.2309  2.6226
  106OSM    C6F10857   1.552   4.843  10.070  0.4197  0.7296 -0.2472
  106OSM    H6F10858   1.465   4.783  10.103  1.9542 -0.3808  2.0835
  106OSM    H6G10859   1.647   4.784  10.070  1.9549  3.0186  1.3741
  106OSM    C7F10860   1.528   4.901   9.928  0.1033  0.1947  0.5894
  106OSM    H7F10861   1.614   4.967   9.904  0.8480 -1.1780 -0.6565
  106OSM    H7G10862   1.436   4.962   9.922  0.2496  0.2871 -1.4618
  106OSM    C8F10863   1.517   4.789   9.826  0.1249  0.0694  0.0126
  106OSM    H8F10864   1.468   4.823   9.733 -0.4444 -1.1232 -0.1413
  106OSM    H8G10865   1.448   4.711   9.865 -0.7266  0.4472 -0.7104
  106OSM    C9F10866   1.650   4.722   9.801 -0.0413 -0.7101 -0.7953
  106OSM    H9F10867   1.700   4.666   9.881  1.3986 -0.4427 -1.4743
  106OSM   C10F10868   1.725   4.722   9.687  1.3534 -0.0657  0.7515
  106OSM   H10F10869   1.813   4.657   9.680  0.8050 -0.6789 -0.8450
  106OSM   C11F10870   1.692   4.787   9.553  0.3965  0.2004 -0.3481
  106OSM   H11F10871   1.762   4.867   9.521  1.5607 -0.6680 -0.0463
  106OSM   H11G10872   1.590   4.829   9.565 -0.7909 -1.9288 -2.2213
  106OSM   C12F10873   1.696   4.678   9.447 -0.2996  0.5955  0.3410
  106OSM   H12F10874   1.646   4.585   9.481 -1.1057  1.7265  2.5430
  106OSM   H12G10875   1.800   4.651   9.422  0.2820  0.9495  2.2153
  106OSM   C13F10876   1.627   4.715   9.316 -0.8677 -0.2960 -0.1387
  106OSM   H13F10877   1.659   4.820   9.298  2.9000 -0.9409  1.9115
  106OSM   H13G10878   1.516   4.720   9.317 -0.8228  2.7172 -0.9223
  106OSM   C14F10879   1.670   4.627   9.198 -0.1076 -0.8728  0.5535
  106OSM   H14F10880   1.624   4.526   9.201 -3.3855  0.4289 -0.3847
  106OSM   H14G10881   1.777   4.597   9.199  0.2804  0.2602 -1.3013
  106OSM   C15F10882   1.634   4.697   9.066 -0.3559  1.1275  0.0622
  106OSM   H15F10883   1.725   4.709   9.003 -2.0024  2.4086 -2.2269
  106OSM   H15G10884   1.579   4.789   9.095 -1.9047  0.2758 -0.0582
  106OSM   C16F10885   1.532   4.620   8.984  1.0935  0.5357 -0.2613
  106OSM   H16F10886   1.443   4.610   9.049  0.5861 -1.6399 -1.1988
  106OSM   H16G10887   1.576   4.519   8.963  0.3358 -0.4528  2.4841
  106OSM   C17F10888   1.499   4.690   8.858 -0.0083  0.1977  0.1489
  106OSM   H17F10889   1.591   4.705   8.798 -0.6758 -0.9634 -1.2401
  106OSM   H17G10890   1.463   4.788   8.896 -0.8193 -0.0079 -0.0605
  106OSM   C18F10891   1.385   4.625   8.777 -0.5447  0.1373  0.0432
  106OSM   H18F10892   1.296   4.611   8.843 -1.0129 -1.6390 -0.8959
  106OSM   H18G10893   1.424   4.525   8.748  0.8040  0.3604  0.9675
  106OSM   H18H10894   1.366   4.697   8.695 -1.7214  0.8668  0.9103
  107OSM      N10895   2.704   3.185  10.913  0.8527  0.1677 -0.0068
  107OSM    C1510896   2.824   3.141  10.985 -0.1059 -0.3216 -0.1550
  107OSM   H15A10897   2.878   3.228  11.019  1.1917 -1.3149  0.4666
  107OSM   H15B10898   2.895   3.090  10.922  2.1890 -0.3554  2.2733
  107OSM   H15C10899   2.817   3.072  11.069  1.5268 -1.2397 -0.7305
  107OSM    C1410900   2.612   3.254  11.003 -0.2002 -0.0826  0.8666
  107OSM   H14A10901   2.538   3.181  11.032 -1.3610  0.0225 -1.6413
  107OSM   H14B10902   2.555   3.326  10.948 -1.0914 -1.0706  0.4706
  107OSM   H14C10903   2.653   3.292  11.096  0.2009 -2.3194  1.6797
  107OSM    C1310904   2.749   3.285  10.805 -0.4231  0.2449 -0.1405
  107OSM   H13A10905   2.767   3.383  10.847 -0.1403 -0.0409  0.4044
  107OSM   H13B10906   2.671   3.304  10.733  0.1378  0.3315 -0.7443
  107OSM   H13C10907   2.839   3.251  10.755 -0.4540 -1.2138  0.7701
  107OSM    C1210908   2.640   3.063  10.841 -0.4368  0.7377  0.5158
  107OSM   H12A10909   2.707   3.020  10.769 -0.0508  2.1814 -0.0231
  107OSM   H12B10910   2.560   3.106  10.782  0.4538  1.7180 -0.0141
  107OSM    C1110911   2.604   2.950  10.930 -0.3252 -0.3006 -0.1890
  107OSM   H11A10912   2.690   2.927  10.996 -0.7413 -0.6311  0.2346
  107OSM   H11B10913   2.592   2.849  10.885 -0.3370 -2.1421  3.6192
  107OSM      P10914   2.343   2.982  10.961 -0.1259  0.0485  0.2510
  107OSM    O1310915   2.263   2.911  11.063 -0.1030 -0.1858  0.4284
  107OSM    O1410916   2.290   3.121  10.931  0.0832  0.1748  0.3092
  107OSM    O1110917   2.343   2.894  10.828  0.3360 -0.0113 -0.7890
  107OSM    O1210918   2.495   2.980  11.011 -0.5318 -0.0321 -0.4339
  107OSM    C1S10919   2.212   2.867  10.775 -0.2713  0.1273 -0.0210
  107OSM    H1S10920   2.160   2.964  10.761 -0.0120  0.1500 -0.8531
  107OSM    H1T10921   2.152   2.809  10.849  0.4371  0.3626  0.7548
  107OSM     NF10922   2.090   2.780  10.581  0.2545  0.2204 -0.1982
  107OSM    HNF10923   2.041   2.695  10.598  1.6650 -0.6921 -0.5991
  107OSM    C2S10924   2.224   2.789  10.644 -0.0740  0.2443 -0.7627
  107OSM    H2S10925   2.289   2.863  10.592 -1.0723  0.6800 -1.4083
  107OSM    C3S10926   2.292   2.648  10.667 -0.8002  0.6965  0.6568
  107OSM    H3S10927   2.213   2.586  10.715  0.4816 -2.2288 -0.8004
  107OSM     O310928   2.403   2.656  10.754 -0.2475  0.3826  0.1140
  107OSM    HO310929   2.386   2.730  10.812 -0.9593 -0.1674  0.6321
  107OSM    C4S10930   2.333   2.590  10.535  0.0295  0.2758 -0.5982
  107OSM    H4S10931   2.394   2.653  10.469  1.4121  1.5891  1.7798
  107OSM    C5S10932   2.300   2.462  10.504 -0.2641 -0.5490 -0.3720
  107OSM    H5S10933   2.249   2.395  10.574 -1.2310 -1.9401 -2.3051
  107OSM    C6S10934   2.335   2.400  10.372 -0.3009  0.1727 -0.1339
  107OSM    H6S10935   2.284   2.303  10.354 -0.8765  0.4146  0.1784
  107OSM    H6T10936   2.445   2.380  10.373 -0.6314 -1.8849 -0.4590
  107OSM    C7S10937   2.280   2.492  10.258 -0.0847  0.2285 -0.2144
  107OSM    H7S10938   2.329   2.591  10.250  0.4285  0.0356  0.4337
  107OSM    H7T10939   2.173   2.510  10.284  0.3395  2.8616  0.0220
  107OSM    C8S10940   2.277   2.419  10.124  0.8929 -0.4699  0.8841
  107OSM    H8S10941   2.207   2.333  10.136  1.2010 -0.8467  0.0464
  107OSM    H8T10942   2.376   2.371  10.108 -0.5016 -3.8792  1.5965
  107OSM    C9S10943   2.243   2.506  10.005 -0.0133 -0.1826  0.3236
  107OSM    H9S10944   2.307   2.597  10.000 -0.7260  0.2792 -0.9738
  107OSM    H9T10945   2.142   2.551  10.015 -0.4534 -1.3513  1.3393
  107OSM   C10S10946   2.244   2.433   9.864 -0.2849  0.1142  0.6404
  107OSM   H10S10947   2.167   2.482   9.801  2.3525  1.4899 -1.7180
  107OSM   H10T10948   2.206   2.329   9.871  2.5562 -1.1436 -1.1273
  107OSM   C11S10949   2.386   2.420   9.808 -0.1120 -0.2936 -0.3308
  107OSM   H11S10950   2.445   2.370   9.888  1.4204  0.5571 -0.8809
  107OSM   H11T10951   2.428   2.521   9.786 -1.1547  0.6744  1.7794
  107OSM   C12S10952   2.381   2.339   9.683 -1.0892 -0.0350 -0.1353
  107OSM   H12S10953   2.325   2.243   9.695  0.0816 -1.2160 -3.0892
  107OSM   H12T10954   2.485   2.306   9.664 -1.1179  0.7891 -1.9098
  107OSM   C13S10955   2.324   2.418   9.561  0.8013 -0.3153 -0.0879
  107OSM   H13S10956   2.385   2.508   9.543  0.5865 -0.7079 -3.4871
  107OSM   H13T10957   2.217   2.439   9.585  1.0724 -0.1213  1.0151
  107OSM   C14S10958   2.322   2.335   9.431  0.1032 -0.1425  0.3569
  107OSM   H14S10959   2.254   2.248   9.447  1.0486 -1.1605 -0.9228
  107OSM   H14T10960   2.420   2.292   9.401  0.0538  1.1343 -1.8340
  107OSM   C15S10961   2.279   2.425   9.310  0.2297 -0.5183 -0.0558
  107OSM   H15S10962   2.362   2.498   9.299  0.5318 -0.9664 -0.9359
  107OSM   H15T10963   2.180   2.469   9.333 -0.6489 -2.0226 -0.7697
  107OSM   C16S10964   2.256   2.358   9.173 -0.1116  0.5028  0.0523
  107OSM   H16S10965   2.209   2.440   9.115 -1.9028  1.0744  2.1759
  107OSM   H16T10966   2.187   2.271   9.170  1.1187 -0.4808 -1.4660
  107OSM   C17S10967   2.394   2.346   9.089  1.0609 -0.4277  0.0645
  107OSM   H17S10968   2.437   2.252   9.129  1.2079 -0.9157 -1.2074
  107OSM   H17T10969   2.456   2.431   9.123  0.9699 -1.4740  3.1503
  107OSM   C18S10970   2.378   2.319   8.944 -0.1977 -0.7309  0.2193
  107OSM   H18S10971   2.307   2.237   8.923  0.7811 -1.7182  0.6995
  107OSM   H18T10972   2.468   2.285   8.888  0.0845  1.6436 -0.9365
  107OSM   H18U10973   2.344   2.408   8.886  4.6853  2.7248  1.9808
  107OSM    C1F10974   2.037   2.879  10.516  0.3165 -0.1603  0.0874
  107OSM     OF10975   2.086   2.995  10.519  0.2837  0.0671  0.2611
  107OSM    C2F10976   1.910   2.844  10.446  0.3138  0.0074  0.2343
  107OSM    H2F10977   1.843   2.931  10.451 -0.1709 -0.0613 -3.0174
  107OSM    H2G10978   1.862   2.754  10.490  0.0621 -0.2799 -0.5999
  107OSM    C3F10979   1.924   2.794  10.298 -0.2256  0.3912 -0.1738
  107OSM    H3F10980   1.972   2.695  10.314  2.9549  1.4165 -2.4880
  107OSM    H3G10981   1.991   2.855  10.235 -1.7635  1.5204 -0.7828
  107OSM    C4F10982   1.793   2.753  10.232 -0.3051  0.3115  0.2683
  107OSM    H4F10983   1.731   2.845  10.227  0.4433  0.8120 -0.0632
  107OSM    H4G10984   1.752   2.679  10.304  1.0044 -0.7758 -0.0605
  107OSM    C5F10985   1.800   2.699  10.089 -0.5130 -0.7223  0.3533
  107OSM    H5F10986   1.705   2.645  10.068 -0.4629 -0.2234 -1.2738
  107OSM    H5G10987   1.871   2.614  10.083 -0.6386 -0.7684 -0.7868
  107OSM    C6F10988   1.837   2.803   9.979  0.5329 -0.1376 -0.1562
  107OSM    H6F10989   1.941   2.836  10.000  0.2286  0.5398  0.3233
  107OSM    H6G10990   1.787   2.902   9.977 -1.0302 -0.8728  0.7202
  107OSM    C7F10991   1.845   2.743   9.837  0.7698  0.2511 -0.0357
  107OSM    H7F10992   1.742   2.707   9.817  0.4821 -0.6556  2.6622
  107OSM    H7G10993   1.896   2.645   9.825  0.6008 -0.0323  1.3712
  107OSM    C8F10994   1.903   2.832   9.725 -0.4638 -0.2148 -0.5680
  107OSM    H8F10995   1.865   2.937   9.728  1.3008  0.5228 -2.1918
  107OSM    H8G10996   1.869   2.800   9.624 -1.2411 -1.8597  0.1883
  107OSM    C9F10997   2.051   2.831   9.746  0.8473  0.4439  0.1849
  107OSM    H9F10998   2.079   2.864   9.848 -0.4117  0.2388  0.6148
  107OSM   C10F10999   2.144   2.795   9.650 -0.1717 -0.4338 -0.0787
  107OSM   H10F11000   2.252   2.794   9.673 -0.0378 -1.7086 -0.6500
  107OSM   C11F11001   2.111   2.759   9.506  0.1383  0.4010 -0.2684
  107OSM   H11F11002   2.022   2.814   9.470 -2.6922 -1.7943  2.7950
  107OSM   H11G11003   2.090   2.650   9.495 -1.2000  0.8473 -2.6709
  107OSM   C12F11004   2.233   2.788   9.416  0.7451  0.1679 -0.0262
  107OSM   H12F11005   2.320   2.720   9.427  1.2154  0.3369 -2.1577
  107OSM   H12G11006   2.268   2.890   9.441 -0.1545  0.3140  0.6739
  107OSM   C13F11007   2.198   2.795   9.270  0.3084 -0.1269 -0.3026
  107OSM   H13F11008   2.128   2.877   9.245  0.8154  0.0374 -1.2265
  107OSM   H13G11009   2.150   2.702   9.232  0.1716 -0.2048  0.0509
  107OSM   C14F11010   2.325   2.817   9.185 -0.7799 -0.4143 -0.1853
  107OSM   H14F11011   2.403   2.742   9.212  2.2977  1.8343 -2.0946
  107OSM   H14G11012   2.377   2.914   9.201  0.1825 -0.8825 -0.3477
  107OSM   C15F11013   2.293   2.803   9.031  0.2286  0.4622 -0.3798
  107OSM   H15F11014   2.209   2.876   9.025 -1.1208 -0.9058  0.8788
  107OSM   H15G11015   2.258   2.700   9.008  0.9731  0.2095 -0.3933
  107OSM   C16F11016   2.410   2.844   8.940 -0.0213 -0.1362  0.5740
  107OSM   H16F11017   2.441   2.947   8.967 -0.3748 -0.0926  0.8225
  107OSM   H16G11018   2.368   2.837   8.837 -2.0711  3.8455  0.9348
  107OSM   C17F11019   2.539   2.762   8.937 -0.1411  0.4454 -0.5375
  107OSM   H17F11020   2.521   2.656   8.910  0.9825  0.3047 -0.7775
  107OSM   H17G11021   2.580   2.767   9.041 -0.5684  0.2416 -0.3564
  107OSM   C18F11022   2.640   2.825   8.848 -0.0387 -0.1647  0.4451
  107OSM   H18F11023   2.675   2.928   8.873  0.1967 -0.2318  0.3985
  107OSM   H18G11024   2.610   2.820   8.741  2.1778  1.2115 -0.3121
  107OSM   H18H11025   2.730   2.760   8.854 -0.7629 -1.1946  0.4574
  108OSM      N11026   0.900   4.532  10.432  0.0576  0.7889  0.5670
  108OSM    C1511027   0.889   4.411  10.340  0.3088 -0.1391  0.6272
  108OSM   H15A11028   0.933   4.427  10.243 -3.0156 -1.5552 -1.3240
  108OSM   H15B11029   0.789   4.370  10.337 -0.4356  1.6444 -1.8425
  108OSM   H15C11030   0.948   4.327  10.375 -0.7629 -0.3939  1.9122
  108OSM    C1411031   1.037   4.560  10.470 -0.0135  0.3220  0.7971
  108OSM   H14A11032   1.082   4.468  10.503 -1.6048 -0.6292  0.3996
  108OSM   H14B11033   1.048   4.636  10.547  0.5804  0.2717  0.7639
  108OSM   H14C11034   1.101   4.590  10.389  1.4128 -0.1504  1.7276
  108OSM    C1311035   0.856   4.647  10.356  0.2689 -1.2476  0.9185
  108OSM   H13A11036   0.861   4.740  10.412 -0.6008 -1.6672  1.7347
  108OSM   H13B11037   0.756   4.633  10.319  0.1626  0.5144  0.4524
  108OSM   H13C11038   0.920   4.651  10.270 -1.3362 -3.1080 -0.4393
  108OSM    C1211039   0.806   4.506  10.554 -0.4706 -0.0290  0.6799
  108OSM   H12A11040   0.827   4.586  10.623  2.3934 -0.6612  0.6800
  108OSM   H12B11041   0.839   4.413  10.598  2.3410  0.7487  0.4350
  108OSM    C1111042   0.653   4.511  10.534 -0.3460  0.4665 -0.2886
  108OSM   H11A11043   0.626   4.598  10.471  1.1496  0.2544 -1.2687
  108OSM   H11B11044   0.596   4.533  10.627 -1.2141  4.5185 -1.5827
  108OSM      P11045   0.576   4.261  10.532  0.1732  0.1184  0.0125
  108OSM    O1311046   0.689   4.169  10.503 -0.1525 -0.4022 -0.0019
  108OSM    O1411047   0.533   4.296  10.671  0.1078  0.7294  0.5646
  108OSM    O1111048   0.457   4.207  10.450  0.3620  0.4517 -0.1925
  108OSM    O1211049   0.602   4.398  10.462  0.0916  0.4706  1.1058
  108OSM    C1S11050   0.351   4.290  10.399  0.5583 -0.7531  0.0294
  108OSM    H1S11051   0.384   4.395  10.384  1.4983 -1.2732 -1.9234
  108OSM    H1T11052   0.259   4.291  10.461  1.0132  0.6457  0.7132
  108OSM     NF11053   0.204   4.321  10.206 -0.2977  0.4210  0.4671
  108OSM    HNF11054   0.111   4.286  10.202 -0.0502 -0.1265 -1.0058
  108OSM    C2S11055   0.310   4.243  10.255 -0.7725  0.6104  0.1366
  108OSM    H2S11056   0.405   4.250  10.198  0.1642 -1.8785  1.2518
  108OSM    C3S11057   0.276   4.087  10.255 -0.2836  0.6010 -0.2617
  108OSM    H3S11058   0.190   4.075  10.324 -0.2324 -0.9156 -0.4106
  108OSM     O311059   0.380   4.005  10.312  0.3155 -0.3478  0.2462
  108OSM    HO311060   0.416   4.065  10.378  0.4952  0.0506 -0.2066
  108OSM    C4S11061   0.255   4.032  10.122 -0.2774  0.3645  0.3063
  108OSM    H4S11062   0.331   4.064  10.050 -3.3250  1.4261 -2.6997
  108OSM    C5S11063   0.144   3.968  10.080 -0.8357  0.0766 -0.0161
  108OSM    H5S11064   0.061   3.957  10.151 -1.1147  1.9214  0.0141
  108OSM    C6S11065   0.124   3.929   9.937 -0.6015 -0.2681  0.8784
  108OSM    H6S11066   0.033   3.983   9.905  0.8452  1.1364 -1.1789
  108OSM    H6T11067   0.111   3.819   9.929  2.1104 -0.5994 -0.1295
  108OSM    C7S11068   0.237   3.971   9.830  0.3356 -0.4258  0.2829
  108OSM    H7S11069   0.319   3.898   9.852  1.1585  0.1942 -0.6253
  108OSM    H7T11070   0.282   4.072   9.838 -0.9395  0.5107 -2.9793
  108OSM    C8S11071   0.204   3.926   9.692  0.2043 -0.1589  0.3559
  108OSM    H8S11072   0.122   3.999   9.677 -1.5730 -1.5673  2.5124
  108OSM    H8T11073   0.170   3.820   9.694 -0.3343  0.0125  0.6994
  108OSM    C9S11074   0.318   3.935   9.602 -0.3474 -1.0727  0.2479
  108OSM    H9S11075   0.404   3.869   9.626  1.1663 -0.0305 -1.9964
  108OSM    H9T11076   0.360   4.038   9.606  1.9136 -1.9731  2.1635
  108OSM   C10S11077   0.289   3.890   9.458 -0.4976  0.1819 -0.0255
  108OSM   H10S11078   0.206   3.950   9.416 -1.4633 -0.5757  0.7187
  108OSM   H10T11079   0.255   3.784   9.469  1.9935 -0.6450  0.2437
  108OSM   C11S11080   0.410   3.899   9.364  0.6518  0.4181  0.6552
  108OSM   H11S11081   0.495   3.838   9.401 -1.2003 -2.2685  0.7240
  108OSM   H11T11082   0.450   4.003   9.358  1.5690  0.0022 -1.1464
  108OSM   C12S11083   0.374   3.851   9.225  0.1833  0.0602 -0.7781
  108OSM   H12S11084   0.301   3.768   9.223 -1.9426  1.7222  1.4942
  108OSM   H12T11085   0.472   3.814   9.189 -0.0182 -2.6708  1.1965
  108OSM   C13S11086   0.334   3.967   9.133  0.0294  0.4483 -0.7598
  108OSM   H13S11087   0.412   4.044   9.147  1.4096 -0.5174 -2.6062
  108OSM   H13T11088   0.236   4.006   9.169  0.4720  1.9242 -1.0850
  108OSM   C14S11089   0.320   3.923   8.984  0.2325 -0.0584 -0.5920
  108OSM   H14S11090   0.259   3.831   8.989  0.9503 -0.5046  0.4350
  108OSM   H14T11091   0.423   3.910   8.944  1.1769  0.5974  1.4888
  108OSM   C15S11092   0.238   4.019   8.899  0.7149  1.0056 -0.2117
  108OSM   H15S11093   0.299   4.109   8.876  1.5736  0.3593 -0.5142
  108OSM   H15T11094   0.147   4.042   8.958  1.1333 -0.7195  1.1770
  108OSM   C16S11095   0.182   3.951   8.767 -0.1848  0.3087  0.2065
  108OSM   H16S11096   0.170   3.844   8.794 -1.1168  0.5361  0.7272
  108OSM   H16T11097   0.266   3.970   8.696  1.1134 -0.1160  1.5850
  108OSM   C17S11098   0.047   4.012   8.721 -0.5279 -0.0020  0.1876
  108OSM   H17S11099  -0.019   4.027   8.809 -0.9966  0.3180 -0.2113
  108OSM   H17T11100   0.005   3.938   8.650  1.1435 -1.0481  0.2309
  108OSM   C18S11101   0.078   4.150   8.656 -0.1897  0.8665 -0.3748
  108OSM   H18S11102   0.132   4.142   8.560  1.0371 -0.0601  0.3577
  108OSM   H18T11103   0.125   4.220   8.728 -2.2931  1.1394  0.8163
  108OSM   H18U11104  -0.018   4.200   8.630  0.8091  3.5371  0.7828
  108OSM    C1F11105   0.221   4.447  10.159 -0.7335 -0.2388 -0.0524
  108OSM     OF11106   0.327   4.505  10.180 -0.3059  0.4201 -0.1300
  108OSM    C2F11107   0.105   4.517  10.100  0.5378 -0.0209 -0.2730
  108OSM    H2F11108   0.083   4.614  10.150  2.2143  1.3184 -1.9568
  108OSM    H2G11109   0.025   4.442  10.113  0.3717  0.4611  1.7730
  108OSM    C3F11110   0.134   4.548   9.953 -0.1181 -0.4724  0.4444
  108OSM    H3F11111   0.233   4.599   9.953  0.9314 -2.3972  1.1934
  108OSM    H3G11112   0.059   4.614   9.906  1.4819 -2.4111 -5.7931
  108OSM    C4F11113   0.144   4.425   9.863  0.2946 -0.0768 -0.1812
  108OSM    H4F11114   0.046   4.376   9.882  1.1138 -0.4199  4.3761
  108OSM    H4G11115   0.228   4.359   9.895  0.4455 -0.7840 -1.9435
  108OSM    C5F11116   0.166   4.457   9.724  0.3868  0.2981  0.0015
  108OSM    H5F11117   0.273   4.470   9.694 -0.1592 -0.0832 -2.2626
  108OSM    H5G11118   0.104   4.541   9.686 -2.4259 -2.0601 -0.9938
  108OSM    C6F11119   0.108   4.346   9.633  0.0541  0.6475  1.0093
  108OSM    H6F11120  -0.002   4.333   9.641 -0.1192 -0.1265 -1.7456
  108OSM    H6G11121   0.149   4.248   9.665 -0.9450 -0.5904 -1.2782
  108OSM    C7F11122   0.157   4.372   9.483  0.4299 -0.2221  0.8362
  108OSM    H7F11123   0.265   4.398   9.484  0.8535 -1.5936 -1.8023
  108OSM    H7G11124   0.099   4.460   9.448  0.7576 -0.8416 -1.3702
  108OSM    C8F11125   0.106   4.256   9.395  0.2056  0.2711 -0.2743
  108OSM    H8F11126  -0.004   4.256   9.413  0.5273  0.5866  2.0229
  108OSM    H8G11127   0.143   4.168   9.452  3.0753  1.4816 -0.1163
  108OSM    C9F11128   0.157   4.252   9.251 -0.2498  0.2158 -0.2396
  108OSM    H9F11129   0.266   4.249   9.235 -0.2674 -0.1477 -0.2964
  108OSM   C10F11130   0.073   4.263   9.145  0.0905 -0.6160 -0.1225
  108OSM   H10F11131   0.126   4.260   9.049  0.4665  1.1160  0.0011
  108OSM   C11F11132  -0.077   4.291   9.149 -0.7317  0.3339  0.0559
  108OSM   H11F11133  -0.076   4.398   9.179  0.8723  0.0136  1.2624
  108OSM   H11G11134  -0.127   4.225   9.224 -1.8414 -2.4061 -2.8371
  108OSM   C12F11135  -0.143   4.289   9.007 -0.3604 -0.2546  0.1312
  108OSM   H12F11136  -0.157   4.184   8.974  1.3752 -0.8542  1.1446
  108OSM   H12G11137  -0.088   4.352   8.934 -3.4545  1.9732 -0.5182
  108OSM   C13F11138  -0.289   4.343   9.017 -0.5380  0.3028 -0.3514
  108OSM   H13F11139  -0.283   4.436   9.077 -0.5187 -0.4020  0.7682
  108OSM   H13G11140  -0.368   4.284   9.070  0.7492 -0.4119  0.8378
  108OSM   C14F11141  -0.345   4.386   8.874 -0.1664 -0.1720 -0.7373
  108OSM   H14F11142  -0.252   4.423   8.825  0.0402  1.7543  1.0010
  108OSM   H14G11143  -0.421   4.465   8.891 -2.4572 -2.4723  0.5913
  108OSM   C15F11144  -0.427   4.273   8.808 -0.5691  0.1772 -0.1561
  108OSM   H15F11145  -0.532   4.277   8.842 -0.5490 -0.5512  0.0149
  108OSM   H15G11146  -0.368   4.182   8.833 -0.1221  0.3403 -0.6090
  108OSM   C16F11147  -0.436   4.283   8.652  0.3617  0.3169 -0.6422
  108OSM   H16F11148  -0.466   4.386   8.623  0.2396  0.9864  1.6520
  108OSM   H16G11149  -0.510   4.214   8.607 -0.1219 -0.1274  0.7801
  108OSM   C17F11150  -0.305   4.250   8.583 -0.3774  0.5155  0.4769
  108OSM   H17F11151  -0.267   4.148   8.606 -2.3093  0.1011  2.0842
  108OSM   H17G11152  -0.230   4.321   8.623  1.5058 -0.8214 -0.5035
  108OSM   C18F11153  -0.311   4.266   8.429  0.5235  0.7872 -0.1321
  108OSM   H18F11154  -0.207   4.240   8.398  0.7228  2.5492 -1.0249
  108OSM   H18G11155  -0.343   4.371   8.418 -2.1007  0.2143  1.2767
  108OSM   H18H11156  -0.396   4.212   8.383  0.8706  0.4126 -0.3458
  109OSM      N11157   5.745   2.363  11.274  0.4126 -0.8369  0.1952
  109OSM    C1511158   5.687   2.228  11.287  0.5505  0.5183 -0.6004
  109OSM   H15A11159   5.597   2.217  11.228  0.8040 -0.0718 -0.8958
  109OSM   H15B11160   5.654   2.202  11.386 -1.3923 -0.2767 -1.3927
  109OSM   H15C11161   5.752   2.154  11.242  0.1311 -1.4821  1.8308
  109OSM    C1411162   5.652   2.478  11.317 -0.1958 -0.5542  0.3196
  109OSM   H14A11163   5.692   2.576  11.293 -0.4731  0.0898  2.2543
  109OSM   H14B11164   5.641   2.477  11.425 -1.7110 -0.5085  0.1740
  109OSM   H14C11165   5.559   2.477  11.264  1.0954 -1.3271 -2.0547
  109OSM    C1311166   5.862   2.367  11.365  0.0001  0.1362  0.3086
  109OSM   H13A11167   5.931   2.286  11.345 -0.0533  0.2949 -0.5375
  109OSM   H13B11168   5.854   2.367  11.473  2.4470  0.1312  0.5387
  109OSM   H13C11169   5.913   2.458  11.339 -2.1699  2.4288  3.3347
  109OSM    C1211170   5.802   2.384  11.132 -0.4125  0.2229  0.6320
  109OSM   H12A11171   5.882   2.313  11.115 -2.0065 -1.8462  1.3102
  109OSM   H12B11172   5.837   2.485  11.122 -0.9395  0.4798  1.3255
  109OSM    C1111173   5.705   2.356  11.014  0.0257  0.6296 -0.4896
  109OSM   H11A11174   5.675   2.249  11.019 -0.1950  0.6427 -1.3349
  109OSM   H11B11175   5.755   2.355  10.915  3.5598 -0.9810  1.1511
  109OSM      P11176   5.612   2.577  10.935 -0.0409 -0.2492  0.2634
  109OSM    O1311177   5.498   2.669  10.954 -0.3107 -0.0894  0.3419
  109OSM    O1411178   5.747   2.634  10.968  0.2772 -0.1629 -0.4018
  109OSM    O1111179   5.608   2.517  10.790 -0.2455 -0.2565 -0.2914
  109OSM    O1211180   5.592   2.442  11.021 -0.4663  0.3912 -0.8032
  109OSM    C1S11181   5.574   2.602  10.673 -0.6991 -0.1342  0.0021
  109OSM    H1S11182   5.606   2.707  10.685  0.2499 -0.4878  0.7739
  109OSM    H1T11183   5.464   2.597  10.659 -0.5806 -1.6979 -0.6834
  109OSM     NF11184   5.579   2.614  10.430 -0.0912  0.2637  0.5087
  109OSM    HNF11185   5.518   2.552  10.380  1.8517 -1.2383 -0.1355
  109OSM    C2S11186   5.641   2.549  10.541 -0.0527  1.0711 -0.3652
  109OSM    H2S11187   5.751   2.564  10.541 -0.3805  4.1280 -2.0932
  109OSM    C3S11188   5.630   2.385  10.537 -1.3549 -0.6130  0.2529
  109OSM    H3S11189   5.520   2.378  10.556 -1.7150  1.1223 -0.9683
  109OSM     O311190   5.712   2.312  10.622 -0.7603  0.3529 -0.3337
  109OSM    HO311191   5.748   2.385  10.672  0.4082 -1.4146  1.5670
  109OSM    C4S11192   5.671   2.326  10.403  0.2932 -0.2796  0.4355
  109OSM    H4S11193   5.772   2.354  10.369 -0.0164  0.3697  0.0346
  109OSM    C5S11194   5.595   2.249  10.325 -0.1872  0.0169  0.0516
  109OSM    H5S11195   5.497   2.221  10.365 -0.5803  0.3584 -0.6437
  109OSM    C6S11196   5.633   2.203  10.192 -0.5395 -0.1792 -0.6804
  109OSM    H6S11197   5.622   2.093  10.190 -0.8512 -0.1875  0.5363
  109OSM    H6T11198   5.740   2.223  10.168  0.1533 -0.7443  1.6826
  109OSM    C7S11199   5.549   2.278  10.087 -0.8768 -0.6646  0.0043
  109OSM    H7S11200   5.544   2.389  10.092 -0.4604 -0.5820 -1.1546
  109OSM    H7T11201   5.445   2.240  10.100 -1.2093 -0.7614 -2.3896
  109OSM    C8S11202   5.590   2.235   9.948  0.3705  0.7065  0.2275
  109OSM    H8S11203   5.606   2.126   9.934 -0.6775  0.8737 -3.1692
  109OSM    H8T11204   5.685   2.289   9.930  0.7854  0.3673  1.3068
  109OSM    C9S11205   5.486   2.277   9.841 -0.7737  0.0457  0.0630
  109OSM    H9S11206   5.447   2.375   9.876 -1.5720 -0.4944  0.7204
  109OSM    H9T11207   5.401   2.205   9.842  0.2696 -1.2529 -0.7576
  109OSM   C10S11208   5.548   2.284   9.698 -0.4670 -0.3161  0.5329
  109OSM   H10S11209   5.586   2.188   9.656 -1.3815 -0.4100 -0.1270
  109OSM   H10T11210   5.631   2.357   9.696  0.5789 -1.4770  0.4530
  109OSM   C11S11211   5.433   2.319   9.602 -0.0124 -0.2829  0.5962
  109OSM   H11S11212   5.384   2.405   9.652  0.9625 -0.2346  1.4951
  109OSM   H11T11213   5.362   2.235   9.591  1.9685 -1.9483 -0.1192
  109OSM   C12S11214   5.483   2.364   9.461 -0.2485  0.1767  0.8591
  109OSM   H12S11215   5.507   2.276   9.397  0.0231  0.3005  0.7879
  109OSM   H12T11216   5.578   2.419   9.480 -0.0199 -0.4915  1.6879
  109OSM   C13S11217   5.386   2.454   9.394  0.0188  0.3603  0.4547
  109OSM   H13S11218   5.347   2.521   9.475  0.4545  1.3392 -0.1225
  109OSM   H13T11219   5.292   2.401   9.368  0.9528 -0.9514 -0.3079
  109OSM   C14S11220   5.438   2.527   9.270 -0.3005 -0.2951  0.9642
  109OSM   H14S11221   5.521   2.592   9.305 -1.7689  1.0979  2.0241
  109OSM   H14T11222   5.367   2.603   9.230  1.2063  0.3800 -0.5569
  109OSM   C15S11223   5.489   2.426   9.161  0.3516  0.4702  0.1244
  109OSM   H15S11224   5.550   2.346   9.208  0.6939  0.7357  0.1341
  109OSM   H15T11225   5.557   2.482   9.094 -0.7676  0.2239 -1.2508
  109OSM   C16S11226   5.378   2.361   9.079  0.1419 -0.0703 -0.6999
  109OSM   H16S11227   5.332   2.293   9.154 -0.7917  1.4253  0.1263
  109OSM   H16T11228   5.427   2.297   9.003  0.7717  2.9266 -2.9990
  109OSM   C17S11229   5.274   2.442   9.002 -0.4480 -1.0624 -0.0651
  109OSM   H17S11230   5.334   2.498   8.927 -1.3332 -0.0018 -0.0006
  109OSM   H17T11231   5.215   2.512   9.063  3.3575  0.8926  1.6681
  109OSM   C18S11232   5.170   2.358   8.924 -0.0983 -0.3060  0.4693
  109OSM   H18S11233   5.235   2.309   8.849 -0.9901 -0.0186 -0.5184
  109OSM   H18T11234   5.089   2.421   8.880 -1.1195 -1.6206  0.4102
  109OSM   H18U11235   5.115   2.293   8.995 -1.9548  0.0249 -0.6104
  109OSM    C1F11236   5.593   2.745  10.394  0.4558 -0.1915 -0.9042
  109OSM     OF11237   5.671   2.819  10.462  0.0471  0.0138  0.4133
  109OSM    C2F11238   5.508   2.795  10.281 -0.2117 -0.4061 -0.9885
  109OSM    H2F11239   5.575   2.821  10.197  0.4216 -1.8413 -0.9565
  109OSM    H2G11240   5.456   2.885  10.321  0.7601 -0.9005  1.5975
  109OSM    C3F11241   5.407   2.695  10.224  0.1871  0.9098  0.6332
  109OSM    H3F11242   5.345   2.656  10.307 -2.3591  0.9501 -1.1607
  109OSM    H3G11243   5.470   2.627  10.162  0.3937  2.8321 -1.3882
  109OSM    C4F11244   5.308   2.757  10.122 -0.2186  0.2961  0.2983
  109OSM    H4F11245   5.266   2.838  10.186 -3.6137 -2.7659  2.3659
  109OSM    H4G11246   5.221   2.694  10.096 -2.0058  2.8353 -0.2324
  109OSM    C5F11247   5.383   2.800   9.996 -0.4128 -1.1962 -0.7408
  109OSM    H5F11248   5.478   2.848  10.030 -1.8009  0.4529  1.0045
  109OSM    H5G11249   5.320   2.879   9.950  1.6508  1.6522  0.9852
  109OSM    C6F11250   5.406   2.683   9.905  0.3522 -0.1207 -0.2362
  109OSM    H6F11251   5.301   2.658   9.877  0.3622 -1.7238  1.0062
  109OSM    H6G11252   5.449   2.594   9.957 -1.4704 -1.6183 -1.1638
  109OSM    C7F11253   5.499   2.714   9.783 -0.1098  0.3130 -0.3260
  109OSM    H7F11254   5.516   2.610   9.749 -1.6371 -1.1622  2.9958
  109OSM    H7G11255   5.598   2.758   9.810  0.5004  0.7588 -2.9923
  109OSM    C8F11256   5.429   2.799   9.674 -0.2440  0.7990  0.2547
  109OSM    H8F11257   5.386   2.891   9.717  3.1183  1.8388  1.7927
  109OSM    H8G11258   5.352   2.736   9.624  0.9862  0.3449 -1.1714
  109OSM    C9F11259   5.513   2.841   9.557 -0.4071  0.0834 -0.8199
  109OSM    H9F11260   5.608   2.785   9.550 -2.2942 -3.4628 -0.1428
  109OSM   C10F11261   5.481   2.931   9.457 -0.2913 -0.0329  0.3626
  109OSM   H10F11262   5.553   2.939   9.375  0.1761 -0.3531  0.7345
  109OSM   C11F11263   5.343   2.999   9.447  0.4948  0.6872 -0.0396
  109OSM   H11F11264   5.362   3.098   9.495  0.2336  1.3839 -1.3082
  109OSM   H11G11265   5.262   2.949   9.502  0.4580 -0.8418 -1.4103
  109OSM   C12F11266   5.285   3.018   9.304 -0.0409 -0.1798  0.2305
  109OSM   H12F11267   5.361   3.079   9.251  0.0701  0.6824  1.3508
  109OSM   H12G11268   5.190   3.076   9.306 -0.3025 -0.6012  1.3738
  109OSM   C13F11269   5.261   2.881   9.220 -0.4984  0.5091 -0.6998
  109OSM   H13F11270   5.183   2.820   9.270  1.0988  0.0859  1.4281
  109OSM   H13G11271   5.350   2.818   9.242 -1.5626 -0.7352  0.2218
  109OSM   C14F11272   5.236   2.916   9.076  0.5646 -0.1247  0.6482
  109OSM   H14F11273   5.318   2.981   9.040 -0.2810  1.0109  0.7190
  109OSM   H14G11274   5.143   2.977   9.077  1.2462  1.1088  3.9752
  109OSM   C15F11275   5.215   2.798   8.972  0.5556  0.4870 -0.1956
  109OSM   H15F11276   5.121   2.746   9.000  0.4582  1.9940  2.6792
  109OSM   H15G11277   5.297   2.725   8.991  0.8121  0.1434 -2.4426
  109OSM   C16F11278   5.220   2.819   8.822  0.2840 -0.4152  0.8601
  109OSM   H16F11279   5.321   2.852   8.788 -0.2278 -0.6327 -0.9863
  109OSM   H16G11280   5.149   2.902   8.801 -1.3971 -2.4904 -2.5643
  109OSM   C17F11281   5.166   2.695   8.736  0.1652 -1.0485 -0.0269
  109OSM   H17F11282   5.229   2.604   8.745 -0.5952 -1.5823 -0.0572
  109OSM   H17G11283   5.172   2.733   8.632 -1.4642  0.7807  0.4958
  109OSM   C18F11284   5.025   2.643   8.771 -0.0577  0.5413 -0.2458
  109OSM   H18F11285   4.953   2.725   8.752 -2.6858 -1.5907 -0.0489
  109OSM   H18G11286   5.005   2.615   8.877  1.1255 -0.5517 -0.2780
  109OSM   H18H11287   4.989   2.564   8.701  0.4860 -1.7922  1.9477
  110OSM      N11288   5.135   1.378  11.154  0.4279  0.0340  0.0163
  110OSM    C1511289   5.232   1.443  11.248 -0.0469 -0.3517 -0.5204
  110OSM   H15A11290   5.187   1.534  11.284 -1.2859 -0.9481 -0.4825
  110OSM   H15B11291   5.327   1.461  11.201 -0.3229  0.5446 -0.7550
  110OSM   H15C11292   5.256   1.375  11.328  0.1247  0.7617  0.3936
  110OSM    C1411293   5.008   1.358  11.230  0.1515 -0.4823 -0.5517
  110OSM   H14A11294   4.972   1.454  11.264  2.1564  0.1514 -0.0406
  110OSM   H14B11295   5.026   1.283  11.306 -1.8808 -1.8318 -1.3169
  110OSM   H14C11296   4.930   1.308  11.175 -0.1869 -0.5416 -0.0220
  110OSM    C1311297   5.104   1.462  11.030 -0.5990  0.1447  0.0184
  110OSM   H13A11298   5.121   1.567  11.046 -4.5593  0.7658  1.2446
  110OSM   H13B11299   5.001   1.446  11.000 -0.9060  1.2017  0.4884
  110OSM   H13C11300   5.158   1.425  10.944  0.8852  0.8223  0.6315
  110OSM    C1211301   5.191   1.241  11.108 -0.1531 -0.3856  0.4054
  110OSM   H12A11302   5.112   1.174  11.075  1.0559 -1.2384 -0.8844
  110OSM   H12B11303   5.215   1.179  11.193 -2.3642 -2.8284 -0.5871
  110OSM    C1111304   5.301   1.239  11.010 -0.0386  0.1351  0.0133
  110OSM   H11A11305   5.390   1.290  11.054  0.0863  0.4786 -0.6167
  110OSM   H11B11306   5.279   1.302  10.921  1.6361  0.5526 -0.1327
  110OSM      P11307   5.458   1.071  10.894  0.4100 -0.0108 -0.2742
  110OSM    O1311308   5.512   1.185  10.822  0.3240  0.3170  0.2791
  110OSM    O1411309   5.544   1.010  11.003  0.6977 -0.2710  0.3409
  110OSM    O1111310   5.418   0.963  10.787 -0.3226 -0.6402 -0.1426
  110OSM    O1211311   5.321   1.106  10.964 -0.4368  0.1161  0.5470
  110OSM    C1S11312   5.375   1.004  10.658 -0.0491  0.6382  0.5683
  110OSM    H1S11313   5.328   1.105  10.663  0.1171  0.7709 -0.4540
  110OSM    H1T11314   5.298   0.932  10.623  0.9422 -0.7221  1.0891
  110OSM     NF11315   5.404   1.044  10.422 -0.2074 -0.2691  0.0991
  110OSM    HNF11316   5.366   0.972  10.364 -2.2267 -0.0773  1.0963
  110OSM    C2S11317   5.482   1.003  10.534  0.2470 -0.0419 -0.8303
  110OSM    H2S11318   5.556   1.083  10.550  1.2412 -1.4326  2.2343
  110OSM    C3S11319   5.547   0.859  10.527 -0.6608  0.0697  0.3112
  110OSM    H3S11320   5.469   0.781  10.513  1.1277 -1.8532  0.5696
  110OSM     O311321   5.603   0.820  10.647 -0.4411  0.6671 -0.6429
  110OSM    HO311322   5.588   0.884  10.717 -0.4579 -1.9128  1.8884
  110OSM    C4S11323   5.655   0.865  10.421  1.3146  0.0356 -0.1863
  110OSM    H4S11324   5.746   0.924  10.438  1.5196 -0.7400  1.6430
  110OSM    C5S11325   5.649   0.798  10.301 -0.8534  0.1782 -0.9679
  110OSM    H5S11326   5.565   0.730  10.284  0.2466 -1.4102 -0.3232
  110OSM    C6S11327   5.750   0.795  10.193  0.5809 -0.2584  0.5825
  110OSM    H6S11328   5.750   0.699  10.137  1.6141 -0.4510  0.8848
  110OSM    H6T11329   5.854   0.807  10.230  0.9762  1.5053 -0.9313
  110OSM    C7S11330   5.721   0.890  10.079 -0.2761  0.3433  0.4468
  110OSM    H7S11331   5.806   0.880  10.009  0.5528 -0.3833  1.5101
  110OSM    H7T11332   5.715   0.993  10.121  1.4062  0.2132  1.0847
  110OSM    C8S11333   5.599   0.852  10.006  0.0339  0.5598  1.1565
  110OSM    H8S11334   5.513   0.824  10.071 -2.2755 -0.1867 -1.9539
  110OSM    H8T11335   5.634   0.768   9.942 -1.4806 -2.5776  4.1446
  110OSM    C9S11336   5.530   0.957   9.919  0.3109  0.2701 -0.2023
  110OSM    H9S11337   5.615   0.994   9.858 -0.9164  0.4449 -1.8669
  110OSM    H9T11338   5.493   1.044   9.977 -0.2405  1.2105 -1.9117
  110OSM   C10S11339   5.423   0.913   9.827  0.2953 -0.3421  0.0919
  110OSM   H10S11340   5.353   0.849   9.884  0.1122  0.0475  0.3119
  110OSM   H10T11341   5.464   0.831   9.764 -0.7954 -1.5652  0.9245
  110OSM   C11S11342   5.367   1.035   9.758 -0.3132 -0.5338 -0.1736
  110OSM   H11S11343   5.450   1.088   9.706  1.5371 -1.0067  2.1314
  110OSM   H11T11344   5.322   1.106   9.831 -0.9553 -1.2901  0.1721
  110OSM   C12S11345   5.252   1.012   9.657 -0.4734 -0.6462 -0.7985
  110OSM   H12S11346   5.175   1.091   9.671 -0.7489 -1.1557  0.8347
  110OSM   H12T11347   5.215   0.911   9.687  0.4682 -0.7899 -0.0683
  110OSM   C13S11348   5.288   1.020   9.509 -0.2325 -0.5240  0.5041
  110OSM   H13S11349   5.196   0.970   9.471  0.5729 -0.7339 -1.2980
  110OSM   H13T11350   5.370   0.953   9.475  0.2651  1.7668 -3.6194
  110OSM   C14S11351   5.314   1.166   9.461  0.3746  0.4240 -0.6866
  110OSM   H14S11352   5.411   1.200   9.502  1.3609 -0.4757 -2.1559
  110OSM   H14T11353   5.229   1.225   9.502  0.0289 -0.0852 -0.6517
  110OSM   C15S11354   5.308   1.177   9.311 -0.3232 -0.2914 -0.7855
  110OSM   H15S11355   5.218   1.120   9.279 -1.2331 -0.0874  1.2696
  110OSM   H15T11356   5.409   1.144   9.279  0.6860  1.5572  0.3175
  110OSM   C16S11357   5.287   1.319   9.258  0.3408  0.2606 -0.2495
  110OSM   H16S11358   5.371   1.388   9.279  1.1365 -1.2533  1.9691
  110OSM   H16T11359   5.203   1.365   9.314  0.7964  1.1905 -0.3130
  110OSM   C17S11360   5.230   1.316   9.120 -0.0283  0.4385  0.3979
  110OSM   H17S11361   5.159   1.401   9.112  2.6654  2.7591 -1.0840
  110OSM   H17T11362   5.167   1.229   9.093  4.5580 -3.0868 -0.2349
  110OSM   C18S11363   5.326   1.333   8.994  0.7386  1.0936  0.5465
  110OSM   H18S11364   5.279   1.284   8.907 -0.1865 -0.6130  1.9445
  110OSM   H18T11365   5.415   1.271   9.016  0.2298  0.3363  0.4982
  110OSM   H18U11366   5.358   1.436   8.966  0.3584  0.9041 -0.6199
  110OSM    C1F11367   5.366   1.166  10.383 -0.2931  0.2148  0.4460
  110OSM     OF11368   5.417   1.269  10.432 -0.5726  0.0636  0.0211
  110OSM    C2F11369   5.257   1.176  10.273  0.5300  0.7889 -0.4201
  110OSM    H2F11370   5.161   1.164  10.328  1.6478  2.3861  2.0304
  110OSM    H2G11371   5.266   1.092  10.200  0.6424 -0.1952  0.7023
  110OSM    C3F11372   5.242   1.311  10.199 -0.1074  0.6866 -0.3190
  110OSM    H3F11373   5.335   1.324  10.140 -0.2891 -0.8836 -1.0029
  110OSM    H3G11374   5.267   1.390  10.273  2.1798 -1.3828  1.2807
  110OSM    C4F11375   5.120   1.321  10.109 -0.2006  0.1543  0.2398
  110OSM    H4F11376   5.024   1.307  10.164  1.0041 -4.4969  1.6084
  110OSM    H4G11377   5.113   1.231  10.043 -0.2747  0.4827 -0.2038
  110OSM    C5F11378   5.126   1.440  10.019  0.4231 -0.1136  0.1325
  110OSM    H5F11379   5.205   1.419   9.943 -1.0134  0.4261 -1.5536
  110OSM    H5G11380   5.153   1.530  10.078 -0.6299  0.4760 -0.2574
  110OSM    C6F11381   5.002   1.450   9.931  0.4057 -1.0845 -0.1382
  110OSM    H6F11382   4.911   1.479   9.987  0.0111 -4.2397  1.0696
  110OSM    H6G11383   4.993   1.354   9.875 -0.8241 -0.2017 -1.5218
  110OSM    C7F11384   5.016   1.567   9.834  0.2045 -1.0175  0.6135
  110OSM    H7F11385   5.111   1.543   9.781 -0.0637 -1.5621  0.3812
  110OSM    H7G11386   5.023   1.657   9.900 -0.1310 -1.5781  1.4323
  110OSM    C8F11387   4.908   1.559   9.726  0.2820 -0.9082 -0.5886
  110OSM    H8F11388   4.914   1.657   9.675  1.6263 -0.3608  0.5598
  110OSM    H8G11389   4.806   1.568   9.771  1.1765  1.0588  1.1983
  110OSM    C9F11390   4.912   1.447   9.625 -0.6585  0.2819 -0.8336
  110OSM    H9F11391   4.906   1.347   9.670  0.8299  1.1073  1.3927
  110OSM   C10F11392   4.955   1.446   9.501  0.7266  0.2304 -0.0693
  110OSM   H10F11393   4.953   1.354   9.441 -2.5696  0.9049 -1.2601
  110OSM   C11F11394   4.990   1.571   9.416  0.8209  0.1900  0.4086
  110OSM   H11F11395   5.093   1.565   9.376  0.7625  1.9371 -0.0476
  110OSM   H11G11396   4.994   1.658   9.485  2.8402 -1.7592  2.9685
  110OSM   C12F11397   4.890   1.590   9.297 -0.2529  0.3609  0.0501
  110OSM   H12F11398   4.790   1.554   9.331  0.1173  1.0619  2.0067
  110OSM   H12G11399   4.931   1.519   9.223  5.0171  1.4288  1.5491
  110OSM   C13F11400   4.886   1.727   9.234  0.3816 -0.5813 -0.3154
  110OSM   H13F11401   4.992   1.760   9.237  0.2877 -0.3406  0.4839
  110OSM   H13G11402   4.820   1.794   9.294  0.4843  1.5239 -2.4387
  110OSM   C14F11403   4.836   1.719   9.096 -0.2459 -0.7827  0.5058
  110OSM   H14F11404   4.732   1.681   9.095 -1.2273  1.6260  2.2755
  110OSM   H14G11405   4.894   1.642   9.040  0.7976 -0.8858  1.6946
  110OSM   C15F11406   4.831   1.867   9.037  0.2326  0.3340  0.5585
  110OSM   H15F11407   4.934   1.906   9.040  0.9915 -1.5444  3.3912
  110OSM   H15G11408   4.775   1.939   9.100 -2.5660 -0.3371 -0.9871
  110OSM   C16F11409   4.785   1.880   8.893 -0.5628 -0.3786  0.2420
  110OSM   H16F11410   4.674   1.874   8.890 -0.7125  0.9422  1.9395
  110OSM   H16G11411   4.835   1.799   8.836 -1.6184  0.2965 -1.7219
  110OSM   C17F11412   4.817   2.015   8.832  0.3643 -0.0722  0.7136
  110OSM   H17F11413   4.927   2.030   8.824  0.0966  1.7727 -0.0087
  110OSM   H17G11414   4.769   2.087   8.901 -0.4415 -0.1640  0.2599
  110OSM   C18F11415   4.752   2.032   8.691  0.2844 -0.9084 -0.7994
  110OSM   H18F11416   4.813   1.989   8.609  0.2369  0.2278 -1.4616
  110OSM   H18G11417   4.744   2.138   8.657  0.4786 -1.1089 -1.4803
  110OSM   H18H11418   4.648   1.992   8.684 -1.9432  2.6323  4.7116
  111OSM      N11419   1.810   5.787  10.866  0.0401  0.1044  0.3019
  111OSM    C1511420   1.751   5.695  10.967  0.5431 -0.2455  0.4956
  111OSM   H15A11421   1.721   5.603  10.920 -0.9082  1.0621 -1.2879
  111OSM   H15B11422   1.664   5.743  11.010  0.1083  2.2144 -2.7353
  111OSM   H15C11423   1.831   5.673  11.037  2.3304  0.0974 -1.3470
  111OSM    C1411424   1.812   5.922  10.927 -0.7673 -0.2627 -0.1830
  111OSM   H14A11425   1.881   5.935  11.009  2.2147  1.3400 -2.6993
  111OSM   H14B11426   1.711   5.939  10.961 -0.9410 -1.8796  0.1886
  111OSM   H14C11427   1.839   5.995  10.852  0.9748 -1.3267 -0.6426
  111OSM    C1311428   1.951   5.755  10.830  0.3350 -0.2342 -0.7498
  111OSM   H13A11429   1.990   5.692  10.909  3.4326  2.3642  0.0027
  111OSM   H13B11430   2.010   5.846  10.822  0.1487 -0.0442 -0.0745
  111OSM   H13C11431   1.962   5.707  10.734  0.5056 -0.3885 -0.6550
  111OSM    C1211432   1.733   5.799  10.736  0.2517  0.1957  0.7741
  111OSM   H12A11433   1.784   5.854  10.658  0.8061 -1.5530 -0.1457
  111OSM   H12B11434   1.634   5.837  10.754 -1.2144 -2.5238 -0.8745
  111OSM    C1111435   1.688   5.668  10.671 -0.3732  0.8173 -0.5486
  111OSM   H11A11436   1.779   5.610  10.644 -0.2202  1.0187 -0.4711
  111OSM   H11B11437   1.645   5.689  10.571 -0.2190  2.6796 -0.2636
  111OSM      P11438   1.527   5.457  10.716  0.3320 -0.0338  0.0848
  111OSM    O1311439   1.637   5.356  10.708 -0.0046 -0.0144  0.2494
  111OSM    O1411440   1.408   5.439  10.806  0.4528  0.6783  0.4595
  111OSM    O1111441   1.464   5.481  10.579  0.5130 -0.2224 -0.4132
  111OSM    O1211442   1.591   5.594  10.749 -0.0350 -0.8084  0.1578
  111OSM    C1S11443   1.367   5.584  10.550 -0.0942  0.4301 -0.1472
  111OSM    H1S11444   1.412   5.680  10.585 -0.8437  0.0353  2.0617
  111OSM    H1T11445   1.263   5.562  10.582  1.0397 -3.5979  1.3577
  111OSM     NF11446   1.268   5.721  10.367  0.0392 -0.2212  0.2167
  111OSM    HNF11447   1.171   5.723  10.390  0.0734 -2.4418  0.7956
  111OSM    C2S11448   1.339   5.601  10.389  0.1606 -0.4826 -0.8019
  111OSM    H2S11449   1.433   5.609  10.331  1.4091  0.6320  1.2884
  111OSM    C3S11450   1.263   5.482  10.331 -0.0486 -0.5341 -0.4243
  111OSM    H3S11451   1.157   5.469  10.363  0.7763 -3.3884  1.5948
  111OSM     O311452   1.322   5.356  10.360  0.2657  0.7202 -0.4447
  111OSM    HO311453   1.365   5.371  10.444 -2.1910  2.5558  0.6067
  111OSM    C4S11454   1.252   5.501  10.184  0.2122  0.5682 -0.1942
  111OSM    H4S11455   1.348   5.529  10.138  0.0367  0.8664 -0.3772
  111OSM    C5S11456   1.139   5.488  10.105 -0.2899  0.7335 -0.4755
  111OSM    H5S11457   1.040   5.465  10.147 -0.2251  1.7223  0.2494
  111OSM    C6S11458   1.132   5.506   9.953  0.2878  0.7346  0.0550
  111OSM    H6S11459   1.090   5.414   9.906 -1.9076  2.6203 -1.8818
  111OSM    H6T11460   1.232   5.517   9.907  0.2953 -1.8335 -0.6870
  111OSM    C7S11461   1.048   5.629   9.914 -0.4978  0.2054 -0.5113
  111OSM    H7S11462   1.061   5.708   9.992 -0.3588  1.1213 -1.4425
  111OSM    H7T11463   0.940   5.604   9.927  0.0606 -0.9621  2.6409
  111OSM    C8S11464   1.085   5.690   9.781  0.5696 -0.3939 -0.7236
  111OSM    H8S11465   1.192   5.717   9.797  0.3164  0.1980  0.0548
  111OSM    H8T11466   1.032   5.787   9.767  0.7440 -0.5521 -2.8938
  111OSM    C9S11467   1.064   5.607   9.657  0.0528 -0.1312 -0.3085
  111OSM    H9S11468   0.954   5.603   9.641  0.1121 -2.3307 -0.5126
  111OSM    H9T11469   1.104   5.505   9.679 -1.0749 -0.0577  2.3015
  111OSM   C10S11470   1.113   5.664   9.523 -0.3641 -1.1941  0.1203
  111OSM   H10S11471   1.210   5.717   9.534 -0.0041 -2.0439  1.1154
  111OSM   H10T11472   1.036   5.739   9.493  3.0190  1.9166 -1.6999
  111OSM   C11S11473   1.142   5.557   9.413 -0.4151 -0.7483 -0.6334
  111OSM   H11S11474   1.201   5.473   9.456 -2.1438 -2.9553 -2.2881
  111OSM   H11T11475   1.204   5.598   9.331 -0.9241  1.2340 -0.0762
  111OSM   C12S11476   1.016   5.475   9.368 -0.0246 -0.5085  0.5115
  111OSM   H12S11477   0.958   5.541   9.300  0.1430 -0.3198  0.5492
  111OSM   H12T11478   0.968   5.443   9.462  2.2242 -2.1820  1.1704
  111OSM   C13S11479   1.071   5.355   9.289  0.2047  0.2476 -0.0090
  111OSM   H13S11480   1.121   5.275   9.347  1.7159  0.6935 -0.6596
  111OSM   H13T11481   1.149   5.397   9.223 -0.8393 -0.1449 -1.5335
  111OSM   C14S11482   0.965   5.280   9.213 -0.1714 -0.2680  0.7456
  111OSM   H14S11483   1.010   5.199   9.153  4.0833  1.9569  0.5352
  111OSM   H14T11484   0.922   5.351   9.140  1.4691 -1.2766 -1.2903
  111OSM   C15S11485   0.878   5.209   9.312  0.1302  0.8767 -0.3369
  111OSM   H15S11486   0.818   5.280   9.372  0.3973  2.6590 -2.0972
  111OSM   H15T11487   0.938   5.149   9.385 -1.8970 -0.1768  0.5337
  111OSM   C16S11488   0.789   5.105   9.233  0.0841  0.0394 -0.1047
  111OSM   H16S11489   0.731   5.049   9.310  0.8975  0.2408  0.6599
  111OSM   H16T11490   0.858   5.039   9.177 -0.9139 -0.2613 -1.0169
  111OSM   C17S11491   0.700   5.172   9.119  0.7211  0.0233  0.0382
  111OSM   H17S11492   0.649   5.095   9.058 -1.0662 -0.8911  2.5003
  111OSM   H17T11493   0.758   5.224   9.040 -2.7527  0.8353 -2.2521
  111OSM   C18S11494   0.595   5.273   9.169 -0.4447  0.0230 -0.1197
  111OSM   H18S11495   0.532   5.308   9.084 -1.0963  1.0538  0.7680
  111OSM   H18T11496   0.652   5.353   9.220  2.5960 -2.1816  0.2305
  111OSM   H18U11497   0.527   5.224   9.241  0.7556 -1.1024  0.2888
  111OSM    C1F11498   1.320   5.844  10.363  0.4086  0.6316  0.4806
  111OSM     OF11499   1.440   5.863  10.344  0.7226 -0.0385 -0.1264
  111OSM    C2F11500   1.223   5.953  10.384  0.5276 -0.5804  0.3422
  111OSM    H2F11501   1.253   6.003  10.479 -0.5485  0.5104  0.1330
  111OSM    H2G11502   1.119   5.915  10.397 -0.1191  1.0661  0.2159
  111OSM    C3F11503   1.222   6.056  10.274  0.1993 -0.7699  0.0525
  111OSM    H3F11504   1.307   6.128  10.273  0.1664 -0.7305 -1.2185
  111OSM    H3G11505   1.141   6.127  10.304 -0.2262 -0.9096 -0.7484
  111OSM    C4F11506   1.189   6.001  10.131  0.5697 -0.1411  0.1254
  111OSM    H4F11507   1.094   5.943  10.135  1.2327 -1.2189  0.7277
  111OSM    H4G11508   1.273   5.936  10.099  1.5809  1.0612  0.2409
  111OSM    C5F11509   1.170   6.119  10.029  0.3902 -0.6384  0.0591
  111OSM    H5F11510   1.265   6.175  10.012 -0.2667  0.4241 -0.1981
  111OSM    H5G11511   1.105   6.202  10.064 -2.2292 -2.9031  0.8860
  111OSM    C6F11512   1.124   6.064   9.888 -0.0681 -0.0774 -0.8081
  111OSM    H6F11513   1.021   6.022   9.892  0.0285 -0.3759 -1.3487
  111OSM    H6G11514   1.199   5.991   9.852  0.8072  0.5184 -0.2243
  111OSM    C7F11515   1.129   6.177   9.790  0.2976  0.7244  0.3405
  111OSM    H7F11516   1.231   6.193   9.749 -0.1377  2.8978 -0.0579
  111OSM    H7G11517   1.104   6.271   9.844  0.5079  1.7154 -1.2204
  111OSM    C8F11518   1.025   6.161   9.670  0.5744 -0.3448 -0.2080
  111OSM    H8F11519   1.031   6.253   9.608  0.6661  1.1750  1.9393
  111OSM    H8G11520   0.919   6.171   9.701  0.4240 -0.0368 -0.8149
  111OSM    C9F11521   1.048   6.036   9.587  0.3057  0.4892 -0.4163
  111OSM    H9F11522   1.046   5.947   9.653 -0.8196  2.4814  2.4733
  111OSM   C10F11523   1.086   6.036   9.462 -0.7207 -0.9048 -0.8810
  111OSM   H10F11524   1.089   5.932   9.425  1.9479 -1.1061 -0.2967
  111OSM   C11F11525   1.124   6.141   9.366 -0.2348  0.1542  0.3677
  111OSM   H11F11526   1.216   6.101   9.318 -2.2129 -3.8107 -0.5522
  111OSM   H11G11527   1.146   6.232   9.426  1.4101 -1.0053  1.6330
  111OSM   C12F11528   1.014   6.186   9.268 -0.2426  0.0149  0.0712
  111OSM   H12F11529   0.998   6.104   9.195  5.7263  0.3969 -2.3107
  111OSM   H12G11530   1.048   6.274   9.208 -1.3073  1.9883  2.1930
  111OSM   C13F11531   0.885   6.224   9.343  0.3718  0.8212  0.1115
  111OSM   H13F11532   0.893   6.305   9.418 -1.5309 -0.7114  2.0834
  111OSM   H13G11533   0.836   6.136   9.389  0.7684 -0.1822 -1.2918
  111OSM   C14F11534   0.785   6.269   9.230 -0.2578 -0.8298  0.6936
  111OSM   H14F11535   0.787   6.197   9.145 -0.0105 -0.1566  0.1195
  111OSM   H14G11536   0.824   6.363   9.187  0.9327 -0.8095  1.7585
  111OSM   C15F11537   0.648   6.288   9.289 -0.4228  0.0935  0.2303
  111OSM   H15F11538   0.648   6.347   9.384  3.0948 -1.6579  1.4957
  111OSM   H15G11539   0.600   6.191   9.314 -0.3898  0.5009  1.9897
  111OSM   C16F11540   0.544   6.352   9.198  0.8806  0.0568 -0.7057
  111OSM   H16F11541   0.565   6.461   9.187  0.1736  0.4076  1.1072
  111OSM   H16G11542   0.452   6.352   9.259  2.0222 -0.8482  1.0861
  111OSM   C17F11543   0.525   6.299   9.058 -0.2887  0.6775  0.5279
  111OSM   H17F11544   0.452   6.217   9.076  0.3262  0.4685  2.2100
  111OSM   H17G11545   0.614   6.252   9.012 -0.3469  0.0765  1.0154
  111OSM   C18F11546   0.474   6.399   8.959  0.3379 -0.5350 -0.3718
  111OSM   H18F11547   0.465   6.344   8.863 -3.6760  2.0000 -1.6785
  111OSM   H18G11548   0.547   6.483   8.953  1.0636 -1.2209 -1.7086
  111OSM   H18H11549   0.375   6.438   8.990  1.3360 -0.8873  3.8853
  112OSM      N11550   6.262   4.223  10.957  0.5776  0.3031  0.5862
  112OSM    C1511551   6.265   4.071  10.953 -0.1794 -0.5715  0.4554
  112OSM   H15A11552   6.244   4.044  10.850 -0.8529 -1.2309  0.7494
  112OSM   H15B11553   6.208   4.026  11.033  0.4687  0.1905  1.3619
  112OSM   H15C11554   6.369   4.050  10.973  0.1366  1.4387  1.0904
  112OSM    C1411555   6.118   4.257  10.955  0.2158 -0.9245 -0.0111
  112OSM   H14A11556   6.063   4.198  10.884 -0.8674 -3.3208  2.6064
  112OSM   H14B11557   6.105   4.359  10.923 -0.1931 -0.8198  0.4761
  112OSM   H14C11558   6.061   4.247  11.047  1.5869 -0.4027  0.9372
  112OSM    C1311559   6.326   4.276  11.080  0.0625 -0.2666 -0.0057
  112OSM   H13A11560   6.332   4.383  11.086  0.9931 -0.3877  1.7888
  112OSM   H13B11561   6.425   4.238  11.102 -0.7292 -0.8207  3.0165
  112OSM   H13C11562   6.269   4.236  11.163 -2.2406  1.9396 -0.4041
  112OSM    C1211563   6.329   4.272  10.829  0.3472  0.3333 -0.1685
  112OSM   H12A11564   6.298   4.371  10.800  0.4932  0.8888  1.4375
  112OSM   H12B11565   6.310   4.198  10.753  1.6177  1.0496 -1.2287
  112OSM    C1111566   6.482   4.271  10.839  0.3991 -0.9571 -0.8864
  112OSM   H11A11567   6.523   4.349  10.907  1.9426 -2.3741 -0.1121
  112OSM   H11B11568   6.529   4.298  10.742  0.9010  0.6332 -0.2265
  112OSM      P11569   6.683   4.107  10.895  0.3115  0.5032  0.1947
  112OSM    O1311570   6.755   4.204  10.980 -0.4973 -0.5219 -0.1792
  112OSM    O1411571   6.683   3.967  10.950  0.3943 -0.0968  0.0546
  112OSM    O1111572   6.733   4.108  10.746  0.2571  0.6198  0.2232
  112OSM    O1211573   6.532   4.150  10.890 -0.0100  0.1165 -0.3846
  112OSM    C1S11574   6.655   4.048  10.642  0.2553 -0.4467 -0.6986
  112OSM    H1S11575   6.599   4.132  10.595  0.9114  0.1372 -0.4445
  112OSM    H1T11576   6.579   3.976  10.681  0.8201  0.4322  2.2877
  112OSM     NF11577   6.627   3.924  10.422 -0.7903  0.2388  0.1321
  112OSM    HNF11578   6.617   3.825  10.436 -0.4574  0.1731 -0.0880
  112OSM    C2S11579   6.722   3.982  10.521 -0.6999  0.5081  0.1888
  112OSM    H2S11580   6.785   4.056  10.467  0.5169 -1.3496 -1.0546
  112OSM    C3S11581   6.812   3.869  10.575 -0.5253 -0.1943  0.2638
  112OSM    H3S11582   6.761   3.782  10.622  2.7782 -2.6993 -0.3481
  112OSM     O311583   6.903   3.904  10.685 -0.0316  0.5891  0.0135
  112OSM    HO311584   6.903   3.999  10.702  1.9856  0.7796 -0.7593
  112OSM    C4S11585   6.899   3.821  10.467 -0.2051  0.8594  0.7762
  112OSM    H4S11586   6.984   3.883  10.436  1.3515 -1.2421  0.6795
  112OSM    C5S11587   6.879   3.698  10.407 -0.8168 -0.0767 -0.8090
  112OSM    H5S11588   6.809   3.624  10.450 -0.7117  0.0121 -0.4782
  112OSM    C6S11589   6.971   3.646  10.302  0.2146 -0.2905  0.4019
  112OSM    H6S11590   7.016   3.548  10.328  1.6565 -0.2983 -1.8009
  112OSM    H6T11591   7.055   3.717  10.282 -0.0329 -0.3330 -0.8734
  112OSM    C7S11592   6.900   3.614  10.169 -0.4817  0.6744  1.0538
  112OSM    H7S11593   6.842   3.700  10.128 -0.3458  0.8761  1.2790
  112OSM    H7T11594   6.820   3.540  10.188  1.3432 -2.0252 -0.9906
  112OSM    C8S11595   6.995   3.569  10.057  0.3730 -0.0169 -0.3466
  112OSM    H8S11596   7.051   3.478  10.088 -0.0597  0.0902  0.7980
  112OSM    H8T11597   7.064   3.654  10.041  0.2359  0.5224  1.6668
  112OSM    C9S11598   6.921   3.525   9.925  0.2691 -0.2431  0.1178
  112OSM    H9S11599   6.879   3.619   9.883  0.7743  0.6784  1.5976
  112OSM    H9T11600   6.835   3.458   9.945 -1.0328  1.4070  0.3625
  112OSM   C10S11601   7.013   3.465   9.816  0.1660  0.2955  0.2718
  112OSM   H10S11602   7.042   3.359   9.831 -1.1157 -0.1710 -0.4357
  112OSM   H10T11603   7.101   3.532   9.812  0.7451 -0.4272 -4.5539
  112OSM   C11S11604   6.940   3.473   9.682 -0.3788  0.4128  1.1375
  112OSM   H11S11605   6.905   3.577   9.660  0.7533  0.3607 -1.2212
  112OSM   H11T11606   6.849   3.409   9.681 -0.0604 -0.1185 -1.5061
  112OSM   C12S11607   7.035   3.435   9.565  0.2455 -0.2028  1.0574
  112OSM   H12S11608   7.086   3.337   9.567 -0.2655 -0.4646  1.4370
  112OSM   H12T11609   7.118   3.509   9.570  0.0340  0.4031 -2.2155
  112OSM   C13S11610   6.957   3.452   9.432  0.0653 -0.0604  1.0359
  112OSM   H13S11611   6.916   3.555   9.425  0.3549 -0.0458 -1.7931
  112OSM   H13T11612   6.875   3.377   9.423  1.6033 -1.8962  1.7120
  112OSM   C14S11613   7.055   3.432   9.311  0.5078 -0.2260 -0.2249
  112OSM   H14S11614   7.087   3.325   9.314 -1.9273 -1.0091  0.0235
  112OSM   H14T11615   7.147   3.492   9.302 -0.7045  1.6399 -0.6968
  112OSM   C15S11616   6.983   3.459   9.173 -0.3465  0.6933  0.2024
  112OSM   H15S11617   6.980   3.569   9.159 -2.0329  0.6580  0.0403
  112OSM   H15T11618   6.881   3.416   9.183  0.1552 -0.3973  0.7617
  112OSM   C16S11619   7.064   3.394   9.059  0.6198  0.6337 -0.4165
  112OSM   H16S11620   7.007   3.390   8.964  1.9140  0.6142 -1.2178
  112OSM   H16T11621   7.103   3.295   9.093  0.0450 -0.4487 -2.6932
  112OSM   C17S11622   7.179   3.487   9.020 -0.8952 -0.0207  0.7663
  112OSM   H17S11623   7.241   3.474   9.111  1.6290 -1.2091 -0.9977
  112OSM   H17T11624   7.144   3.592   9.014 -0.7370  0.2478  3.5509
  112OSM   C18S11625   7.258   3.454   8.895 -0.3296 -0.1912  0.2928
  112OSM   H18S11626   7.307   3.355   8.910 -0.9376 -0.4908  0.3516
  112OSM   H18T11627   7.335   3.525   8.859 -1.4139  1.0262  0.3047
  112OSM   H18U11628   7.191   3.440   8.807  0.5002  1.6426 -0.6914
  112OSM    C1F11629   6.543   3.983  10.338  0.1092 -0.3439 -0.1633
  112OSM     OF11630   6.558   4.104  10.315  0.8952 -0.0577  0.3429
  112OSM    C2F11631   6.433   3.904  10.284 -0.4873 -0.3214  0.4712
  112OSM    H2F11632   6.335   3.955  10.295 -1.7854 -1.4919 -3.7695
  112OSM    H2G11633   6.438   3.802  10.326  0.2682 -0.1595  0.7975
  112OSM    C3F11634   6.452   3.892  10.129  0.0015 -0.7404 -0.5223
  112OSM    H3F11635   6.432   3.989  10.078  2.1379 -0.2390 -0.4909
  112OSM    H3G11636   6.386   3.811  10.092 -0.5639 -0.1033 -0.9346
  112OSM    C4F11637   6.588   3.840  10.093 -0.3634  0.2450 -0.0897
  112OSM    H4F11638   6.629   3.770  10.169  0.4315  2.3132  1.4684
  112OSM    H4G11639   6.664   3.920  10.105 -0.6231  0.3877  0.6692
  112OSM    C5F11640   6.596   3.778   9.941  0.5946  0.1529  0.7560
  112OSM    H5F11641   6.697   3.739   9.915  0.8338  0.5329  1.0960
  112OSM    H5G11642   6.567   3.858   9.870 -2.0588 -2.0622 -0.8444
  112OSM    C6F11643   6.504   3.650   9.922 -0.5095 -0.1922  0.1074
  112OSM    H6F11644   6.396   3.667   9.941 -1.5020 -1.1829 -3.7914
  112OSM    H6G11645   6.534   3.566   9.988 -1.0488 -0.0488  0.5425
  112OSM    C7F11646   6.518   3.594   9.775  0.3483 -0.1914 -0.3184
  112OSM    H7F11647   6.624   3.565   9.756  0.6090 -0.5534  1.5289
  112OSM    H7G11648   6.484   3.676   9.708  0.7951  0.1422 -0.1453
  112OSM    C8F11649   6.440   3.462   9.763 -0.2074 -0.5500  0.3579
  112OSM    H8F11650   6.419   3.430   9.659 -1.4945 -0.1953  0.4956
  112OSM    H8G11651   6.337   3.481   9.799 -0.5000  0.6381 -1.0277
  112OSM    C9F11652   6.512   3.347   9.838 -0.0822 -0.4424  0.2345
  112OSM    H9F11653   6.503   3.347   9.948 -0.8461  2.2975  0.2375
  112OSM   C10F11654   6.584   3.254   9.780 -0.6197 -0.0015  0.7409
  112OSM   H10F11655   6.636   3.175   9.837  3.4367 -0.6269 -3.3218
  112OSM   C11F11656   6.623   3.234   9.637 -0.1544 -0.1646  0.2799
  112OSM   H11F11657   6.732   3.218   9.625 -0.1991  0.1492 -0.5888
  112OSM   H11G11658   6.607   3.331   9.585  1.4059 -1.2340 -2.3319
  112OSM   C12F11659   6.534   3.129   9.557 -0.5980 -0.3472 -0.2947
  112OSM   H12F11660   6.425   3.145   9.576 -0.8693 -2.0780 -0.2277
  112OSM   H12G11661   6.560   3.026   9.589 -1.3535 -1.1241 -2.0404
  112OSM   C13F11662   6.576   3.128   9.407  0.3483 -0.6715 -0.2696
  112OSM   H13F11663   6.530   3.219   9.363 -1.5234  0.4231  3.5630
  112OSM   H13G11664   6.525   3.043   9.357  0.1695 -0.9692  0.4017
  112OSM   C14F11665   6.725   3.112   9.388 -0.0737 -0.1468  0.7287
  112OSM   H14F11666   6.758   3.016   9.433 -0.1440 -0.3595  0.3250
  112OSM   H14G11667   6.773   3.197   9.442 -1.3743  0.5847  0.7563
  112OSM   C15F11668   6.760   3.122   9.239  0.2987 -0.2027 -0.0990
  112OSM   H15F11669   6.867   3.148   9.226  0.1651 -0.2728 -1.3756
  112OSM   H15G11670   6.693   3.203   9.203  1.9972  0.9951 -0.6889
  112OSM   C16F11671   6.733   2.998   9.152 -0.8901  0.0637 -0.8955
  112OSM   H16F11672   6.625   2.971   9.155 -0.7146 -0.6130 -0.2903
  112OSM   H16G11673   6.789   2.910   9.191 -0.3436  0.7998 -0.0056
  112OSM   C17F11674   6.777   3.026   9.003  0.4608 -0.6725  0.1662
  112OSM   H17F11675   6.706   3.106   8.975 -2.9675 -2.8705  1.9235
  112OSM   H17G11676   6.738   2.941   8.944 -0.5305 -0.1207  0.0188
  112OSM   C18F11677   6.926   3.034   8.980 -0.4454  0.2522 -0.4267
  112OSM   H18F11678   6.968   3.112   9.047 -1.1832 -1.4825  2.2287
  112OSM   H18G11679   6.961   3.063   8.879  0.2770  0.0701 -0.2313
  112OSM   H18H11680   6.971   2.938   9.012  0.8944  1.4470  1.4800
  113OSM      N11681   0.102   3.425  10.957  0.7862 -0.1061  0.4774
  113OSM    C1511682   0.209   3.474  11.049 -0.9316 -0.3590 -0.1133
  113OSM   H15A11683   0.194   3.568  11.100  2.7853  0.3500 -0.0268
  113OSM   H15B11684   0.300   3.490  10.993 -0.8009 -1.9190 -0.3737
  113OSM   H15C11685   0.238   3.394  11.115  2.7394  1.6741  1.0232
  113OSM    C1411686   0.099   3.515  10.838 -0.2268  0.1362  0.1389
  113OSM   H14A11687   0.197   3.516  10.793  0.0838 -1.2442  0.7109
  113OSM   H14B11688   0.063   3.613  10.864 -0.7056  0.0838 -0.3025
  113OSM   H14C11689   0.042   3.475  10.755  1.5893 -1.1613 -0.5563
  113OSM    C1311690   0.149   3.287  10.925  0.4606 -0.8029  0.0150
  113OSM   H13A11691   0.083   3.249  10.848 -0.7692  0.9518  0.1444
  113OSM   H13B11692   0.153   3.212  11.002  1.4995 -0.7294  0.0526
  113OSM   H13C11693   0.252   3.301  10.896  0.7046 -1.6227  0.4605
  113OSM    C1211694  -0.030   3.417  11.030  0.0788 -0.4569 -0.1373
  113OSM   H12A11695  -0.064   3.517  11.051 -0.3157 -0.7291  0.5457
  113OSM   H12B11696  -0.014   3.381  11.130  0.2848 -0.8450 -0.3065
  113OSM    C1111697  -0.143   3.337  10.974  0.2589 -0.0585  0.8322
  113OSM   H11A11698  -0.237   3.362  11.029 -0.9482  0.4687 -1.3635
  113OSM   H11B11699  -0.140   3.227  10.990 -2.1498 -0.3802 -0.4043
  113OSM      P11700  -0.270   3.452  10.767  0.2111  0.1724 -0.1600
  113OSM    O1311701  -0.391   3.375  10.740 -0.0049 -0.2112 -0.4485
  113OSM    O1411702  -0.277   3.567  10.858 -0.5243  0.1292 -0.0316
  113OSM    O1111703  -0.198   3.483  10.625 -0.1671 -0.0699 -0.4258
  113OSM    O1211704  -0.165   3.353  10.833 -0.3324 -0.0944 -0.0902
  113OSM    C1S11705  -0.155   3.384  10.532 -0.5926  0.3674 -0.4596
  113OSM    H1S11706  -0.128   3.286  10.576  1.1013  0.7966 -0.4856
  113OSM    H1T11707  -0.065   3.416  10.476 -0.2000 -0.6577 -0.4343
  113OSM     NF11708  -0.210   3.245  10.328  0.2756 -0.3181 -0.1876
  113OSM    HNF11709  -0.165   3.273  10.244 -0.7312  0.3771 -0.5015
  113OSM    C2S11710  -0.258   3.356  10.417 -0.0733  0.5745  0.8245
  113OSM    H2S11711  -0.352   3.324  10.467 -0.8382 -0.4235 -1.1411
  113OSM    C3S11712  -0.286   3.486  10.338 -0.9256 -0.0491 -0.1213
  113OSM    H3S11713  -0.204   3.508  10.266  0.7284  0.9470  1.9619
  113OSM     O311714  -0.300   3.610  10.409  0.1288  0.1632 -0.2660
  113OSM    HO311715  -0.261   3.590  10.494  0.4313  0.0106 -0.4384
  113OSM    C4S11716  -0.403   3.456  10.242  0.7627 -0.5453 -0.2127
  113OSM    H4S11717  -0.381   3.400  10.150 -0.4376 -2.2919  0.4996
  113OSM    C5S11718  -0.528   3.467  10.285 -0.0667 -0.0859 -0.7075
  113OSM    H5S11719  -0.535   3.503  10.388  1.5492 -1.8351  0.0746
  113OSM    C6S11720  -0.649   3.431  10.207 -0.6543  0.5047 -0.0824
  113OSM    H6S11721  -0.621   3.435  10.099  2.4688  0.9657  0.6340
  113OSM    H6T11722  -0.729   3.505  10.226  0.6411  1.4017  2.3017
  113OSM    C7S11723  -0.711   3.288  10.244  0.3452  0.2643 -1.1774
  113OSM    H7S11724  -0.810   3.273  10.196 -0.2534  2.0967 -0.6077
  113OSM    H7T11725  -0.739   3.309  10.350 -0.1776  2.1590 -1.6644
  113OSM    C8S11726  -0.624   3.163  10.240 -0.0188  0.1001 -0.0633
  113OSM    H8S11727  -0.668   3.087  10.308 -0.1505  1.1833  1.0865
  113OSM    H8T11728  -0.529   3.187  10.292  0.8118 -4.2406  0.8746
  113OSM    C9S11729  -0.604   3.114  10.094 -0.7469  0.4346 -0.5078
  113OSM    H9S11730  -0.533   3.178  10.036  1.2603 -0.4375  0.8612
  113OSM    H9T11731  -0.704   3.122  10.046 -1.2759  1.9894  0.7562
  113OSM   C10S11732  -0.545   2.971  10.089 -0.5411  0.6478  0.5043
  113OSM   H10S11733  -0.593   2.906  10.165 -0.9660 -0.6288 -0.7983
  113OSM   H10T11734  -0.435   2.962  10.100 -0.3594  2.2427  0.1308
  113OSM   C11S11735  -0.573   2.907   9.950 -0.4587 -0.1657  0.3706
  113OSM   H11S11736  -0.663   2.937   9.891  0.2728 -0.8187 -1.1305
  113OSM   H11T11737  -0.577   2.797   9.958  0.9117 -0.2689 -0.0854
  113OSM   C12S11738  -0.459   2.932   9.848  0.6483  0.1493  0.1123
  113OSM   H12S11739  -0.363   2.950   9.900  0.5762  1.8715 -0.2995
  113OSM   H12T11740  -0.469   3.029   9.795  1.3679  0.7689  1.0741
  113OSM   C13S11741  -0.429   2.811   9.752  0.0197  0.3766 -0.2865
  113OSM   H13S11742  -0.449   2.714   9.803  2.3697 -0.9157 -1.6074
  113OSM   H13T11743  -0.323   2.798   9.722 -0.3799 -1.0823 -1.1697
  113OSM   C14S11744  -0.520   2.827   9.627  0.5850  0.3617  0.0272
  113OSM   H14S11745  -0.519   2.933   9.595  2.2605 -0.2651 -2.2537
  113OSM   H14T11746  -0.620   2.783   9.647  1.0735 -1.0725 -0.5531
  113OSM   C15S11747  -0.459   2.749   9.510  0.6614 -0.0932 -0.2663
  113OSM   H15S11748  -0.454   2.639   9.528  3.4831 -0.0419 -0.4042
  113OSM   H15T11749  -0.357   2.789   9.496  0.6463 -0.1571 -0.5701
  113OSM   C16S11750  -0.520   2.771   9.367  0.1292  0.5000 -0.0339
  113OSM   H16S11751  -0.520   2.881   9.351 -1.2436  0.5003 -0.1862
  113OSM   H16T11752  -0.623   2.730   9.377 -0.2648  1.5665  0.5287
  113OSM   C17S11753  -0.442   2.688   9.263  0.2387  1.0918  0.3302
  113OSM   H17S11754  -0.466   2.583   9.290 -2.9562  1.3853 -0.9341
  113OSM   H17T11755  -0.332   2.705   9.261  0.3955  0.1118  0.2069
  113OSM   C18S11756  -0.489   2.713   9.117 -0.5830 -0.2882  0.4552
  113OSM   H18S11757  -0.600   2.711   9.117 -0.7260  2.8071  0.0707
  113OSM   H18T11758  -0.439   2.642   9.049  0.4794 -1.8810  2.7455
  113OSM   H18U11759  -0.464   2.819   9.097 -2.4244 -0.0258 -0.6283
  113OSM    C1F11760  -0.209   3.121  10.364 -0.3409  0.2270  0.0505
  113OSM     OF11761  -0.243   3.081  10.475  0.0099 -0.0613  0.4430
  113OSM    C2F11762  -0.167   3.032  10.252 -0.0809  0.0158 -0.2409
  113OSM    H2F11763  -0.070   3.064  10.208  0.5364 -0.2936  0.8610
  113OSM    H2G11764  -0.254   3.035  10.183 -0.3487 -0.7199  0.0516
  113OSM    C3F11765  -0.145   2.884  10.300  0.2090 -0.6864  0.2367
  113OSM    H3F11766  -0.243   2.854  10.344  0.2692  0.3633  1.1213
  113OSM    H3G11767  -0.066   2.898  10.377  0.8676  2.2885 -0.8295
  113OSM    C4F11768  -0.093   2.779  10.203  0.4188 -0.1677  0.5595
  113OSM    H4F11769  -0.075   2.686  10.261  0.6756  0.8837  2.2286
  113OSM    H4G11770   0.003   2.810  10.157 -0.9634  1.2205 -1.5650
  113OSM    C5F11771  -0.184   2.757  10.084 -0.2214  0.1585 -0.1580
  113OSM    H5F11772  -0.222   2.852  10.042 -1.7929 -0.7592 -0.9103
  113OSM    H5G11773  -0.275   2.700  10.113 -0.8631  0.4265 -1.5310
  113OSM    C6F11774  -0.102   2.703   9.965  0.6849  0.4561  0.0622
  113OSM    H6F11775  -0.040   2.790   9.934  1.0002  0.5337  0.8767
  113OSM    H6G11776  -0.166   2.682   9.877  2.8964 -0.4372 -1.4271
  113OSM    C7F11777  -0.026   2.582   9.988 -1.4679  0.0591  0.2377
  113OSM    H7F11778  -0.089   2.519  10.054  0.1891 -1.0737  0.7947
  113OSM    H7G11779   0.061   2.613  10.048 -1.9860  0.0952  0.9802
  113OSM    C8F11780   0.002   2.503   9.854 -0.0838  0.1523  0.6051
  113OSM    H8F11781  -0.095   2.467   9.814  0.8465 -1.2798 -0.4560
  113OSM    H8G11782   0.068   2.420   9.886 -0.2881  0.0165  0.6774
  113OSM    C9F11783   0.075   2.583   9.747  0.1051  0.1122 -0.6771
  113OSM    H9F11784   0.165   2.615   9.801 -0.8263 -1.7245  2.1832
  113OSM   C10F11785   0.041   2.630   9.623  0.0792  0.4829  0.1109
  113OSM   H10F11786   0.109   2.690   9.562 -1.2925  1.3387 -0.6233
  113OSM   C11F11787  -0.090   2.617   9.548 -0.3588 -0.1531 -0.9295
  113OSM   H11F11788  -0.127   2.722   9.548  1.7447  0.6667  0.5352
  113OSM   H11G11789  -0.162   2.549   9.598 -1.7975  0.8103 -1.6323
  113OSM   C12F11790  -0.080   2.575   9.403 -0.1147 -0.1820 -0.6955
  113OSM   H12F11791  -0.186   2.588   9.373  0.5866 -0.2488 -3.4699
  113OSM   H12G11792  -0.045   2.470   9.409  1.4921  0.3240 -0.9117
  113OSM   C13F11793   0.015   2.655   9.310  0.1565 -0.0606  0.0195
  113OSM   H13F11794   0.121   2.631   9.333  0.1280 -0.5317 -0.3307
  113OSM   H13G11795  -0.002   2.762   9.335 -0.0508  0.0516 -0.5993
  113OSM   C14F11796  -0.022   2.638   9.163  0.2406 -0.3741 -0.6896
  113OSM   H14F11797   0.038   2.709   9.102 -0.5063  0.0619 -0.9195
  113OSM   H14G11798  -0.123   2.672   9.132 -0.8523 -0.8417  2.0890
  113OSM   C15F11799   0.003   2.498   9.108 -1.2262 -0.3165  0.0591
  113OSM   H15F11800  -0.034   2.417   9.173 -0.4696 -0.5457  0.2172
  113OSM   H15G11801   0.113   2.491   9.091 -1.5854 -3.1367 -1.6653
  113OSM   C16F11802  -0.065   2.461   8.974 -0.7812  0.0320  0.0426
  113OSM   H16F11803  -0.022   2.527   8.895  0.2722 -1.0476 -0.3246
  113OSM   H16G11804  -0.173   2.482   8.985 -0.6301 -0.1854  2.3284
  113OSM   C17F11805  -0.044   2.316   8.927  0.2046 -0.2669  0.6736
  113OSM   H17F11806  -0.088   2.241   8.996 -0.5912 -1.7691 -1.3836
  113OSM   H17G11807   0.067   2.308   8.918  0.2065  1.3760 -1.8646
  113OSM   C18F11808  -0.115   2.292   8.788  0.1513  0.0156  0.0704
  113OSM   H18F11809  -0.085   2.373   8.718  2.1207 -1.0322 -0.3769
  113OSM   H18G11810  -0.223   2.281   8.812  0.4355 -1.8640  0.6898
  113OSM   H18H11811  -0.096   2.194   8.738 -1.8058 -0.1895 -0.3433
  114OSM      N11812   6.534   0.444  11.331 -0.2876 -0.3177  0.0301
  114OSM    C1511813   6.434   0.359  11.263  0.2275  0.4316  0.4422
  114OSM   H15A11814   6.396   0.415  11.179 -3.6232 -0.8636  1.1586
  114OSM   H15B11815   6.358   0.326  11.332  1.4423 -2.8853  0.3518
  114OSM   H15C11816   6.483   0.271  11.226 -0.1749  0.0824  0.7349
  114OSM    C1411817   6.631   0.505  11.229  0.6104  0.2918 -0.0343
  114OSM   H14A11818   6.714   0.550  11.282 -1.4328  3.3054  0.8390
  114OSM   H14B11819   6.581   0.576  11.165 -0.1302 -1.3640 -1.3709
  114OSM   H14C11820   6.670   0.437  11.155  3.5376 -1.1107  2.5342
  114OSM    C1311821   6.456   0.551  11.403  0.5318 -0.2190 -0.3400
  114OSM   H13A11822   6.526   0.613  11.457  0.5842 -1.3407  0.9166
  114OSM   H13B11823   6.379   0.504  11.463  2.9167 -2.6618  1.0411
  114OSM   H13C11824   6.415   0.616  11.327 -2.2367  0.2956  1.4499
  114OSM    C1211825   6.609   0.360  11.429  0.0989 -1.0519 -0.3176
  114OSM   H12A11826   6.653   0.278  11.374  1.4741 -0.9113  0.5468
  114OSM   H12B11827   6.542   0.324  11.506 -0.0151  1.5338  0.8918
  114OSM    C1111828   6.736   0.429  11.491  0.1307 -0.1542  0.3155
  114OSM   H11A11829   6.759   0.365  11.579 -1.8681 -2.6680 -0.8541
  114OSM   H11B11830   6.700   0.522  11.538 -2.1850 -1.1314  0.6076
  114OSM      P11831   6.949   0.562  11.400 -0.0679  0.4070 -0.0204
  114OSM    O1311832   6.888   0.689  11.364  0.1443  0.4749  0.0809
  114OSM    O1411833   7.017   0.569  11.533  0.2910  0.1908  0.1870
  114OSM    O1111834   7.053   0.519  11.292 -0.3087  0.2283 -0.1609
  114OSM    O1211835   6.852   0.440  11.403 -0.0873 -0.0000  0.1045
  114OSM    C1S11836   7.043   0.469  11.161 -0.3128  0.6560  0.3442
  114OSM    H1S11837   6.962   0.511  11.097  0.7024  3.7658  0.9571
  114OSM    H1T11838   7.021   0.360  11.173  0.0440  0.4060 -1.1233
  114OSM     NF11839   7.158   0.387  10.961 -0.0042  0.1713  0.1398
  114OSM    HNF11840   7.206   0.300  10.951  3.6607  1.7856  1.5904
  114OSM    C2S11841   7.177   0.465  11.080  0.5536 -0.0122 -0.5003
  114OSM    H2S11842   7.191   0.572  11.054  2.5352  0.6135  2.5897
  114OSM    C3S11843   7.291   0.415  11.170  0.1282  0.1468 -0.4010
  114OSM    H3S11844   7.269   0.309  11.198  0.2099  0.1763 -0.2230
  114OSM     O311845   7.305   0.475  11.305  0.6954  0.5439 -0.2930
  114OSM    HO311846   7.213   0.501  11.315  0.9105  1.0859  0.3515
  114OSM    C4S11847   7.417   0.415  11.098 -0.8611  0.3049 -0.0123
  114OSM    H4S11848   7.457   0.323  11.053  1.6037  0.8591  0.8434
  114OSM    C5S11849   7.497   0.527  11.093 -0.3955  0.7575  0.4198
  114OSM    H5S11850   7.457   0.613  11.148 -1.3592 -0.2846  1.4097
  114OSM    C6S11851   7.634   0.536  11.017 -0.1369  0.1101 -0.3214
  114OSM    H6S11852   7.717   0.563  11.085 -0.4775  0.9228 -0.2143
  114OSM    H6T11853   7.615   0.617  10.943 -0.5114 -0.6614 -1.0911
  114OSM    C7S11854   7.691   0.417  10.935 -0.1273 -0.1926  0.1981
  114OSM    H7S11855   7.622   0.404  10.849 -2.0178 -0.1832  1.6431
  114OSM    H7T11856   7.690   0.327  11.001  0.1546  0.5061  1.1851
  114OSM    C8S11857   7.824   0.459  10.873  1.2225  0.1494  0.0577
  114OSM    H8S11858   7.905   0.459  10.950 -0.0066 -0.6610  1.3940
  114OSM    H8T11859   7.815   0.557  10.822  0.8553  0.4949  0.7728
  114OSM    C9S11860   7.867   0.352  10.768 -0.1656 -0.8042 -0.5135
  114OSM    H9S11861   7.862   0.251  10.814 -2.6301  0.5606  2.6166
  114OSM    H9T11862   7.976   0.372  10.761 -0.4423  0.7295 -0.9086
  114OSM   C10S11863   7.803   0.379  10.633 -0.1804 -0.5027  0.4787
  114OSM   H10S11864   7.815   0.486  10.604 -1.7985 -0.3578  0.2619
  114OSM   H10T11865   7.695   0.357  10.643  0.1843 -2.7597 -0.0291
  114OSM   C11S11866   7.879   0.293  10.529 -0.4270 -0.1727  0.9122
  114OSM   H11S11867   7.866   0.188  10.564 -2.1014  0.3095  1.8402
  114OSM   H11T11868   7.984   0.327  10.516 -0.4777 -0.9587 -2.5180
  114OSM   C12S11869   7.822   0.293  10.386 -0.6413 -0.3949 -0.5004
  114OSM   H12S11870   7.713   0.270  10.386 -0.4338 -1.5462 -1.8415
  114OSM   H12T11871   7.877   0.229  10.313 -1.4851  0.0294 -1.5466
  114OSM   C13S11872   7.838   0.434  10.314 -0.6610 -0.4369 -0.1042
  114OSM   H13S11873   7.941   0.472  10.332 -0.5987 -0.8819  0.5355
  114OSM   H13T11874   7.778   0.502  10.378  3.1088  1.4646  1.6905
  114OSM   C14S11875   7.788   0.432  10.171  0.1823  0.2486  0.0969
  114OSM   H14S11876   7.686   0.389  10.161 -0.6529  2.5155 -2.2610
  114OSM   H14T11877   7.850   0.359  10.116 -1.2544 -0.6267 -0.4360
  114OSM   C15S11878   7.792   0.568  10.101  0.4576 -0.0130  0.3764
  114OSM   H15S11879   7.884   0.624  10.127  0.9324 -0.3494 -0.5390
  114OSM   H15T11880   7.711   0.633  10.140  1.2272  0.5439  1.0954
  114OSM   C16S11881   7.770   0.556   9.947 -0.8817 -0.2301 -0.8982
  114OSM   H16S11882   7.664   0.524   9.935 -0.0487 -2.5789 -2.7713
  114OSM   H16T11883   7.831   0.470   9.914 -1.4400 -0.5583 -1.0919
  114OSM   C17S11884   7.789   0.676   9.860  0.2860  0.5463  0.1536
  114OSM   H17S11885   7.896   0.702   9.850  0.8333 -1.9503 -1.2073
  114OSM   H17T11886   7.732   0.762   9.903 -0.0291  0.0759  0.6882
  114OSM   C18S11887   7.745   0.635   9.718  0.6307 -0.0788 -0.3887
  114OSM   H18S11888   7.739   0.730   9.661 -0.2918  0.5821  0.7698
  114OSM   H18T11889   7.644   0.589   9.717  1.6554 -2.5023 -1.3994
  114OSM   H18U11890   7.812   0.563   9.664 -0.5040 -0.8034 -0.8741
  114OSM    C1F11891   7.092   0.442  10.857  0.4265 -0.0989 -0.7158
  114OSM     OF11892   7.045   0.557  10.864  0.2172  0.2724 -0.0252
  114OSM    C2F11893   7.078   0.363  10.729  0.3185 -0.4531  0.1759
  114OSM    H2F11894   6.970   0.354  10.702  0.0772 -0.1519  1.0073
  114OSM    H2G11895   7.117   0.259  10.735  2.7510  0.2658 -1.7415
  114OSM    C3F11896   7.158   0.428  10.620  0.4614  0.0363 -0.6641
  114OSM    H3F11897   7.118   0.530  10.604  0.3910  0.5143  2.0619
  114OSM    H3G11898   7.145   0.383  10.519  2.8522 -0.7527 -0.6915
  114OSM    C4F11899   7.314   0.451  10.642  0.1108 -0.4782  0.7146
  114OSM    H4F11900   7.355   0.365  10.698 -0.3181 -0.8897  0.4089
  114OSM    H4G11901   7.330   0.547  10.695 -0.3824 -1.6449  3.1061
  114OSM    C5F11902   7.379   0.455  10.510 -0.0159 -0.4475  0.5729
  114OSM    H5F11903   7.359   0.368  10.444  1.4946 -1.2564  1.1380
  114OSM    H5G11904   7.488   0.466  10.527  0.2094 -1.2279 -0.2946
  114OSM    C6F11905   7.331   0.566  10.418 -0.0661 -0.5472  0.1965
  114OSM    H6F11906   7.329   0.664  10.472 -0.0209 -1.4770  1.9417
  114OSM    H6G11907   7.233   0.547  10.370  1.9685 -1.6721 -4.0349
  114OSM    C7F11908   7.422   0.594  10.299  0.0634  0.0159 -0.1414
  114OSM    H7F11909   7.425   0.510  10.226  1.2391  0.0256 -0.1347
  114OSM    H7G11910   7.524   0.619  10.336 -0.2995  1.3801  0.0144
  114OSM    C8F11911   7.372   0.719  10.216 -0.0090  0.2444 -0.5545
  114OSM    H8F11912   7.358   0.803  10.288  0.8409  1.0540 -1.3139
  114OSM    H8G11913   7.272   0.690  10.176 -0.1417 -0.4485  0.2400
  114OSM    C9F11914   7.465   0.763  10.104 -0.6416  0.4990  0.9991
  114OSM    H9F11915   7.560   0.814  10.125  0.3146  0.6086 -2.8685
  114OSM   C10F11916   7.432   0.757   9.972  0.9692  0.0806 -0.4596
  114OSM   H10F11917   7.504   0.794   9.897  0.3616  0.3824 -0.9070
  114OSM   C11F11918   7.299   0.708   9.928  0.8701  0.8513  0.5881
  114OSM   H11F11919   7.218   0.749   9.991 -0.0997  1.4861 -1.0089
  114OSM   H11G11920   7.305   0.597   9.930 -0.6102  0.7664  0.8891
  114OSM   C12F11921   7.255   0.750   9.780 -0.0670  0.1570  0.0276
  114OSM   H12F11922   7.312   0.686   9.710 -2.5090  0.9349 -2.9209
  114OSM   H12G11923   7.299   0.849   9.757  2.1816 -0.7503  0.1964
  114OSM   C13F11924   7.102   0.736   9.744  0.0844  0.2916 -0.5246
  114OSM   H13F11925   7.044   0.785   9.825 -1.4316  0.4939 -1.6777
  114OSM   H13G11926   7.078   0.629   9.762 -0.7993  0.6160  0.3476
  114OSM   C14F11927   7.074   0.783   9.605 -0.5645  0.1475  0.4451
  114OSM   H14F11928   7.117   0.718   9.526 -2.8870 -0.2742 -0.5869
  114OSM   H14G11929   7.131   0.878   9.601  2.7452 -1.7381 -1.0654
  114OSM   C15F11930   6.929   0.811   9.570 -0.0895  0.6742 -0.3483
  114OSM   H15F11931   6.890   0.892   9.636 -2.8516 -0.1584 -0.8448
  114OSM   H15G11932   6.873   0.724   9.609 -0.6144  1.6406  1.1411
  114OSM   C16F11933   6.887   0.838   9.423 -0.0432  0.1791  0.0988
  114OSM   H16F11934   6.958   0.787   9.354  0.1925  0.7784 -0.1061
  114OSM   H16G11935   6.912   0.944   9.405 -1.0363  0.5551  0.8584
  114OSM   C17F11936   6.735   0.827   9.393 -0.2312  0.4386 -0.0563
  114OSM   H17F11937   6.709   0.719   9.383  0.4786  0.4331 -2.7943
  114OSM   H17G11938   6.720   0.866   9.290 -0.4363 -0.9117 -0.5673
  114OSM   C18F11939   6.635   0.910   9.492  0.0501 -0.3393  1.1966
  114OSM   H18F11940   6.547   0.944   9.434 -0.4534  0.7686  2.5513
  114OSM   H18G11941   6.689   1.002   9.526 -2.0090  0.6972  1.8374
  114OSM   H18H11942   6.598   0.843   9.571  1.3469 -0.7476  1.4754
  115OSM      N11943   1.833   6.547   5.983  0.5345 -0.6421  0.3452
  115OSM    C1511944   1.703   6.463   5.975 -0.2788 -0.3623 -0.4600
  115OSM   H15A11945   1.695   6.403   6.065 -1.0904  0.6363  0.1562
  115OSM   H15B11946   1.692   6.401   5.888  0.5343  0.4245 -1.1561
  115OSM   H15C11947   1.617   6.528   5.968 -0.4673 -0.6442 -0.7694
  115OSM    C1411948   1.839   6.638   5.863 -0.2092  0.6138  0.1402
  115OSM   H14A11949   1.755   6.707   5.865  0.5364  1.5210  0.6341
  115OSM   H14B11950   1.826   6.579   5.773  0.1788  0.6031  0.0901
  115OSM   H14C11951   1.930   6.694   5.849 -1.0610  1.2658 -4.6319
  115OSM    C1311952   1.833   6.633   6.107  0.3189 -0.6787  0.2460
  115OSM   H13A11953   1.736   6.680   6.115  0.3786 -0.6415  0.8098
  115OSM   H13B11954   1.907   6.712   6.108 -1.8892  1.5325  0.0882
  115OSM   H13C11955   1.839   6.561   6.187  2.6782 -0.6593  0.1552
  115OSM    C1211956   1.950   6.449   5.981  0.5652 -0.3433 -0.5725
  115OSM   H12A11957   2.035   6.507   5.947 -0.3093  0.9142 -0.6949
  115OSM   H12B11958   1.920   6.378   5.906 -0.4162  1.3002 -1.8253
  115OSM    C1111959   1.988   6.371   6.111 -0.1641 -0.4896 -0.6754
  115OSM   H11A11960   2.030   6.440   6.187  3.1220 -1.5323 -1.4060
  115OSM   H11B11961   2.075   6.313   6.076  0.9363  1.4093 -1.2695
  115OSM      P11962   1.889   6.136   6.135 -0.1969 -0.4123  0.3118
  115OSM    O1311963   1.758   6.071   6.130  0.0923 -0.2188 -0.2221
  115OSM    O1411964   1.969   6.107   6.012 -0.1296 -0.1818 -0.7902
  115OSM    O1111965   1.966   6.075   6.263  0.2767 -0.0153 -0.7344
  115OSM    O1211966   1.871   6.298   6.165 -0.1943  0.0303  0.0718
  115OSM    C1S11967   2.020   6.159   6.361 -0.6489 -1.1087 -0.4729
  115OSM    H1S11968   1.975   6.260   6.367  1.6357 -0.0785  4.5963
  115OSM    H1T11969   2.129   6.174   6.344 -0.5313  1.0253  1.6165
  115OSM     NF11970   2.045   6.192   6.590 -0.6853  0.6794 -0.1223
  115OSM    HNF11971   2.130   6.162   6.633 -2.0195 -2.0071  0.9104
  115OSM    C2S11972   1.989   6.104   6.495  0.2195  0.1186 -0.4700
  115OSM    H2S11973   1.878   6.100   6.503  0.0697  2.9757 -0.1845
  115OSM    C3S11974   2.054   5.969   6.512 -0.6009 -0.4517 -0.6798
  115OSM    H3S11975   2.157   5.977   6.470 -0.4706 -2.8292 -0.9933
  115OSM     O311976   1.999   5.870   6.428 -0.1910 -0.1478  0.1068
  115OSM    HO311977   1.942   5.921   6.370  0.1284 -0.3794 -0.4166
  115OSM    C4S11978   2.055   5.915   6.650 -0.2202 -0.8081 -0.6223
  115OSM    H4S11979   2.149   5.923   6.706 -0.5449 -0.4094 -0.1221
  115OSM    C5S11980   1.945   5.860   6.708  0.4718  0.3498  0.1990
  115OSM    H5S11981   1.852   5.854   6.649  1.6429 -0.9966 -1.6426
  115OSM    C6S11982   1.941   5.791   6.840  0.5444  0.1815  0.5926
  115OSM    H6S11983   1.902   5.689   6.821  3.3576 -0.3592 -3.6814
  115OSM    H6T11984   1.872   5.842   6.910 -0.4033  0.8246 -0.7653
  115OSM    C7S11985   2.075   5.775   6.914  0.2908  0.3814  0.0421
  115OSM    H7S11986   2.121   5.876   6.927  0.6494  0.1141  0.9685
  115OSM    H7T11987   2.155   5.712   6.869  3.5466  3.5087  0.9736
  115OSM    C8S11988   2.044   5.708   7.045 -0.2396  0.0338  0.1635
  115OSM    H8S11989   2.009   5.603   7.031  0.1957  0.1634 -2.2763
  115OSM    H8T11990   1.969   5.768   7.101 -0.3888 -1.2415  1.4021
  115OSM    C9S11991   2.162   5.696   7.142  0.5188 -0.1555  0.2659
  115OSM    H9S11992   2.200   5.791   7.185  0.1536  0.6276 -1.1039
  115OSM    H9T11993   2.251   5.651   7.092  1.8719  0.2860  2.1485
  115OSM   C10S11994   2.123   5.610   7.269 -0.2906 -0.2333  0.3659
  115OSM   H10S11995   2.065   5.527   7.225  1.4968 -0.5235 -1.6295
  115OSM   H10T11996   2.045   5.665   7.325 -1.5386 -0.1209 -1.3907
  115OSM   C11S11997   2.248   5.565   7.363  0.2076  0.0983 -0.0474
  115OSM   H11S11998   2.294   5.662   7.390 -1.4144  1.1059 -0.7106
  115OSM   H11T11999   2.310   5.502   7.295 -0.7000 -0.4275 -0.4046
  115OSM   C12S12000   2.208   5.481   7.483 -0.1266 -0.1008  0.8224
  115OSM   H12S12001   2.303   5.434   7.516  0.6624  1.6844  1.2608
  115OSM   H12T12002   2.143   5.398   7.450  0.4458 -0.0285 -0.5465
  115OSM   C13S12003   2.133   5.558   7.597  0.2950  0.0166 -0.1481
  115OSM   H13S12004   2.121   5.491   7.684 -0.7231  1.7276  1.0880
  115OSM   H13T12005   2.037   5.609   7.576  0.8063  0.2957 -1.9593
  115OSM   C14S12006   2.223   5.677   7.653 -0.2664 -0.1940 -0.3040
  115OSM   H14S12007   2.208   5.749   7.569  1.7173 -0.6460 -1.1216
  115OSM   H14T12008   2.328   5.641   7.643 -0.4379 -1.0127  0.7227
  115OSM   C15S12009   2.169   5.734   7.784 -0.5277  0.9350 -0.4400
  115OSM   H15S12010   2.058   5.729   7.784 -0.5385  0.8517  0.6048
  115OSM   H15T12011   2.204   5.839   7.790 -0.0616  0.9457 -2.5120
  115OSM   C16S12012   2.202   5.650   7.912 -0.1147 -0.3308  0.6609
  115OSM   H16S12013   2.299   5.598   7.895 -1.5106 -2.4336 -1.4036
  115OSM   H16T12014   2.121   5.579   7.940 -0.2413 -0.5135 -0.1428
  115OSM   C17S12015   2.219   5.749   8.027  0.2788 -0.5751 -0.2724
  115OSM   H17S12016   2.305   5.818   8.010  0.8602 -1.0675  0.5918
  115OSM   H17T12017   2.236   5.684   8.115 -2.8761 -1.6286 -0.3013
  115OSM   C18S12018   2.099   5.836   8.048 -0.0900  0.2812 -0.0122
  115OSM   H18S12019   2.127   5.924   8.109 -0.3927 -0.5426  1.3733
  115OSM   H18T12020   2.024   5.785   8.112  1.5866  0.7797  2.4948
  115OSM   H18U12021   2.034   5.859   7.961  0.5321  3.7522  0.3130
  115OSM    C1F12022   1.986   6.302   6.640 -0.1210 -0.1089 -0.3182
  115OSM     OF12023   1.882   6.343   6.594  0.5126  0.3079 -0.2090
  115OSM    C2F12024   2.051   6.376   6.750 -0.0703 -0.2481 -0.0460
  115OSM    H2F12025   1.976   6.456   6.768  1.2251  1.4711 -1.8260
  115OSM    H2G12026   2.145   6.431   6.727 -0.2388  1.1788  2.3435
  115OSM    C3F12027   2.066   6.296   6.883  0.0983  0.1053  0.6895
  115OSM    H3F12028   2.122   6.360   6.953 -0.9438 -0.2387  1.8774
  115OSM    H3G12029   2.133   6.209   6.864  1.5444  1.3192  0.0414
  115OSM    C4F12030   1.928   6.250   6.937  0.5930  0.0505  0.0876
  115OSM    H4F12031   1.860   6.200   6.865 -0.7403  0.5721  0.9311
  115OSM    H4G12032   1.868   6.342   6.955 -0.8613 -0.3879 -2.1512
  115OSM    C5F12033   1.945   6.162   7.064  0.0225  0.4943 -1.0346
  115OSM    H5F12034   1.963   6.056   7.037  0.1680 -0.0677  1.0656
  115OSM    H5G12035   1.851   6.150   7.122 -0.6884  1.8631 -1.8585
  115OSM    C6F12036   2.054   6.214   7.161  0.2263 -0.5595  0.1524
  115OSM    H6F12037   2.034   6.321   7.183 -0.1778  0.0453 -2.7276
  115OSM    H6G12038   2.159   6.214   7.125  0.9416  1.7011  2.0129
  115OSM    C7F12039   2.078   6.129   7.291  0.4043 -0.0990  0.3396
  115OSM    H7F12040   2.087   6.020   7.273  1.3867 -0.7040  3.7989
  115OSM    H7G12041   1.990   6.131   7.358  1.1770 -1.5749  1.4476
  115OSM    C8F12042   2.200   6.182   7.373 -0.5915  0.3333  0.2888
  115OSM    H8F12043   2.175   6.283   7.414  1.7227  1.5531 -1.1109
  115OSM    H8G12044   2.289   6.188   7.307  0.1068  0.2717  1.2058
  115OSM    C9F12045   2.216   6.071   7.477  0.1031  0.0298 -0.4841
  115OSM    H9F12046   2.217   5.974   7.425  0.3563 -0.3005  0.1344
  115OSM   C10F12047   2.221   6.078   7.610  0.1742 -0.3233 -0.4766
  115OSM   H10F12048   2.257   5.992   7.669  2.3107  0.7432 -0.1294
  115OSM   C11F12049   2.220   6.208   7.690  0.0744  0.5083  0.0003
  115OSM   H11F12050   2.130   6.208   7.755  1.5031  0.2142  2.0525
  115OSM   H11G12051   2.215   6.296   7.622  0.7946 -0.9794 -2.1096
  115OSM   C12F12052   2.330   6.222   7.795  0.1161  0.1897 -0.6211
  115OSM   H12F12053   2.426   6.242   7.743  0.4460  0.1895 -0.0277
  115OSM   H12G12054   2.337   6.123   7.846 -2.2532 -0.7273 -1.9024
  115OSM   C13F12055   2.320   6.322   7.902 -0.0749  0.2361  0.2875
  115OSM   H13F12056   2.218   6.317   7.946 -0.0020  2.1496  0.7855
  115OSM   H13G12057   2.327   6.425   7.861  2.0736  0.7860  1.8420
  115OSM   C14F12058   2.426   6.297   8.005 -0.2003  0.2511  0.1798
  115OSM   H14F12059   2.522   6.309   7.951 -0.0146 -0.1003  0.4362
  115OSM   H14G12060   2.437   6.190   8.030 -0.7974 -0.3316 -1.8292
  115OSM   C15F12061   2.427   6.389   8.130 -0.3660  0.0862  0.3098
  115OSM   H15F12062   2.329   6.382   8.180 -1.4142 -0.3191 -1.7096
  115OSM   H15G12063   2.431   6.493   8.091  0.3121 -0.2142 -0.4571
  115OSM   C16F12064   2.539   6.351   8.229 -0.6692 -0.3815 -0.2315
  115OSM   H16F12065   2.632   6.327   8.173 -0.4196  0.1565 -0.0553
  115OSM   H16G12066   2.503   6.261   8.283  0.7078 -0.0165  1.3843
  115OSM   C17F12067   2.554   6.458   8.338 -0.2774 -0.2818 -0.5147
  115OSM   H17F12068   2.588   6.548   8.281  0.2606  0.8126  1.4184
  115OSM   H17G12069   2.641   6.433   8.403  0.5540 -0.4587 -1.6495
  115OSM   C18F12070   2.435   6.486   8.433 -0.5580  0.8778 -0.1131
  115OSM   H18F12071   2.469   6.556   8.512  2.1452 -2.0983  1.5867
  115OSM   H18G12072   2.404   6.387   8.471  0.2179  1.1804  1.3603
  115OSM   H18H12073   2.348   6.522   8.374  0.8896  1.8286 -1.8082
  116OSM      N12074   1.396   3.545   6.431 -0.0407  0.2259 -0.1290
  116OSM    C1512075   1.349   3.464   6.549  0.2952 -0.4504  0.7358
  116OSM   H15A12076   1.254   3.419   6.525  0.3674  0.0433 -0.5584
  116OSM   H15B12077   1.334   3.513   6.644  0.2304 -2.8079  2.0087
  116OSM   H15C12078   1.417   3.381   6.563  1.0304  0.3276  1.9760
  116OSM    C1412079   1.538   3.572   6.456 -0.0415 -0.2628 -0.1318
  116OSM   H14A12080   1.559   3.592   6.560  0.2487 -2.5647  0.3160
  116OSM   H14B12081   1.577   3.653   6.397  1.3948  0.3823  1.6337
  116OSM   H14C12082   1.601   3.487   6.435 -2.9052 -2.2061 -1.6249
  116OSM    C1312083   1.386   3.467   6.304 -0.6850  0.4008 -0.1297
  116OSM   H13A12084   1.284   3.475   6.269 -0.3571  1.1603 -0.9619
  116OSM   H13B12085   1.412   3.363   6.322 -0.4329  0.3340 -0.8374
  116OSM   H13C12086   1.441   3.520   6.227 -1.1239  2.4173  0.9097
  116OSM    C1212087   1.314   3.671   6.428  0.3248 -0.5703  0.0719
  116OSM   H12A12088   1.319   3.713   6.329  0.9440 -2.0695 -0.5540
  116OSM   H12B12089   1.357   3.733   6.506 -1.4558 -1.2721  1.6954
  116OSM    C1112090   1.164   3.676   6.455  0.4637  0.2506 -0.2385
  116OSM   H11A12091   1.146   3.785   6.443  0.4376  0.2273 -0.4097
  116OSM   H11B12092   1.148   3.634   6.557  2.8090 -0.0460  0.0728
  116OSM      P12093   0.950   3.554   6.384 -0.0743 -0.2405 -0.2711
  116OSM    O1312094   0.854   3.665   6.413 -0.6274 -0.1836  0.1440
  116OSM    O1412095   0.913   3.462   6.271 -0.0134 -0.0282  0.5476
  116OSM    O1112096   0.979   3.469   6.516  0.6543 -0.1671 -0.0253
  116OSM    O1212097   1.095   3.609   6.352  0.1436 -0.1467 -0.1856
  116OSM    C1S12098   1.012   3.332   6.519 -0.5769 -0.0085 -0.4688
  116OSM    H1S12099   1.098   3.309   6.453 -2.3199 -0.6960 -2.6170
  116OSM    H1T12100   0.926   3.274   6.480 -0.9684  1.2314 -1.5163
  116OSM     NF12101   1.097   3.142   6.667  0.0457  0.0596 -0.3972
  116OSM    HNF12102   1.023   3.078   6.688  0.8071 -0.0666  2.1276
  116OSM    C2S12103   1.048   3.280   6.661  0.3096 -0.0514  0.1661
  116OSM    H2S12104   1.130   3.346   6.698 -0.3116  0.2738  1.0091
  116OSM    C3S12105   0.929   3.303   6.761  0.6382  0.3887  0.3858
  116OSM    H3S12106   0.861   3.216   6.747 -0.8891  1.3077  1.7111
  116OSM     O312107   0.844   3.409   6.744 -0.2153 -0.9383 -0.4639
  116OSM    HO312108   0.861   3.433   6.652 -3.3964 -0.7319 -1.0922
  116OSM    C4S12109   0.982   3.319   6.902  0.0243 -0.1171  0.3287
  116OSM    H4S12110   1.051   3.404   6.917 -0.2702  0.1053  0.4541
  116OSM    C5S12111   0.962   3.229   7.003 -0.7365 -0.6621 -0.4920
  116OSM    H5S12112   0.903   3.139   6.980 -2.3205  0.5729 -1.4686
  116OSM    C6S12113   1.025   3.249   7.140  0.2937 -0.3496  0.1716
  116OSM    H6S12114   0.952   3.302   7.205  1.9378 -0.7364  2.4443
  116OSM    H6T12115   1.112   3.318   7.136  1.0827 -1.3720 -1.0665
  116OSM    C7S12116   1.072   3.124   7.218 -0.2267 -0.1243  0.4792
  116OSM    H7S12117   1.147   3.064   7.162 -0.2669 -1.0898  1.4156
  116OSM    H7T12118   0.982   3.059   7.231  0.0065 -0.6339 -0.3302
  116OSM    C8S12119   1.131   3.152   7.354 -0.6524 -0.3888 -0.3489
  116OSM    H8S12120   1.083   3.240   7.402 -0.3167  0.9835 -2.4252
  116OSM    H8T12121   1.240   3.168   7.344 -0.1181 -3.1068  0.1597
  116OSM    C9S12122   1.109   3.029   7.446 -1.1232  1.0513  0.4057
  116OSM    H9S12123   1.153   2.953   7.378 -1.4164 -0.1964  1.5532
  116OSM    H9T12124   0.999   3.011   7.445 -1.0687  0.6882 -0.5591
  116OSM   C10S12125   1.163   3.018   7.587 -0.2246  0.4057 -0.3467
  116OSM   H10S12126   1.180   2.912   7.618 -2.5312  0.1525  0.2042
  116OSM   H10T12127   1.080   3.059   7.647 -0.8761 -1.4795  0.1283
  116OSM   C11S12128   1.297   3.099   7.609 -0.4776 -0.1855  0.3291
  116OSM   H11S12129   1.289   3.205   7.577 -0.0274  0.0593  1.0055
  116OSM   H11T12130   1.367   3.057   7.534  0.4275  0.2995  0.8800
  116OSM   C12S12131   1.360   3.081   7.742 -1.2553 -0.1553 -0.0436
  116OSM   H12S12132   1.469   3.103   7.733 -1.2285  0.6833  1.9351
  116OSM   H12T12133   1.337   2.979   7.777  1.5824 -1.6374 -2.0431
  116OSM   C13S12134   1.322   3.199   7.833  0.1112 -0.5112  0.4228
  116OSM   H13S12135   1.211   3.203   7.840  0.0718 -2.7519  3.1586
  116OSM   H13T12136   1.366   3.292   7.791 -1.5830  0.1450  0.0090
  116OSM   C14S12137   1.365   3.187   7.978 -0.0918  0.3568  0.2417
  116OSM   H14S12138   1.473   3.210   7.990  1.2863 -3.4852 -2.6493
  116OSM   H14T12139   1.356   3.082   8.015 -1.6098  0.7941  1.2115
  116OSM   C15S12140   1.277   3.265   8.078  0.1505  0.2414 -0.1808
  116OSM   H15S12141   1.174   3.232   8.056 -0.1853  2.6135 -2.7430
  116OSM   H15T12142   1.270   3.375   8.061 -3.4901  0.5614  2.3732
  116OSM   C16S12143   1.329   3.229   8.223  0.0645  0.1489  0.4991
  116OSM   H16S12144   1.316   3.119   8.229  0.9916  0.1031  2.4773
  116OSM   H16T12145   1.251   3.280   8.284 -2.3243 -0.6239 -1.7506
  116OSM   C17S12146   1.472   3.261   8.257 -0.1857  0.2437  0.2915
  116OSM   H17S12147   1.483   3.371   8.246 -1.0512  0.3470  0.3613
  116OSM   H17T12148   1.537   3.214   8.180  1.1892 -0.2997  1.7119
  116OSM   C18S12149   1.511   3.226   8.398 -0.4668 -0.5391 -0.0714
  116OSM   H18S12150   1.517   3.115   8.401  1.2791 -0.4581  0.3338
  116OSM   H18T12151   1.432   3.250   8.473  0.6481  0.9746  0.6758
  116OSM   H18U12152   1.607   3.268   8.434 -0.7356 -0.0682  0.1038
  116OSM    C1F12153   1.218   3.097   6.644 -0.6561  0.7256  1.0014
  116OSM     OF12154   1.311   3.179   6.628 -0.4449  0.9800 -0.6783
  116OSM    C2F12155   1.224   2.949   6.616  0.2045  0.4035 -0.0672
  116OSM    H2F12156   1.283   2.928   6.525 -0.2202 -0.3871 -0.1695
  116OSM    H2G12157   1.118   2.914   6.612 -0.5504  2.5423 -0.0200
  116OSM    C3F12158   1.298   2.871   6.724 -0.3716  0.1019  0.7517
  116OSM    H3F12159   1.295   2.762   6.702 -0.9156  0.4796 -1.2136
  116OSM    H3G12160   1.240   2.905   6.813 -3.2868  1.6270 -1.5292
  116OSM    C4F12161   1.446   2.910   6.746 -0.1037 -0.3520 -0.4308
  116OSM    H4F12162   1.463   3.018   6.769  1.1081 -0.9027  1.5416
  116OSM    H4G12163   1.503   2.895   6.652  0.5886 -0.8610  0.0563
  116OSM    C5F12164   1.527   2.836   6.857  0.4702  0.7589 -0.1622
  116OSM    H5F12165   1.633   2.861   6.835  0.8645  0.2441  1.0957
  116OSM    H5G12166   1.500   2.730   6.840 -3.5083  1.4915  0.4670
  116OSM    C6F12167   1.489   2.867   7.003  0.3102 -0.4146  0.6672
  116OSM    H6F12168   1.379   2.869   7.018  0.5319 -0.7668  2.4934
  116OSM    H6G12169   1.539   2.964   7.021 -0.2254  0.4094 -1.7795
  116OSM    C7F12170   1.560   2.757   7.087  0.2274  0.3062  0.2149
  116OSM    H7F12171   1.671   2.756   7.074  0.3613  1.2768  1.1364
  116OSM    H7G12172   1.517   2.661   7.052 -0.9416 -0.0560  2.4930
  116OSM    C8F12173   1.531   2.776   7.235  0.3051  0.8420 -0.4987
  116OSM    H8F12174   1.534   2.882   7.268 -0.4962  1.0525 -1.0923
  116OSM    H8G12175   1.607   2.715   7.289 -1.3907  0.5091  1.5932
  116OSM    C9F12176   1.394   2.718   7.264 -0.0506  0.3727 -0.1050
  116OSM    H9F12177   1.318   2.726   7.185 -1.1632 -1.1612  0.7562
  116OSM   C10F12178   1.358   2.659   7.378 -1.0935  0.3665 -0.0450
  116OSM   H10F12179   1.258   2.612   7.374 -0.2079 -1.5951 -0.3888
  116OSM   C11F12180   1.445   2.626   7.497 -0.2113  0.5226  0.6779
  116OSM   H11F12181   1.554   2.642   7.484 -0.1836 -1.0913 -2.0435
  116OSM   H11G12182   1.448   2.515   7.512  0.3364  0.4637  0.1942
  116OSM   C12F12183   1.396   2.696   7.620 -0.2340 -0.0157  1.3792
  116OSM   H12F12184   1.286   2.688   7.612 -0.0404 -1.5598 -0.4907
  116OSM   H12G12185   1.416   2.805   7.623 -2.6492  0.5788 -0.7039
  116OSM   C13F12186   1.449   2.621   7.749 -0.1854  0.6556  0.5725
  116OSM   H13F12187   1.558   2.601   7.739 -0.4250 -0.1305 -0.8091
  116OSM   H13G12188   1.396   2.524   7.764 -0.6272  0.8938  0.5894
  116OSM   C14F12189   1.432   2.703   7.878 -0.2419  1.2348  0.7031
  116OSM   H14F12190   1.322   2.715   7.895 -0.3885  0.7005  0.1697
  116OSM   H14G12191   1.474   2.806   7.872 -0.8027  1.4187 -0.2067
  116OSM   C15F12192   1.485   2.632   8.002 -0.5154  0.7030 -0.7117
  116OSM   H15F12193   1.596   2.637   8.014 -0.5516 -0.4772  0.3721
  116OSM   H15G12194   1.468   2.523   7.992 -1.2801  0.6907  0.5157
  116OSM   C16F12195   1.428   2.690   8.141  0.2074 -0.0302 -0.3967
  116OSM   H16F12196   1.318   2.676   8.148  0.4344 -2.0192 -0.0162
  116OSM   H16G12197   1.439   2.800   8.141 -0.7747  0.0826 -0.8284
  116OSM   C17F12198   1.507   2.629   8.264 -0.4836  0.2210  0.5957
  116OSM   H17F12199   1.514   2.703   8.346  0.4755 -0.9853  1.6413
  116OSM   H17G12200   1.611   2.603   8.235 -0.6504  1.7330 -1.6111
  116OSM   C18F12201   1.438   2.499   8.311  0.1280 -1.4997  0.2656
  116OSM   H18F12202   1.431   2.427   8.227  1.4625  0.8013 -1.9569
  116OSM   H18G12203   1.334   2.518   8.345  0.2636 -0.6383  0.2072
  116OSM   H18H12204   1.489   2.453   8.399 -0.1500  0.9787  1.8143
  117OSM      N12205   6.345   3.764   6.378  0.6857 -0.0025  0.4148
  117OSM    C1512206   6.411   3.899   6.358  0.6844  0.7849 -0.6678
  117OSM   H15A12207   6.338   3.977   6.338 -0.7507  0.0386  1.3349
  117OSM   H15B12208   6.485   3.891   6.280  1.5515 -1.5653  0.2992
  117OSM   H15C12209   6.459   3.924   6.452  2.2317  1.5413 -1.6269
  117OSM    C1412210   6.235   3.783   6.489 -0.7371  1.1909  1.1500
  117OSM   H14A12211   6.272   3.833   6.577  1.4380  1.0455  0.3764
  117OSM   H14B12212   6.192   3.691   6.523 -0.3009  0.4476 -0.2088
  117OSM   H14C12213   6.150   3.831   6.442 -1.2929  0.5144  1.4536
  117OSM    C1312214   6.279   3.726   6.252 -0.3215  1.0220  0.0326
  117OSM   H13A12215   6.254   3.621   6.251  3.3933  0.0001  0.7615
  117OSM   H13B12216   6.342   3.737   6.165  0.9203 -2.1987  0.3986
  117OSM   H13C12217   6.194   3.791   6.236 -0.1754  1.8633  2.3065
  117OSM    C1212218   6.448   3.658   6.419 -0.3102 -0.2625 -0.2345
  117OSM   H12A12219   6.511   3.638   6.334  0.5646 -1.1978  0.6176
  117OSM   H12B12220   6.400   3.567   6.453  1.5016 -0.1584  2.9876
  117OSM    C1112221   6.548   3.686   6.537  0.7681  0.3248  0.0085
  117OSM   H11A12222   6.593   3.593   6.578 -1.1478 -0.5837  0.1596
  117OSM   H11B12223   6.474   3.734   6.605  0.5321  0.4944 -0.3683
  117OSM      P12224   6.766   3.747   6.426  0.2043 -0.0086 -0.0850
  117OSM    O1312225   6.742   3.614   6.362 -0.3280  0.1017 -0.3169
  117OSM    O1412226   6.811   3.850   6.334  0.0277  0.1137  0.1909
  117OSM    O1112227   6.880   3.727   6.533  0.2422 -0.3293 -0.5793
  117OSM    O1212228   6.635   3.797   6.504  0.5972  0.0432  0.1414
  117OSM    C1S12229   6.902   3.828   6.632 -0.2060 -0.4039 -0.3674
  117OSM    H1S12230   6.843   3.920   6.613  1.2973  0.2786 -2.0855
  117OSM    H1T12231   7.006   3.865   6.620 -0.5428  1.1791  1.2572
  117OSM     NF12232   6.918   3.887   6.876 -0.2228  0.1558 -0.4681
  117OSM    HNF12233   7.003   3.879   6.929 -1.5642  2.7722  2.3920
  117OSM    C2S12234   6.893   3.778   6.780 -0.3008 -0.4558 -0.4039
  117OSM    H2S12235   6.786   3.751   6.792 -0.9241  2.0731  0.3351
  117OSM    C3S12236   6.963   3.642   6.801  0.0351 -0.5672  0.1269
  117OSM    H3S12237   7.068   3.646   6.766  0.9454 -0.9271  2.6174
  117OSM     O312238   6.903   3.545   6.721  0.7023  0.4663  0.3878
  117OSM    HO312239   6.902   3.585   6.634 -0.6295 -0.7239 -0.1906
  117OSM    C4S12240   6.966   3.601   6.951 -0.3678 -0.2508 -0.1581
  117OSM    H4S12241   7.051   3.650   7.003 -0.3679 -0.3590 -0.0552
  117OSM    C5S12242   6.886   3.519   7.023 -0.1341  0.0811 -0.4270
  117OSM    H5S12243   6.811   3.451   6.980 -1.3637 -0.1830  1.9725
  117OSM    C6S12244   6.912   3.496   7.171 -0.1789 -0.2089  0.4216
  117OSM    H6S12245   6.922   3.386   7.185 -1.7176 -0.5731 -1.0319
  117OSM    H6T12246   6.821   3.533   7.222  0.6419  0.2213  1.6174
  117OSM    C7S12247   7.016   3.577   7.249  0.1704 -0.0035 -0.7245
  117OSM    H7S12248   7.003   3.687   7.237  2.6195  0.4001 -0.2123
  117OSM    H7T12249   7.117   3.562   7.206  0.4469 -1.1176  0.2540
  117OSM    C8S12250   7.014   3.551   7.404  0.0003 -0.1151  0.1738
  117OSM    H8S12251   7.006   3.442   7.423 -0.4993  0.0356  0.8356
  117OSM    H8T12252   6.914   3.593   7.429 -0.2083  0.6591 -1.7463
  117OSM    C9S12253   7.137   3.615   7.470 -0.0028 -0.1247 -0.2170
  117OSM    H9S12254   7.151   3.724   7.450 -1.5731 -0.1713 -1.8016
  117OSM    H9T12255   7.225   3.580   7.411  0.7095  0.4170  0.5005
  117OSM   C10S12256   7.149   3.579   7.622 -0.3215  0.0255 -0.4707
  117OSM   H10S12257   7.155   3.469   7.635 -1.2089 -0.0172 -0.3408
  117OSM   H10T12258   7.060   3.625   7.671 -1.2662 -1.4665 -0.7017
  117OSM   C11S12259   7.266   3.641   7.692 -0.3499  0.2646  0.3976
  117OSM   H11S12260   7.269   3.752   7.686 -0.4245  0.1804 -1.8745
  117OSM   H11T12261   7.361   3.601   7.649 -0.7040  1.3498 -1.4530
  117OSM   C12S12262   7.268   3.610   7.850  0.1219  0.0348 -0.6415
  117OSM   H12S12263   7.247   3.502   7.862 -0.7260  0.1693 -0.8017
  117OSM   H12T12264   7.179   3.672   7.876 -1.0891 -1.6058 -0.7474
  117OSM   C13S12265   7.382   3.661   7.931 -0.9216 -0.4526  0.0547
  117OSM   H13S12266   7.407   3.766   7.906 -1.0761 -0.1422  1.1626
  117OSM   H13T12267   7.473   3.599   7.920 -0.2813  0.4956 -0.0758
  117OSM   C14S12268   7.346   3.678   8.084  0.3169 -0.5798  0.2609
  117OSM   H14S12269   7.267   3.757   8.089 -1.0024 -1.6886 -1.6317
  117OSM   H14T12270   7.435   3.718   8.136  0.4155  1.2983 -1.2302
  117OSM   C15S12271   7.303   3.551   8.158 -1.5439  0.0683 -0.5967
  117OSM   H15S12272   7.392   3.488   8.141 -0.1075  2.2800 -1.8015
  117OSM   H15T12273   7.215   3.516   8.101 -1.3296  1.5357 -1.8955
  117OSM   C16S12274   7.278   3.572   8.313 -0.8855 -0.0919 -0.3810
  117OSM   H16S12275   7.203   3.652   8.328 -2.1966 -0.9475 -2.0824
  117OSM   H16T12276   7.376   3.604   8.355 -0.0362 -1.8348 -0.9490
  117OSM   C17S12277   7.246   3.444   8.391  0.4015  0.0129  0.6599
  117OSM   H17S12278   7.338   3.382   8.396 -0.5037 -1.2546  2.3787
  117OSM   H17T12279   7.177   3.388   8.325  2.0359 -0.6814 -0.5365
  117OSM   C18S12280   7.199   3.466   8.531 -0.6895 -0.6170 -0.4658
  117OSM   H18S12281   7.225   3.373   8.586 -0.4385  0.1386  0.7440
  117OSM   H18T12282   7.090   3.485   8.546 -0.6331 -0.6809  0.0493
  117OSM   H18U12283   7.261   3.551   8.567  1.2930 -0.6856 -3.3731
  117OSM    C1F12284   6.851   4.002   6.872 -0.4565 -0.1657 -0.1675
  117OSM     OF12285   6.752   4.017   6.802 -0.1828 -0.0244 -0.2123
  117OSM    C2F12286   6.902   4.120   6.953  0.5946  0.3749  0.0161
  117OSM    H2F12287   6.907   4.207   6.883 -1.6163 -1.5694 -2.7831
  117OSM    H2G12288   6.998   4.095   7.004  0.2442  1.4703  1.2769
  117OSM    C3F12289   6.801   4.147   7.066 -0.0649 -0.0276 -0.2539
  117OSM    H3F12290   6.851   4.225   7.126  1.2224 -0.4713 -0.7149
  117OSM    H3G12291   6.776   4.055   7.123 -2.9856 -0.6174 -2.2229
  117OSM    C4F12292   6.668   4.212   7.023  1.0448  0.2376  0.1498
  117OSM    H4F12293   6.593   4.138   6.987  0.6378  0.4128  0.6280
  117OSM    H4G12294   6.688   4.299   6.957 -3.1925  2.6591  1.7031
  117OSM    C5F12295   6.589   4.272   7.145 -0.6009  0.6336 -0.4198
  117OSM    H5F12296   6.503   4.322   7.097 -0.3638 -1.1946 -2.9603
  117OSM    H5G12297   6.655   4.341   7.201  1.5728 -1.2754 -0.4840
  117OSM    C6F12298   6.522   4.173   7.232  0.0426  0.1614 -0.0212
  117OSM    H6F12299   6.595   4.095   7.262 -1.8186 -1.9507 -0.7160
  117OSM    H6G12300   6.438   4.134   7.171 -0.6171 -0.2756  1.1398
  117OSM    C7F12301   6.450   4.238   7.348 -0.7235  1.0867  0.3799
  117OSM    H7F12302   6.383   4.321   7.317  0.0691  1.2643 -0.8994
  117OSM    H7G12303   6.532   4.266   7.418  0.6118 -2.1368  0.3043
  117OSM    C8F12304   6.371   4.129   7.428  0.1027 -0.1101  0.3526
  117OSM    H8F12305   6.443   4.046   7.441 -0.7290 -1.4031 -2.5499
  117OSM    H8G12306   6.301   4.097   7.348 -2.6762  2.3648  1.5661
  117OSM    C9F12307   6.299   4.155   7.560  0.5379 -0.3161  0.5541
  117OSM    H9F12308   6.230   4.240   7.558  1.1611  0.3399  3.0105
  117OSM   C10F12309   6.316   4.093   7.682 -0.2879 -0.3008  0.0664
  117OSM   H10F12310   6.259   4.123   7.772 -0.5169 -0.4001 -0.0436
  117OSM   C11F12311   6.403   3.974   7.717 -0.2858  0.1723  0.1878
  117OSM   H11F12312   6.456   3.927   7.631 -0.4685  0.7652 -0.2568
  117OSM   H11G12313   6.337   3.894   7.756  0.9189 -0.6981  0.4766
  117OSM   C12F12314   6.515   4.021   7.812  0.8486  0.4007 -0.1852
  117OSM   H12F12315   6.591   4.089   7.769  0.7409  0.9111  0.4102
  117OSM   H12G12316   6.575   3.933   7.842  0.8213  0.3054 -0.4101
  117OSM   C13F12317   6.465   4.101   7.936  0.3795  0.8078  0.4422
  117OSM   H13F12318   6.367   4.054   7.959  1.7404 -2.5078  0.0342
  117OSM   H13G12319   6.458   4.210   7.915  2.4758  1.1421  1.2534
  117OSM   C14F12320   6.560   4.092   8.060  0.5767 -0.4122 -0.2035
  117OSM   H14F12321   6.535   4.159   8.146 -1.2137 -0.4168 -0.6788
  117OSM   H14G12322   6.658   4.125   8.019  1.2894 -0.5121  1.3497
  117OSM   C15F12323   6.561   3.949   8.131  0.2409 -0.3373  0.3546
  117OSM   H15F12324   6.552   3.864   8.061 -3.2178 -2.4533  2.9988
  117OSM   H15G12325   6.462   3.947   8.182 -0.6280 -0.7172 -1.2722
  117OSM   C16F12326   6.686   3.941   8.227 -0.2451 -0.1732 -0.4445
  117OSM   H16F12327   6.687   4.041   8.276 -1.7899 -0.9121  1.2250
  117OSM   H16G12328   6.780   3.934   8.169 -0.2025  0.5993 -0.4795
  117OSM   C17F12329   6.690   3.825   8.329  0.6210 -0.7653  0.0253
  117OSM   H17F12330   6.701   3.732   8.269 -0.0136 -0.4790 -0.5485
  117OSM   H17G12331   6.785   3.844   8.384  0.7604 -0.8591 -0.1805
  117OSM   C18F12332   6.574   3.809   8.436 -0.0266  0.2775 -0.1397
  117OSM   H18F12333   6.596   3.733   8.514 -0.0976  1.4808  1.0839
  117OSM   H18G12334   6.482   3.769   8.388  0.5519  0.1842 -1.2155
  117OSM   H18H12335   6.556   3.907   8.484  0.1404 -1.1299  3.0564
  118OSM      N12336   2.752   6.421   6.161  0.2357  0.5263  0.0115
  118OSM    C1512337   2.738   6.568   6.130 -0.2478  0.1233 -0.2609
  118OSM   H15A12338   2.736   6.567   6.022  0.6535 -1.3917 -0.2906
  118OSM   H15B12339   2.822   6.626   6.166  0.7328 -0.8725 -0.8477
  118OSM   H15C12340   2.649   6.611   6.173  0.6204  1.2359  0.4690
  118OSM    C1412341   2.651   6.355   6.076 -0.0238 -0.3179  0.6170
  118OSM   H14A12342   2.673   6.377   5.973 -2.3604  1.1335  0.3560
  118OSM   H14B12343   2.552   6.396   6.084 -0.1910 -0.8062  1.0892
  118OSM   H14C12344   2.663   6.248   6.086  1.6730 -0.3093 -0.7409
  118OSM    C1312345   2.892   6.393   6.127 -0.6019  0.5789  0.5035
  118OSM   H13A12346   2.960   6.469   6.163  1.2141 -0.0495 -1.3731
  118OSM   H13B12347   2.904   6.392   6.019  0.3501  2.2511  0.5621
  118OSM   H13C12348   2.928   6.298   6.164  1.3481  2.0837  2.7496
  118OSM    C1212349   2.711   6.392   6.305  0.0207  0.7110  0.0912
  118OSM   H12A12350   2.618   6.446   6.317 -0.3832  0.3827 -1.4013
  118OSM   H12B12351   2.786   6.436   6.370  0.5256  0.1785 -0.1182
  118OSM    C1112352   2.693   6.243   6.347  0.3265 -0.4237  0.7741
  118OSM   H11A12353   2.661   6.242   6.453 -2.5934  0.7288 -0.0186
  118OSM   H11B12354   2.789   6.186   6.346  1.0985  0.8383  0.0664
  118OSM      P12355   2.445   6.182   6.292  0.0547  0.0958  0.1815
  118OSM    O1312356   2.412   6.324   6.298  0.7558 -0.0474  1.0338
  118OSM    O1412357   2.378   6.101   6.184  0.2275 -0.1176 -0.5435
  118OSM    O1112358   2.424   6.114   6.433 -0.3132 -0.6253  0.1625
  118OSM    O1212359   2.597   6.167   6.272  0.4751 -0.7154  0.0106
  118OSM    C1S12360   2.492   6.002   6.474 -0.1000 -0.2191 -0.1784
  118OSM    H1S12361   2.565   5.959   6.402  0.1391  0.5439 -0.3961
  118OSM    H1T12362   2.413   5.928   6.500  0.4786  0.4334  4.1923
  118OSM     NF12363   2.629   5.886   6.654 -0.2745 -0.1149 -0.8492
  118OSM    HNF12364   2.592   5.832   6.728  0.9592 -0.0596 -0.1560
  118OSM    C2S12365   2.548   6.003   6.619 -0.4982  0.7740 -0.3354
  118OSM    H2S12366   2.617   6.090   6.624 -2.4340  2.5364 -2.3800
  118OSM    C3S12367   2.429   6.021   6.720 -0.0430  0.5936  0.1134
  118OSM    H3S12368   2.373   5.926   6.715 -0.7523  0.9795  0.5609
  118OSM     O312369   2.337   6.125   6.684  0.1038  0.2636 -0.2023
  118OSM    HO312370   2.363   6.137   6.592  0.4068 -0.6374 -0.2469
  118OSM    C4S12371   2.482   6.051   6.859  0.2982  0.7262 -0.5103
  118OSM    H4S12372   2.558   6.131   6.867  1.2450 -0.2658  0.9229
  118OSM    C5S12373   2.475   5.973   6.970 -1.4713 -0.2003 -0.3896
  118OSM    H5S12374   2.408   5.886   6.970  0.6669 -1.9202  0.1161
  118OSM    C6S12375   2.535   6.004   7.109 -0.1470 -0.1558  0.1515
  118OSM    H6S12376   2.454   6.033   7.179 -0.5365  0.1910 -0.4426
  118OSM    H6T12377   2.612   6.084   7.111 -0.5278  0.2049  0.9216
  118OSM    C7S12378   2.600   5.886   7.182 -0.1732  0.1909  0.1503
  118OSM    H7S12379   2.708   5.883   7.154  0.1779 -0.7099  1.5319
  118OSM    H7T12380   2.545   5.793   7.154  0.1775  0.4593 -1.5582
  118OSM    C8S12381   2.576   5.905   7.327 -0.6420 -0.1397 -0.0747
  118OSM    H8S12382   2.467   5.924   7.341 -0.9463 -0.2580 -1.9340
  118OSM    H8T12383   2.625   5.996   7.366  1.5401 -1.4533  0.3988
  118OSM    C9S12384   2.602   5.786   7.419 -0.4283  0.2264 -0.2656
  118OSM    H9S12385   2.706   5.749   7.432  0.8265  3.1054 -1.2142
  118OSM    H9T12386   2.553   5.699   7.373  0.9920 -0.8816  0.2261
  118OSM   C10S12387   2.541   5.806   7.554  1.0353 -0.6410  0.1308
  118OSM   H10S12388   2.532   5.707   7.602  1.3470 -0.1492  1.2413
  118OSM   H10T12389   2.436   5.840   7.541  0.1460 -3.5220 -0.8810
  118OSM   C11S12390   2.631   5.895   7.651 -0.0649 -0.3147 -0.0570
  118OSM   H11S12391   2.631   6.001   7.618  1.2641 -0.3119 -0.0859
  118OSM   H11T12392   2.732   5.851   7.637  0.3713 -0.3099  2.5029
  118OSM   C12S12393   2.594   5.894   7.801 -0.2562  0.0255  0.2536
  118OSM   H12S12394   2.570   5.788   7.826  0.5385 -0.3585 -0.5197
  118OSM   H12T12395   2.505   5.958   7.818 -1.4766 -1.4271 -0.4345
  118OSM   C13S12396   2.723   5.934   7.880 -0.2061  0.6385 -0.1638
  118OSM   H13S12397   2.762   6.033   7.849  3.6141 -1.2617 -2.0915
  118OSM   H13T12398   2.803   5.861   7.856 -0.4322  1.0784 -2.5703
  118OSM   C14S12399   2.693   5.930   8.029 -0.1984  0.4765  0.7672
  118OSM   H14S12400   2.629   6.018   8.052 -1.4953 -0.4630  0.8014
  118OSM   H14T12401   2.790   5.952   8.080  0.4430  0.8954 -0.5745
  118OSM   C15S12402   2.632   5.807   8.084  0.5765  0.1891 -0.0707
  118OSM   H15S12403   2.690   5.719   8.048  1.8028  0.2721  1.5711
  118OSM   H15T12404   2.534   5.812   8.032 -0.5862  1.6499  2.0877
  118OSM   C16S12405   2.615   5.812   8.237 -0.3865 -0.1771 -0.0817
  118OSM   H16S12406   2.560   5.901   8.275  1.4623  0.3068  1.5752
  118OSM   H16T12407   2.714   5.817   8.287 -0.6883 -0.4145  0.5379
  118OSM   C17S12408   2.538   5.684   8.279 -0.4270  0.6479  0.3836
  118OSM   H17S12409   2.607   5.598   8.261 -1.1107  0.0203  0.6951
  118OSM   H17T12410   2.459   5.676   8.202 -0.9829 -2.4432  1.1203
  118OSM   C18S12411   2.476   5.678   8.419 -0.4261 -0.6337  0.6619
  118OSM   H18S12412   2.559   5.662   8.490  0.2460  1.1271  0.3268
  118OSM   H18T12413   2.419   5.583   8.431 -0.4894 -0.3051  3.6811
  118OSM   H18U12414   2.414   5.768   8.443 -1.0128 -0.7478 -0.3729
  118OSM    C1F12415   2.749   5.849   6.594  0.6856 -0.4600  0.1627
  118OSM     OF12416   2.805   5.930   6.524  0.2047 -0.2416 -0.4517
  118OSM    C2F12417   2.807   5.715   6.600  0.3825  0.3182 -0.3591
  118OSM    H2F12418   2.835   5.677   6.499  2.1948 -3.8175  1.4390
  118OSM    H2G12419   2.731   5.638   6.626  1.1261 -0.3813 -0.2109
  118OSM    C3F12420   2.929   5.697   6.688  0.3453 -0.2375 -0.0504
  118OSM    H3F12421   2.893   5.702   6.793 -2.3043 -1.0168 -0.8473
  118OSM    H3G12422   3.012   5.769   6.673  0.6862 -0.7220 -0.5412
  118OSM    C4F12423   3.001   5.562   6.674 -0.7477  1.1158 -0.0905
  118OSM    H4F12424   3.026   5.545   6.567  3.3275 -0.7827  0.9749
  118OSM    H4G12425   2.918   5.503   6.718 -0.3993  2.1041  2.0088
  118OSM    C5F12426   3.135   5.575   6.755  0.3004  0.0602  0.3221
  118OSM    H5F12427   3.201   5.645   6.700 -0.8863  0.0861 -1.1232
  118OSM    H5G12428   3.187   5.478   6.769  0.1279 -0.1782 -0.6590
  118OSM    C6F12429   3.116   5.629   6.906 -0.2459  0.2740 -0.2072
  118OSM    H6F12430   3.059   5.723   6.919  0.0590  0.4097  0.1602
  118OSM    H6G12431   3.212   5.657   6.954 -1.3230 -0.6896  2.7105
  118OSM    C7F12432   3.057   5.526   7.006 -0.4425 -0.6800 -0.2220
  118OSM    H7F12433   3.122   5.437   6.997  1.4662  0.7614 -1.6770
  118OSM    H7G12434   2.957   5.488   6.975 -0.6926  1.4802 -2.3265
  118OSM    C8F12435   3.057   5.575   7.154 -0.1296  0.0976  0.1585
  118OSM    H8F12436   3.161   5.606   7.178 -1.2172  2.2505  2.6659
  118OSM    H8G12437   3.035   5.479   7.205  1.1952 -1.0526 -1.3329
  118OSM    C9F12438   2.958   5.686   7.186 -0.0962  0.0996  0.6076
  118OSM    H9F12439   2.870   5.685   7.121  0.6205  1.6847 -0.4384
  118OSM   C10F12440   2.976   5.791   7.261 -0.4198 -0.2556  0.5572
  118OSM   H10F12441   2.895   5.860   7.289  0.7573  0.5941  2.0734
  118OSM   C11F12442   3.107   5.828   7.322  0.0908  0.3487 -0.5817
  118OSM   H11F12443   3.155   5.906   7.260 -1.2458  0.8224 -1.0422
  118OSM   H11G12444   3.172   5.738   7.331 -0.3420  0.2311  2.9983
  118OSM   C12F12445   3.102   5.888   7.469 -0.5997 -0.9012  0.2321
  118OSM   H12F12446   3.034   5.975   7.480 -1.8721 -1.8132 -0.2216
  118OSM   H12G12447   3.209   5.911   7.489  0.2037 -2.2928 -2.0505
  118OSM   C13F12448   3.058   5.779   7.563  0.1952 -0.2984  0.3874
  118OSM   H13F12449   3.123   5.689   7.566 -1.7280 -1.7403  2.3616
  118OSM   H13G12450   2.957   5.741   7.534 -0.8518 -0.0892  3.4411
  118OSM   C14F12451   3.035   5.830   7.709 -0.2449  1.1947 -0.0704
  118OSM   H14F12452   3.002   5.748   7.777 -1.1501  1.2074 -0.4761
  118OSM   H14G12453   2.961   5.913   7.713 -1.3164  0.2261  0.7159
  118OSM   C15F12454   3.160   5.894   7.778 -0.3587  0.1129 -1.0712
  118OSM   H15F12455   3.209   5.973   7.717  1.3331 -1.0579 -1.2948
  118OSM   H15G12456   3.240   5.816   7.782  0.5461  1.0474 -0.2878
  118OSM   C16F12457   3.144   5.943   7.925  0.1633  0.2856 -0.2480
  118OSM   H16F12458   3.241   5.951   7.978  0.4295  2.1478 -0.9364
  118OSM   H16G12459   3.077   5.869   7.974 -0.9949  1.1217 -0.5227
  118OSM   C17F12460   3.075   6.077   7.927  0.0698 -0.5304  0.1529
  118OSM   H17F12461   2.976   6.069   7.877 -0.4691 -1.1841  1.2822
  118OSM   H17G12462   3.136   6.145   7.864  1.8732 -1.4675  0.8245
  118OSM   C18F12463   3.047   6.139   8.063 -0.0652  0.3142 -0.2936
  118OSM   H18F12464   3.144   6.147   8.117  0.8777  0.4509 -1.9462
  118OSM   H18G12465   2.997   6.066   8.130  1.7876  0.1078  0.9331
  118OSM   H18H12466   2.995   6.237   8.058 -0.8992 -0.0762  0.4701
  119OSM      N12467   5.087   6.124   5.769 -0.1680 -0.7879 -0.2066
  119OSM    C1512468   5.211   6.096   5.698 -0.4647 -0.9788 -1.0769
  119OSM   H15A12469   5.291   6.100   5.770 -0.9804 -0.9515 -0.4979
  119OSM   H15B12470   5.240   6.164   5.620  2.1496 -0.9529 -0.1669
  119OSM   H15C12471   5.211   5.995   5.661 -2.5587 -2.6190  2.8435
  119OSM    C1412472   5.095   6.276   5.793  0.6618  0.7506  0.9016
  119OSM   H14A12473   5.183   6.296   5.852  0.1743  1.1169  1.5281
  119OSM   H14B12474   5.008   6.322   5.839  0.9438 -0.5292  2.8227
  119OSM   H14C12475   5.105   6.320   5.695  0.6321 -2.2620 -0.5453
  119OSM    C1312476   4.973   6.088   5.675  0.3401 -0.4644  0.0282
  119OSM   H13A12477   4.993   6.150   5.588 -0.8363  0.8049  0.6223
  119OSM   H13B12478   4.878   6.122   5.713 -1.1901 -0.5431 -3.3241
  119OSM   H13C12479   4.964   5.982   5.656 -0.7019 -1.0304  3.2013
  119OSM    C1212480   5.083   6.054   5.903 -0.0713  0.1621  0.1338
  119OSM   H12A12481   5.174   6.071   5.959 -1.5899  0.9979  2.5429
  119OSM   H12B12482   5.067   5.949   5.884 -1.4116  0.6346 -1.5396
  119OSM    C1112483   4.969   6.095   5.999 -0.5794  0.1818 -0.7470
  119OSM   H11A12484   4.973   6.205   6.007 -2.9250  0.5805 -3.4842
  119OSM   H11B12485   4.991   6.044   6.095  1.4725 -1.9237 -2.2123
  119OSM      P12486   4.806   5.901   5.957 -0.1033  0.5512 -0.1360
  119OSM    O1312487   4.672   5.873   5.897  0.1750 -0.1084 -0.1322
  119OSM    O1412488   4.922   5.819   5.918 -0.2515  0.0903 -0.0988
  119OSM    O1112489   4.786   5.888   6.115 -0.3442  0.7447 -0.3614
  119OSM    O1212490   4.845   6.055   5.948 -0.1182  0.3585  0.1495
  119OSM    C1S12491   4.696   5.971   6.190  1.1119 -0.1965  0.4505
  119OSM    H1S12492   4.592   5.942   6.164  1.4023  0.0095 -1.0382
  119OSM    H1T12493   4.716   6.079   6.177  4.5277 -0.6500  0.9497
  119OSM     NF12494   4.614   6.013   6.423  0.4902  0.0171  0.7405
  119OSM    HNF12495   4.634   6.097   6.472  0.1014  0.5959 -0.0685
  119OSM    C2S12496   4.713   5.947   6.342 -0.2302  0.6672  0.1069
  119OSM    H2S12497   4.702   5.838   6.362  0.1410  1.2495  4.4943
  119OSM    C3S12498   4.856   5.977   6.395  0.5895  0.0347 -0.1441
  119OSM    H3S12499   4.862   6.087   6.389  1.2807 -0.0354 -1.0148
  119OSM     O312500   4.964   5.947   6.304  0.0617  0.5032  0.1740
  119OSM    HO312501   4.920   5.926   6.221 -0.0035  3.1470 -0.5408
  119OSM    C4S12502   4.882   5.924   6.536  0.5268  0.1554  0.1952
  119OSM    H4S12503   4.896   6.010   6.604  1.0151  0.5967 -0.4452
  119OSM    C5S12504   4.940   5.806   6.561 -0.5690  0.4410 -0.3129
  119OSM    H5S12505   4.955   5.734   6.479 -1.0629 -1.8157  1.4882
  119OSM    C6S12506   4.985   5.761   6.698 -0.4566 -0.3827 -0.7277
  119OSM    H6S12507   5.064   5.685   6.681  1.5431  1.3579  0.3712
  119OSM    H6T12508   4.897   5.704   6.736 -1.8347  0.1981 -2.8450
  119OSM    C7S12509   5.035   5.861   6.805 -0.0311  0.6802 -0.3705
  119OSM    H7S12510   4.945   5.908   6.849  0.4795  1.3597 -0.0201
  119OSM    H7T12511   5.098   5.939   6.756  0.5138  0.0725 -0.6556
  119OSM    C8S12512   5.130   5.788   6.910  0.4756 -0.1138  0.2605
  119OSM    H8S12513   5.202   5.727   6.852 -0.8739 -0.5487 -1.0213
  119OSM    H8T12514   5.065   5.718   6.967  1.0778 -0.5478  0.4303
  119OSM    C9S12515   5.209   5.872   7.010  0.0738 -0.3149  0.3100
  119OSM    H9S12516   5.274   5.942   6.953 -2.2153  1.0973 -0.7135
  119OSM    H9T12517   5.275   5.812   7.075  1.1809  0.3705 -0.1466
  119OSM   C10S12518   5.108   5.947   7.104 -0.0743 -0.4857 -0.6034
  119OSM   H10S12519   5.019   5.882   7.119 -0.2775 -0.5409 -1.9550
  119OSM   H10T12520   5.078   6.044   7.058  0.6642  1.2125  2.2464
  119OSM   C11S12521   5.177   5.972   7.238 -0.1136  0.5735  0.6841
  119OSM   H11S12522   5.257   6.046   7.216  2.2622 -1.3943  2.2468
  119OSM   H11T12523   5.233   5.880   7.263  1.2497  0.3043 -2.8099
  119OSM   C12S12524   5.076   6.028   7.342 -0.3848 -0.1273  0.4520
  119OSM   H12S12525   4.984   5.966   7.352 -0.3691 -0.7680 -2.4080
  119OSM   H12T12526   5.046   6.131   7.316  1.5280  0.9463  2.1784
  119OSM   C13S12527   5.144   6.023   7.486  0.2134  0.2470 -1.3407
  119OSM   H13S12528   5.252   6.044   7.477  0.1532  0.1383 -2.4793
  119OSM   H13T12529   5.139   5.920   7.527 -0.9540  1.0334  0.6643
  119OSM   C14S12530   5.071   6.110   7.586  0.5507 -0.0079  0.9526
  119OSM   H14S12531   4.975   6.055   7.596 -0.8117  1.9200 -0.6557
  119OSM   H14T12532   5.051   6.210   7.541  0.4740  0.4083  1.8849
  119OSM   C15S12533   5.127   6.106   7.733  0.0069  0.4283 -0.3262
  119OSM   H15S12534   5.238   6.106   7.741 -0.1107  1.1939  2.2507
  119OSM   H15T12535   5.097   6.006   7.770  0.2488  0.6377  0.4490
  119OSM   C16S12536   5.084   6.213   7.828 -0.2666 -0.5093 -0.0291
  119OSM   H16S12537   4.976   6.235   7.838  0.0286  1.1144 -0.2055
  119OSM   H16T12538   5.134   6.298   7.776  2.0265 -2.1171 -0.6308
  119OSM   C17S12539   5.150   6.192   7.965 -0.2227  0.6936  0.2822
  119OSM   H17S12540   5.259   6.173   7.951 -0.0853  1.8131 -0.3568
  119OSM   H17T12541   5.097   6.106   8.011  0.4308  0.8463  1.3382
  119OSM   C18S12542   5.147   6.304   8.070  0.6944 -0.3957 -0.0707
  119OSM   H18S12543   5.215   6.287   8.155  0.7965 -0.8505 -0.2417
  119OSM   H18T12544   5.044   6.309   8.111  0.8208  1.0588  0.1294
  119OSM   H18U12545   5.172   6.401   8.022  0.0442 -0.3301 -0.2962
  119OSM    C1F12546   4.489   5.971   6.429  0.2661 -0.4684 -0.7138
  119OSM     OF12547   4.447   5.875   6.363 -0.3255  0.7404 -0.5218
  119OSM    C2F12548   4.397   6.052   6.514  0.1531  0.0929  0.2325
  119OSM    H2F12549   4.352   6.137   6.458  0.8652  0.9572  0.9431
  119OSM    H2G12550   4.461   6.101   6.591  0.7452  1.0579 -0.8447
  119OSM    C3F12551   4.283   5.959   6.581  0.4585  0.4704 -0.1549
  119OSM    H3F12552   4.338   5.885   6.642  0.1870  0.6383  0.3057
  119OSM    H3G12553   4.240   5.902   6.496 -1.3996  1.2447  0.2091
  119OSM    C4F12554   4.170   6.036   6.654 -0.0331  0.1775 -0.0322
  119OSM    H4F12555   4.106   5.966   6.711  0.2919 -1.6927 -1.8374
  119OSM    H4G12556   4.100   6.089   6.585 -1.5182  0.4249  1.5816
  119OSM    C5F12557   4.227   6.141   6.746  0.4877 -0.1861 -0.3430
  119OSM    H5F12558   4.138   6.192   6.789 -0.0048  1.0817 -2.6823
  119OSM    H5G12559   4.277   6.221   6.687 -1.7454  0.9969 -0.7703
  119OSM    C6F12560   4.314   6.097   6.862 -0.1484  0.3564  0.1147
  119OSM    H6F12561   4.342   6.192   6.912 -1.8671  0.8938  0.1226
  119OSM    H6G12562   4.406   6.052   6.819  1.2695  2.7152  0.4970
  119OSM    C7F12563   4.249   6.001   6.963 -0.4110  0.5164  0.3975
  119OSM    H7F12564   4.253   5.900   6.917 -2.0407  1.2683 -1.5703
  119OSM    H7G12565   4.141   6.028   6.966 -0.2282  2.0896 -2.6190
  119OSM    C8F12566   4.309   6.000   7.105 -0.1234 -0.0888  0.0850
  119OSM    H8F12567   4.418   5.985   7.093 -0.1046  0.8312 -1.0359
  119OSM    H8G12568   4.275   5.906   7.154 -0.7140  0.5812  1.0043
  119OSM    C9F12569   4.268   6.131   7.170 -0.3570 -0.0084 -0.2763
  119OSM    H9F12570   4.280   6.220   7.107 -2.4636  1.5391  1.3465
  119OSM   C10F12571   4.212   6.149   7.293  0.6806  0.3791 -0.0672
  119OSM   H10F12572   4.184   6.251   7.323  1.0024  0.3843  0.2239
  119OSM   C11F12573   4.171   6.049   7.404  0.0408 -0.1701  0.1743
  119OSM   H11F12574   4.210   5.950   7.370 -1.0716 -1.5922  2.7825
  119OSM   H11G12575   4.062   6.034   7.421  0.2307 -1.4362  0.4142
  119OSM   C12F12576   4.239   6.106   7.527  0.8811  0.2851  0.3086
  119OSM   H12F12577   4.201   6.209   7.547  2.2416  0.9269 -0.2625
  119OSM   H12G12578   4.350   6.106   7.515  0.7956 -1.1259 -0.6021
  119OSM   C13F12579   4.209   6.024   7.656  0.2575 -0.2943  0.6642
  119OSM   H13F12580   4.227   5.918   7.628 -0.3016 -0.2264  0.0277
  119OSM   H13G12581   4.102   6.043   7.680  0.5362  2.7118 -0.1132
  119OSM   C14F12582   4.288   6.064   7.788  0.2333  0.4518 -0.5363
  119OSM   H14F12583   4.254   6.163   7.823  0.6532  0.3563  0.1761
  119OSM   H14G12584   4.394   6.081   7.758  0.6644  0.7853  1.1042
  119OSM   C15F12585   4.272   5.961   7.898 -0.5065  0.0593 -0.0877
  119OSM   H15F12586   4.335   5.877   7.859  1.8280  2.2639 -1.3614
  119OSM   H15G12587   4.165   5.935   7.912 -0.4957 -0.0549 -0.2100
  119OSM   C16F12588   4.345   6.015   8.019 -1.3126  0.8536 -0.3093
  119OSM   H16F12589   4.449   6.041   7.987 -0.5744 -0.1533  1.1580
  119OSM   H16G12590   4.347   5.930   8.091 -1.5393  0.6760 -0.5108
  119OSM   C17F12591   4.277   6.141   8.079  0.0031  0.3085  0.6662
  119OSM   H17F12592   4.306   6.227   8.015  0.3629 -0.5503 -0.3610
  119OSM   H17G12593   4.330   6.152   8.176 -1.8047  1.6301  1.5539
  119OSM   C18F12594   4.124   6.145   8.102  0.2987  0.1876  0.0565
  119OSM   H18F12595   4.100   6.236   8.162  1.4548  0.0719  0.7282
  119OSM   H18G12596   4.093   6.063   8.170 -1.2305 -0.5672 -1.5019
  119OSM   H18H12597   4.064   6.137   8.009  0.7393  0.5555 -0.2663
  120OSM      N12598   0.906   4.093   6.258  0.0044  0.1877 -0.4561
  120OSM    C1512599   0.880   3.994   6.369 -0.8331 -0.6087  0.0286
  120OSM   H15A12600   0.817   4.039   6.445  0.3561  2.2626 -0.5485
  120OSM   H15B12601   0.975   3.973   6.416 -1.4541  0.1121  1.7053
  120OSM   H15C12602   0.823   3.906   6.345 -0.5783 -0.2445 -2.0916
  120OSM    C1412603   0.995   4.017   6.159  0.0106  0.4897  0.3609
  120OSM   H14A12604   1.033   4.081   6.081  4.3413 -1.1341  0.8767
  120OSM   H14B12605   0.943   3.929   6.121  0.6094 -0.4055  1.5487
  120OSM   H14C12606   1.082   3.974   6.206  1.6259  0.6520 -2.2850
  120OSM    C1312607   0.779   4.124   6.184  0.3959 -0.8358  0.4504
  120OSM   H13A12608   0.724   4.187   6.251 -0.3576 -0.4822 -0.4816
  120OSM   H13B12609   0.729   4.038   6.142  2.3046 -2.2047  0.8602
  120OSM   H13C12610   0.804   4.187   6.100 -0.3745 -0.1965  0.6924
  120OSM    C1212611   0.970   4.222   6.301  0.4546 -0.1960  0.0277
  120OSM   H12A12612   0.907   4.272   6.373  0.4278  1.2334 -0.9577
  120OSM   H12B12613   0.978   4.292   6.219  0.8741 -0.8117 -0.4677
  120OSM    C1112614   1.106   4.221   6.360 -0.6746  0.1950  0.6810
  120OSM   H11A12615   1.108   4.155   6.450  0.3296 -1.4807 -0.5179
  120OSM   H11B12616   1.123   4.326   6.391  1.8048  0.3780 -1.0641
  120OSM      P12617   1.310   4.075   6.293 -0.0087 -0.0502  0.1344
  120OSM    O1312618   1.259   3.939   6.252 -0.2812 -0.4559 -0.1703
  120OSM    O1412619   1.442   4.118   6.231  0.2571 -0.2970 -1.0580
  120OSM    O1112620   1.323   4.087   6.451 -0.0697 -0.1555 -0.1724
  120OSM    O1212621   1.204   4.184   6.260  0.9354  1.0872 -0.0246
  120OSM    C1S12622   1.444   4.140   6.511  0.3577 -0.0917 -0.1836
  120OSM    H1S12623   1.467   4.244   6.477  0.0335  0.7422  1.9486
  120OSM    H1T12624   1.536   4.080   6.493  0.6071  0.3919 -0.5479
  120OSM     NF12625   1.545   4.217   6.741  0.4677 -0.0050 -0.2218
  120OSM    HNF12626   1.606   4.162   6.798  1.3345  2.7139  1.7005
  120OSM    C2S12627   1.433   4.147   6.672 -0.3195 -0.0777  0.3950
  120OSM    H2S12628   1.340   4.204   6.695  0.1206  0.7244  0.1879
  120OSM    C3S12629   1.419   4.007   6.735  0.0498 -1.0674  0.4111
  120OSM    H3S12630   1.509   3.943   6.722  1.4483  0.6351  1.2660
  120OSM     O312631   1.315   3.927   6.672  0.6390  0.1812  0.0434
  120OSM    HO312632   1.293   3.975   6.592  1.5032 -0.9657 -0.9146
  120OSM    C4S12633   1.389   4.020   6.876 -0.1035 -0.2782 -0.5528
  120OSM    H4S12634   1.301   4.083   6.897 -0.1028 -0.6335  0.6330
  120OSM    C5S12635   1.448   3.951   6.980  0.4795  0.9947  0.3920
  120OSM    H5S12636   1.508   3.860   6.961 -1.2394 -0.0630 -0.1430
  120OSM    C6S12637   1.406   3.974   7.124 -0.2107 -0.3344  0.2081
  120OSM    H6S12638   1.347   3.883   7.151  0.0195 -0.3359  0.7109
  120OSM    H6T12639   1.348   4.068   7.131  1.4531  0.9346 -1.9568
  120OSM    C7S12640   1.528   3.989   7.222  0.2783  0.2873 -0.1820
  120OSM    H7S12641   1.569   4.092   7.228  2.2821 -0.3906 -1.2892
  120OSM    H7T12642   1.620   3.932   7.194  0.9485  1.6717 -0.9045
  120OSM    C8S12643   1.489   3.946   7.362  0.2723 -0.9585 -0.0140
  120OSM    H8S12644   1.441   3.846   7.369 -0.7223 -0.3611  2.4878
  120OSM    H8T12645   1.399   4.007   7.385  1.5014  0.3684  1.4935
  120OSM    C9S12646   1.594   3.970   7.464  0.1078 -0.8389 -0.1824
  120OSM    H9S12647   1.575   4.071   7.505  1.2084 -1.0193  0.8540
  120OSM    H9T12648   1.694   3.986   7.419 -0.6665  0.3296 -1.5469
  120OSM   C10S12649   1.586   3.873   7.586  0.0470 -0.8933  0.1611
  120OSM   H10S12650   1.685   3.823   7.578 -0.7061 -2.4541  0.1142
  120OSM   H10T12651   1.500   3.803   7.574 -0.2167 -0.2416 -2.4480
  120OSM   C11S12652   1.573   3.954   7.714  0.9315  0.3025 -0.3520
  120OSM   H11S12653   1.466   3.985   7.718  0.4983 -1.0814 -0.6536
  120OSM   H11T12654   1.635   4.045   7.726 -0.3516  1.0898  0.5545
  120OSM   C12S12655   1.593   3.869   7.844 -0.3392 -0.4558  1.3982
  120OSM   H12S12656   1.702   3.849   7.844 -0.6796 -2.6677 -0.0058
  120OSM   H12T12657   1.538   3.773   7.840 -0.4803 -0.3652  1.1269
  120OSM   C13S12658   1.558   3.939   7.966 -0.5212 -0.6769  0.1053
  120OSM   H13S12659   1.466   4.000   7.958  0.4018  0.7229 -0.1629
  120OSM   H13T12660   1.639   4.013   7.983 -1.9174  0.4475  2.3050
  120OSM   C14S12661   1.538   3.844   8.077  0.3353 -0.0840  0.1204
  120OSM   H14S12662   1.617   3.767   8.088  2.1196  1.7144  0.5178
  120OSM   H14T12663   1.445   3.790   8.050 -0.8914  3.1749 -2.8678
  120OSM   C15S12664   1.533   3.923   8.218 -0.5077 -0.0813  0.1535
  120OSM   H15S12665   1.455   4.001   8.210 -1.6764 -1.1733  0.7257
  120OSM   H15T12666   1.633   3.970   8.232 -1.3097  1.3080  1.4830
  120OSM   C16S12667   1.499   3.822   8.340 -0.4182  0.9026 -0.1549
  120OSM   H16S12668   1.392   3.794   8.328  0.7082 -3.9476 -0.9573
  120OSM   H16T12669   1.512   3.880   8.434  0.4466 -0.0319  0.3243
  120OSM   C17S12670   1.587   3.696   8.338  0.4049 -0.0470 -0.1749
  120OSM   H17S12671   1.693   3.730   8.333  0.9979 -1.4289  1.5686
  120OSM   H17T12672   1.561   3.632   8.251  1.2608 -1.8173  0.7912
  120OSM   C18S12673   1.565   3.632   8.474 -0.0273  0.8840 -0.3938
  120OSM   H18S12674   1.459   3.634   8.506  0.2931  0.0479  0.7934
  120OSM   H18T12675   1.619   3.693   8.550  2.6724 -0.4394 -1.1491
  120OSM   H18U12676   1.589   3.524   8.480  1.7297  1.3026  1.4527
  120OSM    C1F12677   1.572   4.348   6.723  0.1839 -0.2827  0.1465
  120OSM     OF12678   1.496   4.413   6.651 -0.2945  0.1553 -0.0389
  120OSM    C2F12679   1.698   4.406   6.773 -0.5881 -0.0800 -0.0059
  120OSM    H2F12680   1.703   4.514   6.745 -1.1529  0.0823  0.5047
  120OSM    H2G12681   1.777   4.360   6.710  0.0088  0.6975  0.1538
  120OSM    C3F12682   1.723   4.389   6.922  0.2716  0.4053 -0.3073
  120OSM    H3F12683   1.817   4.443   6.948  1.7616 -1.8787 -0.5990
  120OSM    H3G12684   1.737   4.279   6.937  1.5935  0.5186 -0.5495
  120OSM    C4F12685   1.614   4.436   7.025 -0.0183 -0.3897 -0.1946
  120OSM    H4F12686   1.517   4.383   7.009 -0.2877  0.2032 -0.5509
  120OSM    H4G12687   1.596   4.544   7.011  0.1815 -0.2812  0.3540
  120OSM    C5F12688   1.666   4.411   7.170 -0.3154 -0.2945  0.6186
  120OSM    H5F12689   1.760   4.471   7.180  0.8196 -1.1013 -3.2868
  120OSM    H5G12690   1.705   4.309   7.187  0.2093 -0.2513 -0.2733
  120OSM    C6F12691   1.570   4.451   7.287 -0.7270  0.0766  0.3889
  120OSM    H6F12692   1.527   4.547   7.254  1.9243  0.3340 -2.8911
  120OSM    H6G12693   1.641   4.466   7.371  1.5298 -1.1864 -1.1711
  120OSM    C7F12694   1.475   4.338   7.333  0.1451 -0.2741 -1.3290
  120OSM    H7F12695   1.533   4.247   7.359 -0.9574 -0.4676  0.6839
  120OSM    H7G12696   1.410   4.306   7.249 -1.9182  0.2732 -0.0017
  120OSM    C8F12697   1.398   4.394   7.451 -0.1581  0.4452 -0.7807
  120OSM    H8F12698   1.339   4.479   7.411  2.5520  2.2876 -1.1675
  120OSM    H8G12699   1.481   4.448   7.503  0.0140 -0.2495 -0.3191
  120OSM    C9F12700   1.337   4.279   7.522  0.4670  0.5828 -0.4697
  120OSM    H9F12701   1.253   4.225   7.475 -1.1707  0.5761  2.2240
  120OSM   C10F12702   1.367   4.237   7.644  0.0048  0.6269 -0.4072
  120OSM   H10F12703   1.305   4.158   7.687 -1.8282  3.4080  2.5226
  120OSM   C11F12704   1.469   4.292   7.736 -0.1237  0.6988 -0.2821
  120OSM   H11F12705   1.567   4.315   7.688  1.2870 -0.5644  1.8746
  120OSM   H11G12706   1.506   4.218   7.810 -0.1844  1.4156  0.4869
  120OSM   C12F12707   1.416   4.412   7.812 -0.2826 -0.1791  0.0916
  120OSM   H12F12708   1.317   4.387   7.856 -0.3594  1.1324  0.7175
  120OSM   H12G12709   1.399   4.507   7.755  1.8016  0.4854  0.4861
  120OSM   C13F12710   1.513   4.450   7.927 -0.1146 -0.8555  1.0130
  120OSM   H13F12711   1.474   4.546   7.966  0.5808  1.8572 -4.0571
  120OSM   H13G12712   1.619   4.457   7.893  0.1904 -3.9518  1.0906
  120OSM   C14F12713   1.506   4.340   8.041 -0.0331 -0.6962 -0.5140
  120OSM   H14F12714   1.550   4.246   7.999  0.9460 -0.8635  0.8131
  120OSM   H14G12715   1.398   4.319   8.058  0.0172 -0.3494  0.2741
  120OSM   C15F12716   1.566   4.388   8.175  0.4493 -0.0951  0.2567
  120OSM   H15F12717   1.502   4.467   8.220 -1.2894 -1.8583  1.0502
  120OSM   H15G12718   1.662   4.443   8.177 -0.6246  1.8673  0.5656
  120OSM   C16F12719   1.581   4.275   8.276  0.4648 -0.4279 -0.0154
  120OSM   H16F12720   1.663   4.213   8.235  1.4887  1.9317 -1.7676
  120OSM   H16G12721   1.489   4.213   8.287  1.8233 -2.6617 -0.6403
  120OSM   C17F12722   1.616   4.329   8.418  0.6266  0.4819  0.6641
  120OSM   H17F12723   1.682   4.419   8.422 -2.2251  2.7590  0.2032
  120OSM   H17G12724   1.672   4.244   8.461  1.0366 -0.7741 -2.1549
  120OSM   C18F12725   1.501   4.350   8.520 -0.3571 -0.5742  0.0301
  120OSM   H18F12726   1.483   4.460   8.523 -0.1725 -0.5341 -0.3022
  120OSM   H18G12727   1.531   4.320   8.622 -1.5175 -0.0250  0.5503
  120OSM   H18H12728   1.413   4.292   8.484 -0.0652 -1.7533  1.1575
  121OSM      N12729   3.423   4.532   6.154  0.6135 -0.4072  0.7993
  121OSM    C1512730   3.298   4.612   6.130 -0.9701 -0.3550 -0.2028
  121OSM   H15A12731   3.242   4.622   6.222  0.6155  2.9366  0.5468
  121OSM   H15B12732   3.240   4.569   6.050 -0.3624 -3.3648  0.8427
  121OSM   H15C12733   3.320   4.714   6.104 -0.7814  0.0843  1.5562
  121OSM    C1412734   3.390   4.410   6.240  0.3021 -0.0125 -0.1437
  121OSM   H14A12735   3.472   4.371   6.298 -1.1670 -0.2725  1.8742
  121OSM   H14B12736   3.341   4.331   6.185  0.1811 -0.3541  0.4470
  121OSM   H14C12737   3.322   4.441   6.319  1.1280  3.4648 -0.6381
  121OSM    C1312738   3.463   4.481   6.020 -0.3407 -0.0898 -0.0129
  121OSM   H13A12739   3.570   4.497   6.017 -0.2307 -0.3863  1.3880
  121OSM   H13B12740   3.425   4.534   5.934  1.3727  0.3790 -0.5256
  121OSM   H13C12741   3.456   4.374   6.009  1.7484 -0.2646 -0.1217
  121OSM    C1212742   3.530   4.614   6.222  0.0213 -0.8918  0.1684
  121OSM   H12A12743   3.606   4.549   6.264  1.1648  0.4792  0.2840
  121OSM   H12B12744   3.479   4.662   6.304 -0.5161 -0.6978 -0.2836
  121OSM    C1112745   3.605   4.716   6.139 -0.5351  0.1454  1.1392
  121OSM   H11A12746   3.658   4.657   6.062 -1.6947  0.6347 -0.0701
  121OSM   H11B12747   3.684   4.762   6.203 -0.5663  0.5666  0.8807
  121OSM      P12748   3.455   4.923   6.158 -0.1589 -0.0772  0.3896
  121OSM    O1312749   3.505   5.053   6.106 -0.0991  0.3522  0.2086
  121OSM    O1412750   3.311   4.897   6.163  0.1674  0.1929  0.1451
  121OSM    O1112751   3.512   4.912   6.308  0.0598 -0.2595 -0.4843
  121OSM    O1212752   3.523   4.815   6.073  0.4096 -0.1636 -0.6009
  121OSM    C1S12753   3.532   5.040   6.382  0.5676 -0.2687 -0.2510
  121OSM    H1S12754   3.438   5.099   6.392 -0.6405 -2.0504 -0.6366
  121OSM    H1T12755   3.602   5.106   6.327 -0.4205  0.8945 -0.1580
  121OSM     NF12756   3.590   5.155   6.599  0.2773 -0.1536 -0.3356
  121OSM    HNF12757   3.674   5.209   6.597  0.5784 -0.5964 -2.6868
  121OSM    C2S12758   3.594   5.029   6.524 -0.3439  0.1602 -0.3541
  121OSM    H2S12759   3.547   4.949   6.585 -1.9105 -0.4345 -2.2464
  121OSM    C3S12760   3.740   4.977   6.506  0.3151  0.3568 -0.0833
  121OSM    H3S12761   3.805   5.051   6.455  0.5839  2.2520  2.7859
  121OSM     O312762   3.745   4.855   6.427 -0.5026 -0.3929 -0.0183
  121OSM    HO312763   3.671   4.862   6.366  1.2840 -0.0201 -2.2892
  121OSM    C4S12764   3.800   4.955   6.642 -0.2641  0.1808  0.1517
  121OSM    H4S12765   3.825   5.056   6.678 -2.3922  1.2096 -1.0840
  121OSM    C5S12766   3.806   4.840   6.712 -0.2187  0.5550  0.4172
  121OSM    H5S12767   3.748   4.757   6.668  3.5529 -0.2152 -3.7875
  121OSM    C6S12768   3.856   4.814   6.850  0.6732 -0.7418 -0.3151
  121OSM    H6S12769   3.934   4.736   6.859  1.0334 -0.1596  2.3544
  121OSM    H6T12770   3.769   4.779   6.909 -0.8989  0.1977 -1.9535
  121OSM    C7S12771   3.912   4.948   6.919  0.6847  0.1326 -0.7977
  121OSM    H7S12772   3.830   5.020   6.900  1.2708  1.3726  1.1181
  121OSM    H7T12773   4.007   4.978   6.870 -0.1326  0.6479 -2.1353
  121OSM    C8S12774   3.928   4.937   7.072 -0.0512 -0.1058  0.1305
  121OSM    H8S12775   3.835   4.899   7.120 -0.3269 -1.5351 -1.4182
  121OSM    H8T12776   3.962   5.031   7.121 -0.3749  0.1860 -0.1961
  121OSM    C9S12777   4.034   4.836   7.113  0.6340 -0.7002  0.6976
  121OSM    H9S12778   4.130   4.878   7.078  0.4213 -0.5507  0.2962
  121OSM    H9T12779   4.017   4.736   7.067  1.8722 -2.7467  4.2221
  121OSM   C10S12780   4.053   4.813   7.269 -0.4901  0.2455 -0.2649
  121OSM   H10S12781   4.106   4.901   7.312  0.5093 -1.2358  1.7077
  121OSM   H10T12782   4.121   4.726   7.276  1.2794  1.5703 -0.3079
  121OSM   C11S12783   3.926   4.777   7.348  0.4431 -0.2339 -0.3970
  121OSM   H11S12784   3.880   4.687   7.301 -1.4706  1.1107 -1.2266
  121OSM   H11T12785   3.856   4.860   7.325  0.2450 -0.1813  0.3580
  121OSM   C12S12786   3.947   4.768   7.502  0.9552  0.7018  0.0466
  121OSM   H12S12787   3.854   4.731   7.549 -0.5208  2.0616 -1.6604
  121OSM   H12T12788   3.954   4.874   7.536  0.3312  0.7439  0.0620
  121OSM   C13S12789   4.067   4.693   7.555  0.9818  0.3801  0.5388
  121OSM   H13S12790   4.164   4.743   7.535  0.9811  1.9369  3.6780
  121OSM   H13T12791   4.062   4.593   7.507 -1.6648  0.1808  1.0487
  121OSM   C14S12792   4.060   4.686   7.711  0.0342  0.4365 -0.8593
  121OSM   H14S12793   3.962   4.650   7.750 -1.5334  2.2355 -2.9175
  121OSM   H14T12794   4.085   4.786   7.752  0.1027 -0.1195  0.5401
  121OSM   C15S12795   4.158   4.581   7.764  0.7169 -1.6705 -0.1332
  121OSM   H15S12796   4.264   4.611   7.753  0.4591 -0.9471 -0.7587
  121OSM   H15T12797   4.141   4.491   7.701 -0.0912  1.2124 -4.4976
  121OSM   C16S12798   4.127   4.552   7.916 -0.2389  0.4288  0.2422
  121OSM   H16S12799   4.161   4.449   7.939  3.3398  1.7692  1.8302
  121OSM   H16T12800   4.016   4.561   7.920 -0.1542  1.7284  0.2422
  121OSM   C17S12801   4.205   4.647   8.007  0.0347 -0.3070  0.5986
  121OSM   H17S12802   4.194   4.751   7.971 -0.8404 -0.3575  0.6913
  121OSM   H17T12803   4.310   4.611   8.005 -0.1136 -0.7604 -0.8717
  121OSM   C18S12804   4.164   4.630   8.157  0.3258  0.8808  0.4751
  121OSM   H18S12805   4.080   4.697   8.185  0.3385  1.6307 -1.1634
  121OSM   H18T12806   4.252   4.648   8.222  1.0567 -2.6782  0.6818
  121OSM   H18U12807   4.124   4.528   8.180 -0.9030  1.1253 -0.4487
  121OSM    C1F12808   3.478   5.215   6.649 -0.3310  0.0737  0.5297
  121OSM     OF12809   3.369   5.156   6.637  0.1715  0.0183  0.8863
  121OSM    C2F12810   3.486   5.360   6.690 -0.5788 -0.4117 -0.6735
  121OSM    H2F12811   3.399   5.401   6.634 -0.4365  0.7069 -0.1025
  121OSM    H2G12812   3.580   5.408   6.656  0.6245 -1.8299  0.5287
  121OSM    C3F12813   3.473   5.363   6.839  0.2004  0.4624 -0.5797
  121OSM    H3F12814   3.389   5.299   6.872 -0.9303  2.0265 -0.2982
  121OSM    H3G12815   3.439   5.465   6.868 -0.8966 -0.2055  0.5924
  121OSM    C4F12816   3.601   5.325   6.916  0.4021 -0.3192 -0.5807
  121OSM    H4F12817   3.691   5.388   6.898  1.4853 -1.4126  0.7150
  121OSM    H4G12818   3.623   5.217   6.902  1.3700 -0.3447  0.9090
  121OSM    C5F12819   3.581   5.331   7.070 -0.5619  0.5339 -0.3445
  121OSM    H5F12820   3.494   5.269   7.104 -0.2111 -0.5878 -1.4004
  121OSM    H5G12821   3.547   5.433   7.097 -0.6684  0.4194 -0.0366
  121OSM    C6F12822   3.705   5.289   7.145  0.4801  1.0610 -0.5851
  121OSM    H6F12823   3.795   5.340   7.105  0.2362  2.6066  0.7383
  121OSM    H6G12824   3.713   5.181   7.120  0.6047  1.4296 -2.1997
  121OSM    C7F12825   3.685   5.316   7.295  0.4133  1.2937  1.0936
  121OSM    H7F12826   3.576   5.326   7.314  0.8284  2.6335  3.0588
  121OSM    H7G12827   3.739   5.410   7.315  2.3999  0.5474 -0.4155
  121OSM    C8F12828   3.735   5.196   7.383 -0.1431 -0.8502 -0.0131
  121OSM    H8F12829   3.809   5.227   7.459  0.0855  0.0819 -0.5961
  121OSM    H8G12830   3.786   5.135   7.305  0.4335 -0.6027  0.1658
  121OSM    C9F12831   3.632   5.104   7.450 -0.8212  0.4267 -0.4809
  121OSM    H9F12832   3.557   5.055   7.386 -1.1733 -2.8796  2.1649
  121OSM   C10F12833   3.637   5.074   7.584  0.6682  0.8598 -0.4390
  121OSM   H10F12834   3.580   4.986   7.617  1.7863  0.7650  1.3794
  121OSM   C11F12835   3.724   5.144   7.683  1.0974 -0.3858  0.3903
  121OSM   H11F12836   3.681   5.242   7.711 -1.1403 -0.9414 -0.8674
  121OSM   H11G12837   3.830   5.149   7.648 -0.5647  1.2693 -5.5161
  121OSM   C12F12838   3.720   5.057   7.808  0.1852  0.7399 -0.7849
  121OSM   H12F12839   3.756   4.956   7.781 -1.3477 -0.2278  0.5865
  121OSM   H12G12840   3.617   5.055   7.850  0.1165  0.3482 -0.9680
  121OSM   C13F12841   3.824   5.124   7.905 -0.1849 -0.3455  0.6136
  121OSM   H13F12842   3.787   5.226   7.931  0.9269  0.6687 -1.5694
  121OSM   H13G12843   3.915   5.139   7.843 -2.0650  1.2043 -1.9877
  121OSM   C14F12844   3.861   5.038   8.034 -0.1427 -0.7590  0.1939
  121OSM   H14F12845   3.931   5.093   8.100 -0.1060  1.7233 -1.7651
  121OSM   H14G12846   3.920   4.953   7.992 -0.2471  0.4388 -2.6071
  121OSM   C15F12847   3.734   4.989   8.107 -0.6111 -1.3410 -0.2128
  121OSM   H15F12848   3.660   4.939   8.041 -1.7651  1.9582 -1.6185
  121OSM   H15G12849   3.684   5.083   8.138 -1.4798 -1.8567 -0.0160
  121OSM   C16F12850   3.766   4.912   8.237 -0.0387  0.9669  0.2515
  121OSM   H16F12851   3.798   4.808   8.213 -2.6422 -0.2825  1.7223
  121OSM   H16G12852   3.670   4.894   8.291 -0.6341 -3.1660 -1.7572
  121OSM   C17F12853   3.874   4.974   8.334  0.3208  0.2150  0.3743
  121OSM   H17F12854   3.849   5.082   8.343 -3.3218 -0.3150 -1.2011
  121OSM   H17G12855   3.968   4.963   8.277  0.1815 -1.2858  0.4099
  121OSM   C18F12856   3.883   4.896   8.474 -0.4031  0.3248  0.4233
  121OSM   H18F12857   3.960   4.951   8.533  0.3813  0.4355 -0.6611
  121OSM   H18G12858   3.910   4.790   8.459  1.3759  0.7349  0.5078
  121OSM   H18H12859   3.783   4.901   8.521 -1.0791  2.5776 -1.0715
  122OSM      N12860   2.204   1.033   5.799  0.5665  0.0889  0.0804
  122OSM    C1512861   2.329   0.977   5.727 -0.0971 -0.7715  0.0797
  122OSM   H15A12862   2.410   0.939   5.787  0.6372 -1.7916 -1.4970
  122OSM   H15B12863   2.365   1.058   5.665 -1.1042 -1.1352 -1.0014
  122OSM   H15C12864   2.298   0.894   5.666 -1.6867  1.5299 -2.4420
  122OSM    C1412865   2.237   1.144   5.893 -0.2881 -0.1866  0.7381
  122OSM   H14A12866   2.156   1.211   5.917  1.5644  2.0752  1.0642
  122OSM   H14B12867   2.320   1.200   5.852  1.1729 -4.6875 -3.2927
  122OSM   H14C12868   2.273   1.101   5.985  0.1466  0.1714  0.7400
  122OSM    C1312869   2.107   1.071   5.689  0.9350 -0.3837 -0.5224
  122OSM   H13A12870   2.077   0.992   5.622  3.2518 -1.2478 -0.6476
  122OSM   H13B12871   2.151   1.150   5.629  0.3152  1.5562  1.4482
  122OSM   H13C12872   2.022   1.121   5.732  1.1814  1.0522 -1.6052
  122OSM    C1212873   2.134   0.914   5.868  0.1923 -0.1830 -0.6929
  122OSM   H12A12874   2.115   0.836   5.796  0.1346  1.0781 -2.0835
  122OSM   H12B12875   2.036   0.948   5.896  0.1832 -0.1921 -0.7135
  122OSM    C1112876   2.191   0.849   5.996 -0.3383  0.0993  0.0719
  122OSM   H11A12877   2.107   0.780   6.022 -0.3309 -0.2325 -0.7466
  122OSM   H11B12878   2.192   0.929   6.074 -1.2802  0.9831 -0.7956
  122OSM      P12879   2.435   0.820   6.057 -0.2336  0.0858 -0.4570
  122OSM    O1312880   2.530   0.708   6.050  0.9166 -0.1771 -0.4439
  122OSM    O1412881   2.490   0.959   6.026  0.1337 -0.1603  0.2834
  122OSM    O1112882   2.373   0.826   6.206 -0.5151 -0.2437 -0.1771
  122OSM    O1212883   2.311   0.787   5.962  0.1050  0.4422  0.0233
  122OSM    C1S12884   2.401   0.713   6.287 -0.0261  0.2882  0.5293
  122OSM    H1S12885   2.511   0.706   6.300 -0.0304 -0.8904  0.0375
  122OSM    H1T12886   2.357   0.618   6.249  0.1066  0.3188  0.2921
  122OSM     NF12887   2.384   0.606   6.505  0.6075  0.5476  0.3537
  122OSM    HNF12888   2.320   0.536   6.535  0.4642  0.1508 -0.8193
  122OSM    C2S12889   2.331   0.716   6.431  0.4256  0.1901  0.1140
  122OSM    H2S12890   2.352   0.812   6.481 -0.9250  1.3656 -1.4821
  122OSM    C3S12891   2.176   0.713   6.411  0.1075 -0.5904  0.0258
  122OSM    H3S12892   2.157   0.625   6.347 -1.1234 -0.5063  0.2506
  122OSM     O312893   2.125   0.812   6.320 -0.7661 -0.9122 -0.7976
  122OSM    HO312894   2.206   0.847   6.281  0.5275 -1.6321  1.0905
  122OSM    C4S12895   2.106   0.706   6.543 -0.3066  0.6304  0.2690
  122OSM    H4S12896   2.142   0.789   6.606  3.4984 -0.3663 -0.3385
  122OSM    C5S12897   2.012   0.619   6.585 -0.0231  0.3008  0.2978
  122OSM    H5S12898   1.976   0.538   6.519  0.8070 -0.0459  0.2679
  122OSM    C6S12899   1.959   0.616   6.724  0.2364  0.6589  0.5284
  122OSM    H6S12900   1.848   0.621   6.720  0.0806 -1.5552  1.0940
  122OSM    H6T12901   1.996   0.700   6.788  1.7432  1.0511 -0.8035
  122OSM    C7S12902   2.008   0.496   6.801 -1.1426  0.3538 -0.3300
  122OSM    H7S12903   2.023   0.402   6.743  3.0878  1.0284 -0.6222
  122OSM    H7T12904   1.949   0.479   6.893  1.2043 -0.8521  1.0446
  122OSM    C8S12905   2.164   0.502   6.839  0.2830 -0.1348 -0.1578
  122OSM    H8S12906   2.190   0.587   6.906  0.2467  1.2835 -1.8501
  122OSM    H8T12907   2.229   0.509   6.749 -1.4764  0.7272 -1.4120
  122OSM    C9S12908   2.198   0.387   6.937 -1.1536 -0.4508  0.8172
  122OSM    H9S12909   2.169   0.306   6.866 -2.2743  1.9663 -1.6636
  122OSM    H9T12910   2.142   0.396   7.032 -1.5098 -0.1085  0.5761
  122OSM   C10S12911   2.347   0.376   6.953 -0.4972  0.4142  0.2114
  122OSM   H10S12912   2.393   0.450   7.021  1.6702 -0.6042 -0.0404
  122OSM   H10T12913   2.398   0.387   6.855 -1.7453  1.5302 -0.3362
  122OSM   C11S12914   2.390   0.230   6.996 -0.1136  0.3968 -0.1780
  122OSM   H11S12915   2.501   0.227   7.002 -0.1014  2.1474  1.9514
  122OSM   H11T12916   2.341   0.160   6.925 -0.4348 -0.0230  0.4512
  122OSM   C12S12917   2.337   0.194   7.137 -0.1103  0.4856  0.2750
  122OSM   H12S12918   2.364   0.088   7.157  1.6419  1.1810  1.9418
  122OSM   H12T12919   2.228   0.212   7.137 -0.2279 -0.0350 -1.5572
  122OSM   C13S12920   2.401   0.271   7.250  0.5678  0.0639  0.3801
  122OSM   H13S12921   2.353   0.371   7.255 -2.4947 -1.3325  2.2441
  122OSM   H13T12922   2.508   0.275   7.222  0.2179  0.0987 -1.0624
  122OSM   C14S12923   2.388   0.196   7.382  0.4041 -0.4544 -0.4907
  122OSM   H14S12924   2.455   0.108   7.380 -0.1120 -0.9747  2.0096
  122OSM   H14T12925   2.282   0.161   7.386 -0.0621  0.8544 -0.6605
  122OSM   C15S12926   2.412   0.277   7.509  0.5954  0.2010  0.2683
  122OSM   H15S12927   2.325   0.334   7.548  1.2831  0.7484  1.0481
  122OSM   H15T12928   2.488   0.356   7.492  1.0024 -0.5064 -1.4075
  122OSM   C16S12929   2.474   0.181   7.617 -0.0390  0.2225 -0.2193
  122OSM   H16S12930   2.418   0.085   7.620  3.9550 -2.3354 -0.7866
  122OSM   H16T12931   2.447   0.221   7.718 -3.0820 -0.7357 -0.5398
  122OSM   C17S12932   2.626   0.153   7.621  0.2078 -0.3481  0.2583
  122OSM   H17S12933   2.647   0.101   7.525  0.7926 -2.2487  1.3752
  122OSM   H17T12934   2.646   0.085   7.706 -0.4848 -0.4643  0.3394
  122OSM   C18S12935   2.709   0.277   7.673  0.5034  0.3111  0.2866
  122OSM   H18S12936   2.816   0.246   7.676  0.0238 -1.3888  0.9102
  122OSM   H18T12937   2.673   0.293   7.776 -0.2385  1.0098 -0.0719
  122OSM   H18U12938   2.692   0.375   7.622  0.2673 -0.1067 -0.4583
  122OSM    C1F12939   2.511   0.590   6.534  0.2135  0.1204  0.3258
  122OSM     OF12940   2.575   0.690   6.546  0.1888 -0.0922 -0.2280
  122OSM    C2F12941   2.553   0.455   6.577 -0.3581  0.0627 -0.1061
  122OSM    H2F12942   2.504   0.376   6.515 -0.9431  1.0936 -0.9987
  122OSM    H2G12943   2.511   0.439   6.678 -2.7192  0.3974 -0.9711
  122OSM    C3F12944   2.704   0.436   6.567 -0.6198  0.7289 -0.1805
  122OSM    H3F12945   2.747   0.523   6.620  0.6676  0.6598 -1.0524
  122OSM    H3G12946   2.738   0.438   6.461 -1.8642 -0.0979 -0.6247
  122OSM    C4F12947   2.748   0.306   6.637  0.0380  0.0251  0.7392
  122OSM    H4F12948   2.856   0.283   6.623  0.2580  0.5292  1.5453
  122OSM    H4G12949   2.695   0.214   6.605  0.8741  0.3226 -1.7396
  122OSM    C5F12950   2.727   0.299   6.792  0.0407 -0.1077  0.3241
  122OSM    H5F12951   2.775   0.204   6.825 -0.2309 -0.3913 -0.0801
  122OSM    H5G12952   2.616   0.303   6.797 -0.0341 -1.4628  0.1034
  122OSM    C6F12953   2.787   0.423   6.868  0.5557  0.2062 -0.1680
  122OSM    H6F12954   2.726   0.510   6.835 -0.2726 -0.4455 -0.4041
  122OSM    H6G12955   2.893   0.434   6.835  0.0654 -1.4856 -2.6088
  122OSM    C7F12956   2.787   0.402   7.023 -0.0414 -0.4269 -0.0786
  122OSM    H7F12957   2.826   0.298   7.031  0.1168 -0.5352 -1.8136
  122OSM    H7G12958   2.687   0.382   7.066 -0.3267  1.9151  0.4854
  122OSM    C8F12959   2.854   0.522   7.094  0.1127  0.2286 -0.1419
  122OSM    H8F12960   2.797   0.616   7.082 -1.5545 -0.8550 -1.1095
  122OSM    H8G12961   2.947   0.547   7.038  1.5196 -3.7591  0.1245
  122OSM    C9F12962   2.894   0.479   7.236  0.3447 -0.3415  1.0031
  122OSM    H9F12963   2.810   0.485   7.308 -0.7532 -0.8922 -0.1949
  122OSM   C10F12964   3.014   0.441   7.280 -0.4899 -0.7124  0.1121
  122OSM   H10F12965   3.032   0.431   7.388 -0.3423 -0.6026  0.0985
  122OSM   C11F12966   3.140   0.433   7.195 -0.3549  0.3033 -0.1105
  122OSM   H11F12967   3.218   0.493   7.245 -0.5725  2.7157 -2.4249
  122OSM   H11G12968   3.128   0.475   7.093  1.7340 -0.9738 -0.9419
  122OSM   C12F12969   3.193   0.291   7.184 -0.1981  0.3416  0.1567
  122OSM   H12F12970   3.107   0.236   7.139 -1.6313  1.0207  1.9593
  122OSM   H12G12971   3.201   0.250   7.287  2.0292 -1.0345 -0.4952
  122OSM   C13F12972   3.321   0.269   7.098 -0.0305  0.2401 -0.4159
  122OSM   H13F12973   3.322   0.333   7.008  2.0573  0.2780 -0.4155
  122OSM   H13G12974   3.341   0.163   7.072  0.2023  0.1099  0.2582
  122OSM   C14F12975   3.445   0.297   7.185 -0.1153  0.9662 -0.1668
  122OSM   H14F12976   3.442   0.260   7.290  1.2401  0.1235 -0.3998
  122OSM   H14G12977   3.448   0.408   7.181 -2.1402  1.0561 -0.3888
  122OSM   C15F12978   3.567   0.253   7.093  1.1757  0.6015  0.0457
  122OSM   H15F12979   3.657   0.315   7.112  1.3810  1.4252 -3.0108
  122OSM   H15G12980   3.550   0.294   6.991  5.0846  2.1119 -0.1919
  122OSM   C16F12981   3.598   0.100   7.092  0.7840  0.0094  0.0057
  122OSM   H16F12982   3.662   0.082   7.003  1.6344 -1.7502  0.9172
  122OSM   H16G12983   3.509   0.043   7.059  0.8569  0.9594 -1.9926
  122OSM   C17F12984   3.647   0.046   7.230  0.2188  1.1920  0.2837
  122OSM   H17F12985   3.566   0.058   7.305 -0.1888 -1.5363  0.3887
  122OSM   H17G12986   3.742   0.096   7.258  0.6683 -0.1895  1.3186
  122OSM   C18F12987   3.672  -0.105   7.199  0.2538 -0.0098 -0.0951
  122OSM   H18F12988   3.736  -0.126   7.110  1.1010 -1.8790  0.9010
  122OSM   H18G12989   3.571  -0.150   7.191  0.0193  0.4444  0.3124
  122OSM   H18H12990   3.721  -0.154   7.285 -0.2608 -0.1291  0.1336
  123OSM      N12991   0.229   3.308   6.410  0.5763 -0.1846 -0.0880
  123OSM    C1512992   0.325   3.419   6.381  0.5273 -0.1107  0.6936
  123OSM   H15A12993   0.308   3.502   6.448  0.8402  1.5932 -1.2463
  123OSM   H15B12994   0.320   3.453   6.279  0.6986  2.5366  1.5010
  123OSM   H15C12995   0.424   3.379   6.398  2.0501  2.6980 -0.8142
  123OSM    C1412996   0.210   3.294   6.552 -0.8644 -0.2063  0.3021
  123OSM   H14A12997   0.134   3.219   6.569 -2.1720  1.2450  1.0862
  123OSM   H14B12998   0.173   3.384   6.598 -0.2825  0.5141 -0.6042
  123OSM   H14C12999   0.308   3.278   6.596 -0.7977  1.0947  0.6649
  123OSM    C1313000   0.091   3.348   6.352  0.0105 -0.0775 -0.2370
  123OSM   H13A13001   0.065   3.443   6.396 -0.0623 -0.7405  1.1849
  123OSM   H13B13002   0.007   3.285   6.377  0.0287 -0.6073 -1.4222
  123OSM   H13C13003   0.089   3.359   6.244  1.7205 -1.2892 -0.4367
  123OSM    C1213004   0.269   3.169   6.349 -0.3697  0.0112 -0.4405
  123OSM   H12A13005   0.289   3.184   6.244  1.3620 -0.5023 -0.2273
  123OSM   H12B13006   0.189   3.098   6.366  1.8666 -2.2473  1.4825
  123OSM    C1113007   0.383   3.090   6.414 -0.6533  0.4434 -0.9794
  123OSM   H11A13008   0.387   2.991   6.364  1.0737 -0.3972  0.7177
  123OSM   H11B13009   0.353   3.060   6.516 -1.9973 -1.4569 -1.8799
  123OSM      P13010   0.585   3.218   6.542 -0.1609  0.2649  0.3810
  123OSM    O1313011   0.701   3.128   6.569  0.7822  0.1173 -0.0080
  123OSM    O1413012   0.606   3.358   6.517 -0.0623  0.3858 -0.1162
  123OSM    O1113013   0.475   3.199   6.661  0.5600 -0.3203  0.9303
  123OSM    O1213014   0.516   3.165   6.411  0.2679 -0.0984  0.2081
  123OSM    C1S13015   0.510   3.105   6.761  0.7007 -0.1252 -0.6531
  123OSM    H1S13016   0.566   3.019   6.719  1.4221 -2.1333  3.8193
  123OSM    H1T13017   0.412   3.064   6.796  0.2517 -1.2630 -3.0612
  123OSM     NF13018   0.606   3.075   6.982  0.5159  0.3451  0.2126
  123OSM    HNF13019   0.538   3.070   7.056  0.9633  0.4426  0.6337
  123OSM    C2S13020   0.577   3.168   6.881  0.7873 -0.0709  0.7129
  123OSM    H2S13021   0.672   3.217   6.849 -0.9445  1.4694 -2.4833
  123OSM    C3S13022   0.490   3.289   6.941 -0.1016 -0.1406 -0.0550
  123OSM    H3S13023   0.401   3.248   6.994  0.2396  0.4136  0.9865
  123OSM     O313024   0.435   3.380   6.847  0.2140 -0.6326  0.3631
  123OSM    HO313025   0.452   3.332   6.766  1.7778  0.9382 -0.3128
  123OSM    C4S13026   0.571   3.366   7.034  0.3127  0.4767 -0.6205
  123OSM    H4S13027   0.638   3.436   6.982 -1.2994  0.2302 -3.1544
  123OSM    C5S13028   0.556   3.365   7.173 -0.1526 -0.3322  0.1792
  123OSM    H5S13029   0.481   3.291   7.205 -0.0593 -1.3745 -1.8109
  123OSM    C6S13030   0.634   3.440   7.273  0.0860  0.8505 -0.4699
  123OSM    H6S13031   0.604   3.547   7.267 -0.2449  0.7979  0.2077
  123OSM    H6T13032   0.738   3.437   7.232  0.4013  1.7843  0.2294
  123OSM    C7S13033   0.642   3.376   7.411 -0.3384 -0.4747 -0.3344
  123OSM    H7S13034   0.681   3.277   7.378  1.0481  0.4511 -1.6517
  123OSM    H7T13035   0.551   3.357   7.471  1.0765  0.8414  2.4341
  123OSM    C8S13036   0.734   3.468   7.499  0.0742 -0.8569 -0.0279
  123OSM    H8S13037   0.674   3.561   7.497  0.6071 -0.4583  1.3797
  123OSM    H8T13038   0.834   3.497   7.459 -1.7584  3.1018 -2.3409
  123OSM    C9S13039   0.754   3.418   7.641  0.7368 -0.1477  0.0633
  123OSM    H9S13040   0.661   3.382   7.689  0.8640 -0.2845  0.2102
  123OSM    H9T13041   0.794   3.500   7.704 -0.7401 -0.6140  1.6689
  123OSM   C10S13042   0.855   3.301   7.651 -0.0212 -0.6648 -0.4636
  123OSM   H10S13043   0.947   3.307   7.589 -0.5244 -1.2232 -1.2823
  123OSM   H10T13044   0.802   3.213   7.609  0.5145 -1.7659  1.0965
  123OSM   C11S13045   0.886   3.263   7.796  0.0331 -0.3367 -0.0289
  123OSM   H11S13046   0.941   3.347   7.842 -0.9200  0.9096 -1.0631
  123OSM   H11T13047   0.945   3.169   7.793  0.4300 -0.2117  2.1225
  123OSM   C12S13048   0.767   3.244   7.887 -0.6016  0.2105 -0.4294
  123OSM   H12S13049   0.682   3.189   7.843 -0.3838 -1.0335  0.6519
  123OSM   H12T13050   0.730   3.349   7.893 -0.9239  0.0156  1.7705
  123OSM   C13S13051   0.805   3.204   8.036  0.3315 -0.6028  1.3272
  123OSM   H13S13052   0.713   3.208   8.097 -0.8149  1.5249 -0.4101
  123OSM   H13T13053   0.884   3.274   8.072  0.3682  0.0236  0.0826
  123OSM   C14S13054   0.861   3.064   8.042  0.6635 -0.2634 -0.6464
  123OSM   H14S13055   0.961   3.070   7.994  1.3777  0.8604  0.9129
  123OSM   H14T13056   0.813   2.989   7.976 -3.9765  0.3318  1.6734
  123OSM   C15S13057   0.866   3.017   8.186  0.5414 -0.4681 -0.1264
  123OSM   H15S13058   0.763   2.997   8.221  0.7365  1.1987  1.5304
  123OSM   H15T13059   0.906   3.089   8.260 -0.9559 -0.3080  0.5724
  123OSM   C16S13060   0.940   2.882   8.198  0.5621  0.1420 -0.6524
  123OSM   H16S13061   1.032   2.876   8.137 -0.7219  0.3993 -2.7224
  123OSM   H16T13062   0.874   2.805   8.153 -0.4487  0.7442 -0.2401
  123OSM   C17S13063   0.961   2.843   8.350 -0.1416 -0.0736  0.3270
  123OSM   H17S13064   0.864   2.845   8.405  1.4612  1.6334  3.3323
  123OSM   H17T13065   1.025   2.924   8.390 -0.6481  2.0024 -2.7301
  123OSM   C18S13066   1.031   2.711   8.364  0.3326  0.3817  0.3032
  123OSM   H18S13067   1.132   2.712   8.317  0.0490  0.5521 -0.3132
  123OSM   H18T13068   0.963   2.628   8.333 -1.1574  0.0524  3.9619
  123OSM   H18U13069   1.032   2.685   8.472  0.4674  0.2204  0.2641
  123OSM    C1F13070   0.695   2.978   6.974 -0.4554  0.1131  0.5359
  123OSM     OF13071   0.749   2.953   6.870 -0.1357 -0.5897  0.2402
  123OSM    C2F13072   0.730   2.907   7.100 -0.0613  0.3823 -0.1164
  123OSM    H2F13073   0.839   2.883   7.094  0.0251  0.7448 -0.0114
  123OSM    H2G13074   0.677   2.810   7.104  0.2951  0.1415 -0.9866
  123OSM    C3F13075   0.701   2.976   7.238  0.2007 -0.3013 -0.3415
  123OSM    H3F13076   0.590   2.986   7.236  0.3864  2.2105 -2.0515
  123OSM    H3G13077   0.748   3.077   7.247  0.2282 -0.2927 -0.5952
  123OSM    C4F13078   0.743   2.876   7.347  0.5330 -0.1284  0.2766
  123OSM    H4F13079   0.854   2.873   7.349  0.5531  0.5676  1.2055
  123OSM    H4G13080   0.695   2.776   7.343  0.8836 -0.3281  0.8876
  123OSM    C5F13081   0.711   2.929   7.492 -0.1533  0.1443  0.4030
  123OSM    H5F13082   0.690   3.038   7.488 -3.7312 -0.4399 -0.1920
  123OSM    H5G13083   0.788   2.914   7.570 -0.1272  0.2319  0.3936
  123OSM    C6F13084   0.599   2.850   7.560 -0.7445  0.0748 -0.1108
  123OSM    H6F13085   0.622   2.742   7.547 -0.3138  0.3103 -1.4919
  123OSM    H6G13086   0.510   2.861   7.495 -0.2111 -0.2824 -0.9086
  123OSM    C7F13087   0.562   2.897   7.703 -0.1650  0.9202  0.3042
  123OSM    H7F13088   0.458   2.860   7.710 -0.5392  2.0555  0.8201
  123OSM    H7G13089   0.571   3.007   7.695 -2.1315  1.0659 -0.5415
  123OSM    C8F13090   0.643   2.840   7.822 -0.2071  0.3319  0.0253
  123OSM    H8F13091   0.619   2.894   7.916 -2.7718  1.6608 -1.2814
  123OSM    H8G13092   0.751   2.846   7.798 -0.6548 -2.3758 -3.5097
  123OSM    C9F13093   0.608   2.695   7.830 -0.5799 -0.0070  0.4249
  123OSM    H9F13094   0.615   2.638   7.736 -0.4256 -0.1640  0.5319
  123OSM   C10F13095   0.560   2.631   7.933  0.0944  0.0351  0.7539
  123OSM   H10F13096   0.532   2.526   7.918  1.0222 -0.2417  0.9117
  123OSM   C11F13097   0.541   2.680   8.075 -0.2401  0.1640 -0.4668
  123OSM   H11F13098   0.437   2.692   8.112 -0.9056 -0.5209 -2.0163
  123OSM   H11G13099   0.600   2.773   8.092  0.3706  0.4165 -3.3555
  123OSM   C12F13100   0.599   2.568   8.170 -0.0969 -0.1778 -0.2452
  123OSM   H12F13101   0.686   2.515   8.125  2.3146  2.1850  1.3093
  123OSM   H12G13102   0.510   2.511   8.202  1.4298 -1.3580  2.2615
  123OSM   C13F13103   0.651   2.628   8.298 -0.5370  0.1612 -0.1774
  123OSM   H13F13104   0.588   2.719   8.312 -0.2152  0.1340  1.6644
  123OSM   H13G13105   0.757   2.658   8.289 -0.5984  1.2151  1.9522
  123OSM   C14F13106   0.640   2.545   8.431  0.0926 -0.4708  0.6982
  123OSM   H14F13107   0.530   2.532   8.442 -0.0792  2.2033  3.4842
  123OSM   H14G13108   0.672   2.615   8.511 -0.4237  0.8797 -0.2432
  123OSM   C15F13109   0.721   2.420   8.432  0.6949 -0.2713 -0.6582
  123OSM   H15F13110   0.817   2.441   8.380  0.5503  0.9754 -0.4577
  123OSM   H15G13111   0.658   2.353   8.370  0.4044 -0.3725 -0.2627
  123OSM   C16F13112   0.740   2.361   8.573  0.2265  0.0118  0.2945
  123OSM   H16F13113   0.637   2.349   8.613  0.0023  1.1852  0.1103
  123OSM   H16G13114   0.786   2.420   8.655 -1.4563  2.2270 -0.2795
  123OSM   C17F13115   0.791   2.217   8.580  0.2098 -0.7376 -0.1796
  123OSM   H17F13116   0.901   2.209   8.568  0.2870 -3.1889  1.4472
  123OSM   H17G13117   0.745   2.146   8.507  0.1304  0.7188 -1.5841
  123OSM   C18F13118   0.758   2.161   8.716 -0.3322  0.1192 -0.0884
  123OSM   H18F13119   0.798   2.058   8.725 -0.7613 -0.0266  0.1759
  123OSM   H18G13120   0.648   2.156   8.730 -0.1588 -0.4414  1.1287
  123OSM   H18H13121   0.809   2.221   8.794 -0.5152 -1.0370  0.9385
  124OSM      N13122   1.027   6.720   6.373 -0.0488 -0.3381 -0.4327
  124OSM    C1513123   0.900   6.795   6.356 -0.2046 -0.1098 -0.0701
  124OSM   H15A13124   0.877   6.865   6.435 -2.5640  1.8042 -2.2396
  124OSM   H15B13125   0.813   6.732   6.360 -0.1203 -0.1629  1.0053
  124OSM   H15C13126   0.889   6.852   6.265  0.6094  0.5870  0.2590
  124OSM    C1413127   1.133   6.827   6.357  0.1576  0.6965  0.2645
  124OSM   H14A13128   1.137   6.897   6.439 -0.9904 -0.1656  1.0935
  124OSM   H14B13129   1.114   6.865   6.257 -0.8249 -2.1228 -0.7253
  124OSM   H14C13130   1.226   6.775   6.343  0.8943  1.7315  1.1147
  124OSM    C1313131   1.045   6.672   6.512  0.2379 -0.6761 -0.1504
  124OSM   H13A13132   1.142   6.629   6.531 -0.0269 -2.2478 -1.9582
  124OSM   H13B13133   0.978   6.596   6.551 -1.9668  1.0876 -0.3338
  124OSM   H13C13134   1.029   6.756   6.577  0.2345  0.8203 -2.0011
  124OSM    C1213135   1.047   6.610   6.275  0.7053  0.0035 -0.6168
  124OSM   H12A13136   1.041   6.655   6.177  0.8860  1.0605 -0.1479
  124OSM   H12B13137   0.964   6.542   6.284  1.4202 -0.8317 -0.0787
  124OSM    C1113138   1.176   6.522   6.282 -0.8696 -0.8815  0.4598
  124OSM   H11A13139   1.169   6.463   6.376 -2.9776 -0.6788  0.4859
  124OSM   H11B13140   1.261   6.594   6.290 -1.0591 -0.5322 -0.5473
  124OSM      P13141   1.324   6.391   6.113  0.0570 -0.0373  0.2829
  124OSM    O1313142   1.300   6.279   6.026 -0.2024  0.1146  0.3744
  124OSM    O1413143   1.388   6.509   6.059  0.3713 -0.0808  0.0815
  124OSM    O1113144   1.393   6.339   6.243  0.6564  0.2932 -0.4838
  124OSM    O1213145   1.190   6.445   6.165 -0.1706  0.0213 -0.2726
  124OSM    C1S13146   1.499   6.391   6.316 -0.5456  0.4769 -0.2104
  124OSM    H1S13147   1.494   6.502   6.324  1.4634  0.6049 -0.3721
  124OSM    H1T13148   1.591   6.367   6.259 -0.5781  1.7743 -0.8518
  124OSM     NF13149   1.572   6.413   6.543  0.1896 -0.5098 -0.5267
  124OSM    HNF13150   1.671   6.413   6.558  0.0696  1.6622  0.7737
  124OSM    C2S13151   1.497   6.327   6.459  0.7844 -1.0593  0.0265
  124OSM    H2S13152   1.392   6.338   6.493  0.7116  0.4746 -0.6026
  124OSM    C3S13153   1.544   6.178   6.454  0.0927 -0.9198 -0.5728
  124OSM    H3S13154   1.640   6.178   6.397  0.0406 -2.5298 -0.7256
  124OSM     O313155   1.456   6.099   6.382 -0.4904  0.1956  0.1801
  124OSM    HO313156   1.414   6.158   6.318 -1.6904 -1.1593 -0.3466
  124OSM    C4S13157   1.545   6.111   6.590  0.2042 -0.3359  0.2981
  124OSM    H4S13158   1.455   6.055   6.618 -0.5652 -0.7897 -2.7817
  124OSM    C5S13159   1.646   6.129   6.675  0.0097  0.3289  0.1420
  124OSM    H5S13160   1.737   6.184   6.643  0.5276 -0.1236  0.7985
  124OSM    C6S13161   1.656   6.068   6.812 -0.2335 -0.0234 -0.0001
  124OSM    H6S13162   1.651   6.157   6.878  0.3332 -1.1602  1.6406
  124OSM    H6T13163   1.757   6.028   6.835 -0.6616 -1.1418 -0.0053
  124OSM    C7S13164   1.554   5.956   6.853  0.0980 -0.7609  0.0035
  124OSM    H7S13165   1.553   5.875   6.777 -1.9932 -0.6007 -0.2040
  124OSM    H7T13166   1.450   5.995   6.849  0.1930 -0.5813 -2.6389
  124OSM    C8S13167   1.571   5.891   6.993  0.0980 -0.2406  0.2961
  124OSM    H8S13168   1.677   5.857   6.996  0.5505  0.8939 -1.2915
  124OSM    H8T13169   1.502   5.804   6.990  1.6098 -1.4917  0.7366
  124OSM    C9S13170   1.532   5.980   7.111 -0.3831 -0.1304 -0.8860
  124OSM    H9S13171   1.441   6.039   7.086 -0.0719  0.2810 -1.0693
  124OSM    H9T13172   1.617   6.051   7.115 -0.7419  0.3095 -1.0282
  124OSM   C10S13173   1.508   5.909   7.240  0.4784  0.1600 -0.5814
  124OSM   H10S13174   1.425   5.836   7.232  0.3680  0.2427 -0.1803
  124OSM   H10T13175   1.480   5.987   7.313  0.6722  0.2755 -0.6290
  124OSM   C11S13176   1.633   5.822   7.281 -0.4447  0.1905  0.0466
  124OSM   H11S13177   1.654   5.765   7.188 -1.2802 -0.5546  0.2897
  124OSM   H11T13178   1.596   5.763   7.368 -1.9417  0.9585 -0.0446
  124OSM   C12S13179   1.747   5.910   7.339  0.4220 -0.1499  0.1916
  124OSM   H12S13180   1.706   6.012   7.354 -2.8392 -0.9324 -2.1696
  124OSM   H12T13181   1.821   5.921   7.257  0.3555 -1.7269 -0.1026
  124OSM   C13S13182   1.813   5.855   7.461 -0.3584  0.2308  0.0473
  124OSM   H13S13183   1.915   5.898   7.469 -0.2540  0.8979 -3.2939
  124OSM   H13T13184   1.838   5.748   7.441  1.4170  0.8066 -1.0847
  124OSM   C14S13185   1.743   5.890   7.595 -1.0041 -0.2003  0.3965
  124OSM   H14S13186   1.643   5.841   7.600 -0.0363 -2.3196  0.0622
  124OSM   H14T13187   1.732   5.999   7.610  0.5495  0.2724 -1.4989
  124OSM   C15S13188   1.815   5.842   7.723 -0.1955  0.3096 -0.2688
  124OSM   H15S13189   1.906   5.901   7.746  1.3173 -2.0876  0.2807
  124OSM   H15T13190   1.848   5.738   7.704 -1.6162 -0.0550 -0.8394
  124OSM   C16S13191   1.734   5.845   7.850 -0.0489 -0.0703  0.2368
  124OSM   H16S13192   1.626   5.845   7.822  0.1093 -0.5271 -0.4039
  124OSM   H16T13193   1.752   5.943   7.899  0.5516 -0.0978  0.0771
  124OSM   C17S13194   1.752   5.740   7.967  0.6680  0.6252  0.1358
  124OSM   H17S13195   1.861   5.721   7.977  0.4672 -3.5957 -3.0090
  124OSM   H17T13196   1.715   5.640   7.935  1.1542  0.5059 -0.0632
  124OSM   C18S13197   1.683   5.790   8.099 -0.1733  0.5623 -0.3638
  124OSM   H18S13198   1.714   5.894   8.123 -0.8988  0.4090  1.4225
  124OSM   H18T13199   1.724   5.730   8.184 -1.5078  1.3998  0.9300
  124OSM   H18U13200   1.572   5.780   8.097 -0.2269 -0.0749  2.1860
  124OSM    C1F13201   1.526   6.525   6.593  0.0731 -0.3984  0.4982
  124OSM     OF13202   1.409   6.556   6.574  0.0833 -0.3099 -0.1032
  124OSM    C2F13203   1.620   6.625   6.656  0.2975  0.2019 -0.4633
  124OSM    H2F13204   1.601   6.727   6.617 -0.7214  0.1557 -0.1027
  124OSM    H2G13205   1.727   6.597   6.642 -0.0035 -0.1481 -2.3346
  124OSM    C3F13206   1.582   6.631   6.810 -0.2875 -0.2309  0.7772
  124OSM    H3F13207   1.482   6.674   6.831 -0.0036  0.1596  1.3664
  124OSM    H3G13208   1.653   6.706   6.850 -0.5887  0.1664  0.5716
  124OSM    C4F13209   1.581   6.494   6.885  0.3886 -0.3017  0.2898
  124OSM    H4F13210   1.666   6.427   6.857 -0.8284 -1.9064  0.2997
  124OSM    H4G13211   1.491   6.444   6.844  0.0749  0.3889  0.1348
  124OSM    C5F13212   1.558   6.495   7.033 -0.3740 -0.3241  0.3129
  124OSM    H5F13213   1.465   6.551   7.055  1.1156  2.0537  1.0070
  124OSM    H5G13214   1.645   6.547   7.077 -1.4201  1.9385 -0.1762
  124OSM    C6F13215   1.563   6.358   7.096 -0.0879  0.3241  0.0429
  124OSM    H6F13216   1.661   6.309   7.081  0.5351  1.7924 -0.9387
  124OSM    H6G13217   1.482   6.308   7.038 -0.3595  1.2177 -0.3755
  124OSM    C7F13218   1.530   6.356   7.244  0.0534 -0.3259  0.6341
  124OSM    H7F13219   1.546   6.253   7.283  2.3855 -0.0998  0.4430
  124OSM    H7G13220   1.425   6.390   7.251 -0.0762 -0.5165 -0.2668
  124OSM    C8F13221   1.606   6.453   7.339  0.2900  0.2128  0.2000
  124OSM    H8F13222   1.550   6.428   7.431 -0.1922  1.9154  0.3926
  124OSM    H8G13223   1.580   6.558   7.313 -1.7547 -0.1191  0.7681
  124OSM    C9F13224   1.751   6.429   7.346  0.1730  0.2452  0.4498
  124OSM    H9F13225   1.809   6.423   7.252 -0.1553  0.7174  0.2104
  124OSM   C10F13226   1.817   6.387   7.454  0.0844 -0.3176 -0.4710
  124OSM   H10F13227   1.924   6.365   7.451  0.0770 -1.1455  2.4998
  124OSM   C11F13228   1.752   6.363   7.590 -0.3942  0.3696  0.5671
  124OSM   H11F13229   1.669   6.291   7.573  0.0646 -0.1453  0.4939
  124OSM   H11G13230   1.706   6.456   7.630 -0.5000  0.8555 -0.6348
  124OSM   C12F13231   1.849   6.305   7.693 -0.8869  0.0772  0.2310
  124OSM   H12F13232   1.934   6.377   7.694  0.6006 -1.5973  1.0470
  124OSM   H12G13233   1.887   6.210   7.650 -0.5071  0.1997  0.2851
  124OSM   C13F13234   1.775   6.285   7.819 -0.0726  0.4591 -0.5362
  124OSM   H13F13235   1.693   6.213   7.798 -1.2149  0.4965  3.0842
  124OSM   H13G13236   1.736   6.387   7.841 -2.8862  0.1662 -3.5312
  124OSM   C14F13237   1.854   6.232   7.946  0.5773  0.8287 -0.2102
  124OSM   H14F13238   1.932   6.308   7.967 -0.1069  1.6955 -0.7313
  124OSM   H14G13239   1.906   6.139   7.915  1.6097  1.4115 -0.2424
  124OSM   C15F13240   1.760   6.197   8.068 -0.1536  0.1951 -0.0397
  124OSM   H15F13241   1.709   6.099   8.065 -0.0902  0.1872 -1.7004
  124OSM   H15G13242   1.677   6.270   8.078  0.6814  1.2271 -0.4207
  124OSM   C16F13243   1.831   6.209   8.197 -0.1213 -0.3904  0.5398
  124OSM   H16F13244   1.857   6.315   8.217  1.0770 -0.3404 -1.1264
  124OSM   H16G13245   1.924   6.150   8.207 -1.5950 -2.4138  4.2111
  124OSM   C17F13246   1.740   6.150   8.311  0.6880  0.5734 -0.3764
  124OSM   H17F13247   1.751   6.040   8.299  1.3828  0.8103 -2.3454
  124OSM   H17G13248   1.634   6.174   8.292  0.9509  0.8032 -1.6794
  124OSM   C18F13249   1.790   6.197   8.448  0.4038 -0.3549 -0.2083
  124OSM   H18F13250   1.737   6.136   8.524  3.6712 -2.9940  0.1956
  124OSM   H18G13251   1.772   6.306   8.454 -0.5708 -0.5778  2.1892
  124OSM   H18H13252   1.896   6.169   8.463  0.1636 -1.7945 -0.9450
  125OSM      N13253   3.770   4.981   5.817 -0.4340  0.6605 -0.3097
  125OSM    C1513254   3.634   4.925   5.781 -0.0717 -0.8946  0.0183
  125OSM   H15A13255   3.626   4.818   5.795 -1.8819 -0.9709 -1.1836
  125OSM   H15B13256   3.612   4.959   5.681  1.1530  0.0080  0.0460
  125OSM   H15C13257   3.557   4.959   5.849 -0.5861 -1.4844 -0.2488
  125OSM    C1413258   3.866   4.890   5.747  0.0317 -0.7533 -0.5531
  125OSM   H14A13259   3.967   4.896   5.785 -0.1538  0.1923 -0.1811
  125OSM   H14B13260   3.872   4.914   5.642  1.7542 -1.4439 -0.6496
  125OSM   H14C13261   3.855   4.783   5.756  1.6870 -0.8464  1.0055
  125OSM    C1313262   3.781   5.124   5.774 -0.7974  0.1335 -0.2452
  125OSM   H13A13263   3.884   5.144   5.798 -0.5718 -3.1369  2.1671
  125OSM   H13B13264   3.715   5.188   5.831  0.2732  1.7801 -0.7627
  125OSM   H13C13265   3.757   5.128   5.669 -0.3034  0.8073 -0.3411
  125OSM    C1213266   3.796   4.969   5.969 -0.2922  0.3827  0.6403
  125OSM   H12A13267   3.783   4.864   5.993 -2.1647  0.3430 -0.3739
  125OSM   H12B13268   3.728   5.035   6.021 -0.7029  1.5362 -1.2876
  125OSM    C1113269   3.942   4.998   6.023 -0.4114  0.5421 -0.2330
  125OSM   H11A13270   4.012   4.917   5.994 -0.7576 -0.3510  1.2959
  125OSM   H11B13271   3.925   4.991   6.133  1.8314 -0.7374  0.0972
  125OSM      P13272   4.088   5.209   6.069  0.1153  0.2563  0.1533
  125OSM    O1313273   4.215   5.141   6.033 -0.0028 -0.0532 -0.0106
  125OSM    O1413274   4.077   5.355   6.046 -0.1917  0.9661  0.3146
  125OSM    O1113275   4.059   5.181   6.220 -0.1809 -0.1548 -0.1286
  125OSM    O1213276   3.973   5.136   5.995 -0.1972  0.2294 -0.7145
  125OSM    C1S13277   4.148   5.223   6.325 -0.5911  0.4448 -0.7490
  125OSM    H1S13278   4.110   5.309   6.384 -0.6252 -0.5196  0.6956
  125OSM    H1T13279   4.253   5.250   6.299  0.2460 -1.7248  0.1294
  125OSM     NF13280   4.244   5.175   6.538  0.1414 -0.5231 -0.0120
  125OSM    HNF13281   4.343   5.166   6.544  0.1190 -0.4223  0.5039
  125OSM    C2S13282   4.162   5.110   6.431  0.4995  0.7796  0.0251
  125OSM    H2S13283   4.064   5.074   6.469  0.4824  0.3601 -0.4036
  125OSM    C3S13284   4.232   4.980   6.372 -0.0047 -0.2368  0.1842
  125OSM    H3S13285   4.331   4.996   6.325  0.0025 -1.2858 -0.1826
  125OSM     O313286   4.140   4.927   6.269  0.1760  0.7144 -0.2687
  125OSM    HO313287   4.088   5.004   6.245 -0.5430  0.8104  1.4792
  125OSM    C4S13288   4.238   4.877   6.481 -0.0405  0.4506 -0.5041
  125OSM    H4S13289   4.329   4.854   6.537 -0.9453  1.0727  1.3048
  125OSM    C5S13290   4.134   4.802   6.519 -0.2927  0.2140 -0.2686
  125OSM    H5S13291   4.033   4.828   6.482  0.3906  1.5322 -1.2821
  125OSM    C6S13292   4.135   4.711   6.630  0.2618 -0.2714 -1.1113
  125OSM    H6S13293   4.035   4.664   6.633 -0.1994  0.7361  0.6335
  125OSM    H6T13294   4.139   4.765   6.727  0.4776  1.4687 -2.0433
  125OSM    C7S13295   4.235   4.590   6.637 -0.1106 -1.0518  0.3330
  125OSM    H7S13296   4.332   4.638   6.662 -0.6880  0.0298  0.5374
  125OSM    H7T13297   4.239   4.549   6.534  1.0665  2.5195 -1.2120
  125OSM    C8S13298   4.213   4.494   6.759 -0.2764  0.4373 -0.3271
  125OSM    H8S13299   4.272   4.403   6.736 -0.7543 -0.0334  0.2670
  125OSM    H8T13300   4.106   4.462   6.763 -0.0692 -0.1432  0.7697
  125OSM    C9S13301   4.263   4.568   6.886 -0.1443  0.5520 -0.0159
  125OSM    H9S13302   4.209   4.663   6.907  1.5340  1.6602 -0.4937
  125OSM    H9T13303   4.373   4.582   6.875  0.0655 -1.9854 -2.2449
  125OSM   C10S13304   4.226   4.494   7.008 -0.1790  0.0565 -0.2654
  125OSM   H10S13305   4.258   4.387   7.004 -0.0821  0.0852 -0.2623
  125OSM   H10T13306   4.117   4.504   7.025 -0.3184  3.6304 -2.3014
  125OSM   C11S13307   4.304   4.553   7.131 -0.3106  0.1291  0.8976
  125OSM   H11S13308   4.282   4.661   7.149  0.3162  0.8649 -2.1043
  125OSM   H11T13309   4.409   4.525   7.109 -0.8305 -1.4994  0.3959
  125OSM   C12S13310   4.274   4.474   7.261  0.0498  0.2714 -0.4111
  125OSM   H12S13311   4.290   4.366   7.244  1.0929  0.4463 -0.5796
  125OSM   H12T13312   4.167   4.487   7.288  0.3136  1.0623  0.2826
  125OSM   C13S13313   4.343   4.515   7.390 -0.3897  0.4349 -1.1806
  125OSM   H13S13314   4.315   4.616   7.427  1.3886  0.0884  1.3505
  125OSM   H13T13315   4.451   4.524   7.366 -0.2841  0.0304 -0.8566
  125OSM   C14S13316   4.322   4.412   7.499 -0.2326 -0.5073 -0.5209
  125OSM   H14S13317   4.330   4.315   7.445 -3.1420 -0.5972 -0.9667
  125OSM   H14T13318   4.218   4.423   7.537  0.6429 -1.3563  2.3158
  125OSM   C15S13319   4.429   4.431   7.607 -0.3890  0.1151 -0.0207
  125OSM   H15S13320   4.424   4.533   7.652 -0.4932  1.0145 -1.9635
  125OSM   H15T13321   4.525   4.422   7.553 -0.7275 -1.8480 -0.3524
  125OSM   C16S13322   4.419   4.320   7.716 -0.0789  0.7699  0.4921
  125OSM   H16S13323   4.326   4.332   7.775  0.1367 -0.1353  1.0482
  125OSM   H16T13324   4.495   4.334   7.797 -0.1637  0.0374  0.7131
  125OSM   C17S13325   4.431   4.175   7.659 -0.4116  0.3221  0.6236
  125OSM   H17S13326   4.527   4.160   7.606  2.1270  2.3836  4.1402
  125OSM   H17T13327   4.349   4.169   7.584  1.4469 -0.3932 -1.4189
  125OSM   C18S13328   4.425   4.066   7.764  0.3394 -0.6276  0.6046
  125OSM   H18S13329   4.414   3.972   7.705 -0.9784 -0.5038  0.6301
  125OSM   H18T13330   4.331   4.057   7.822 -0.2493 -0.4826 -0.3010
  125OSM   H18U13331   4.521   4.068   7.820  1.2537  3.5189 -0.7819
  125OSM    C1F13332   4.194   5.257   6.628  0.1837 -1.1627 -1.2415
  125OSM     OF13333   4.077   5.236   6.664  0.2865 -0.1604  0.6222
  125OSM    C2F13334   4.282   5.364   6.679 -0.0995  0.1470 -0.0320
  125OSM    H2F13335   4.299   5.437   6.596 -1.6797  0.2084 -0.3305
  125OSM    H2G13336   4.378   5.315   6.704 -0.9397 -0.9800  1.1008
  125OSM    C3F13337   4.229   5.434   6.809  0.3606  0.1565  0.0065
  125OSM    H3F13338   4.120   5.452   6.807  0.2544 -0.4565  0.1109
  125OSM    H3G13339   4.277   5.532   6.830 -0.0453 -0.0185  1.9471
  125OSM    C4F13340   4.257   5.356   6.932 -0.9654 -0.7664 -0.1015
  125OSM    H4F13341   4.337   5.409   6.989 -0.3485  1.9679 -3.2047
  125OSM    H4G13342   4.309   5.262   6.904  0.9945 -0.2714  1.5893
  125OSM    C5F13343   4.138   5.344   7.028  0.3017  0.4119 -0.2005
  125OSM    H5F13344   4.053   5.289   6.982  0.6315 -0.6602  0.4555
  125OSM    H5G13345   4.094   5.444   7.050  1.1523  0.3049  2.2331
  125OSM    C6F13346   4.184   5.284   7.158 -0.0762 -0.8780  0.0827
  125OSM    H6F13347   4.268   5.339   7.204  0.6148 -1.4464 -0.4612
  125OSM    H6G13348   4.220   5.181   7.137  0.6014 -0.5759 -0.2669
  125OSM    C7F13349   4.068   5.272   7.263  0.0977 -0.2336 -0.7180
  125OSM    H7F13350   3.996   5.191   7.238  0.6454 -0.8273 -0.4157
  125OSM    H7G13351   4.017   5.369   7.252  1.5036  0.6537  0.2798
  125OSM    C8F13352   4.122   5.265   7.406 -0.8563 -0.2810 -0.4840
  125OSM    H8F13353   4.047   5.276   7.487 -0.0084  0.6621  0.2132
  125OSM    H8G13354   4.184   5.355   7.422 -2.1269  0.5263  0.0225
  125OSM    C9F13355   4.210   5.139   7.433  0.2262 -0.5380  0.5167
  125OSM    H9F13356   4.247   5.094   7.340  0.8860 -1.8805  1.3903
  125OSM   C10F13357   4.232   5.071   7.549 -0.6770 -0.6390 -0.1423
  125OSM   H10F13358   4.305   4.989   7.556  2.2129  1.9223  3.0461
  125OSM   C11F13359   4.176   5.109   7.680 -0.4276  0.5208 -1.5826
  125OSM   H11F13360   4.146   5.015   7.732  0.1091  1.0421 -0.2840
  125OSM   H11G13361   4.092   5.182   7.680  0.1206  1.2649  0.9519
  125OSM   C12F13362   4.283   5.158   7.785  0.6414 -0.2687  0.5799
  125OSM   H12F13363   4.306   5.265   7.769 -1.0658 -0.0011 -0.3297
  125OSM   H12G13364   4.380   5.104   7.783  1.1429  0.5867  1.2760
  125OSM   C13F13365   4.236   5.147   7.930 -0.0552  0.4768  0.9514
  125OSM   H13F13366   4.248   5.045   7.971 -0.6340  0.2964  0.6729
  125OSM   H13G13367   4.127   5.166   7.930 -0.3002 -0.7085 -1.2371
  125OSM   C14F13368   4.310   5.250   8.014 -0.1637  0.1445  0.4479
  125OSM   H14F13369   4.277   5.353   7.987 -0.6538 -0.3011 -0.6899
  125OSM   H14G13370   4.420   5.237   8.000 -0.0968 -0.5344  1.4842
  125OSM   C15F13371   4.286   5.221   8.167  0.3809 -0.1397 -0.2147
  125OSM   H15F13372   4.182   5.184   8.180 -0.1003  1.1969 -0.1226
  125OSM   H15G13373   4.305   5.308   8.233  2.0898 -0.9127  0.3815
  125OSM   C16F13374   4.375   5.105   8.225 -0.1047 -0.4859 -0.3797
  125OSM   H16F13375   4.475   5.145   8.196 -1.1748  1.1975 -1.9250
  125OSM   H16G13376   4.354   5.009   8.174 -3.4026  0.1157 -0.3533
  125OSM   C17F13377   4.335   5.080   8.371  0.2919 -0.0835  0.0439
  125OSM   H17F13378   4.226   5.058   8.383  0.2457 -1.2131 -1.9482
  125OSM   H17G13379   4.350   5.172   8.431  1.0041 -1.5274  2.2043
  125OSM   C18F13380   4.414   4.968   8.442  0.3213 -0.2262  0.1563
  125OSM   H18F13381   4.390   4.974   8.551 -0.4822 -1.2038  0.0570
  125OSM   H18G13382   4.523   4.990   8.436  1.0127 -3.1080  0.3859
  125OSM   H18H13383   4.391   4.865   8.406 -0.8026 -0.2928  1.0107
  126OSM      N13384   1.187   2.377   6.253  0.7350 -0.2834 -0.1798
  126OSM    C1513385   1.282   2.395   6.135  0.8272  0.4344  0.0202
  126OSM   H15A13386   1.349   2.479   6.148  0.5202  1.1395 -2.5713
  126OSM   H15B13387   1.231   2.412   6.042 -1.4896  0.7841  1.2986
  126OSM   H15C13388   1.348   2.310   6.122  1.1289  0.6135  0.3274
  126OSM    C1413389   1.079   2.487   6.242 -0.8314  0.4550  0.8153
  126OSM   H14A13390   0.995   2.473   6.308 -1.6027 -0.2869 -0.2915
  126OSM   H14B13391   1.024   2.465   6.152 -0.5973 -3.3463  1.4320
  126OSM   H14C13392   1.118   2.587   6.238  1.7525 -0.4237  1.7608
  126OSM    C1313393   1.117   2.251   6.258 -0.0379  0.0296 -0.0184
  126OSM   H13A13394   1.190   2.172   6.272  0.7602  0.8925  0.8302
  126OSM   H13B13395   1.065   2.228   6.167 -0.1056 -1.4290  0.3576
  126OSM   H13C13396   1.044   2.244   6.338 -0.8416 -3.0966 -0.8966
  126OSM    C1213397   1.252   2.396   6.391  0.1000  0.2333 -0.2098
  126OSM   H12A13398   1.310   2.309   6.419  1.2888  1.2422  0.5397
  126OSM   H12B13399   1.176   2.420   6.463 -0.4919 -0.4074 -0.6025
  126OSM    C1113400   1.349   2.520   6.401  0.5899  0.2433 -0.6871
  126OSM   H11A13401   1.367   2.546   6.507  0.1155 -0.0681 -0.5307
  126OSM   H11B13402   1.295   2.607   6.357 -0.5565 -0.4939 -0.7779
  126OSM      P13403   1.580   2.415   6.363 -0.3760  0.1555  0.1333
  126OSM    O1313404   1.581   2.299   6.274 -0.3265  0.2667 -0.0968
  126OSM    O1413405   1.706   2.486   6.363  0.3183 -0.7548 -0.1481
  126OSM    O1113406   1.527   2.369   6.507 -0.1180 -0.5414  0.0394
  126OSM    O1213407   1.470   2.513   6.326  0.6712 -0.2012 -0.9251
  126OSM    C1S13408   1.623   2.365   6.617  0.3388 -0.1824  0.6541
  126OSM    H1S13409   1.716   2.424   6.602 -0.1910  0.1029 -2.0985
  126OSM    H1T13410   1.662   2.262   6.628 -0.5901 -0.4547  1.5357
  126OSM     NF13411   1.676   2.402   6.856 -0.0529  0.8914  0.3756
  126OSM    HNF13412   1.675   2.344   6.938 -2.4188  0.5160  0.1483
  126OSM    C2S13413   1.564   2.402   6.762 -0.2671 -0.2416 -0.8095
  126OSM    H2S13414   1.514   2.501   6.763  0.4250  0.1287  1.3267
  126OSM    C3S13415   1.457   2.298   6.796 -0.5878  0.4974  0.6212
  126OSM    H3S13416   1.523   2.212   6.817  1.0367  1.6008  0.2374
  126OSM     O313417   1.364   2.255   6.691 -0.0180 -0.1677  0.4541
  126OSM    HO313418   1.409   2.276   6.609  0.3905 -1.8891  0.1984
  126OSM    C4S13419   1.382   2.336   6.923 -0.1109 -0.3749 -0.0869
  126OSM    H4S13420   1.426   2.307   7.020  1.6912 -3.5864 -1.7035
  126OSM    C5S13421   1.273   2.418   6.933  0.0695 -0.6359 -0.3467
  126OSM    H5S13422   1.203   2.453   6.856  0.6857  3.3395  0.6823
  126OSM    C6S13423   1.217   2.445   7.071  0.6252 -0.4533 -0.2783
  126OSM    H6S13424   1.205   2.553   7.093 -0.2977 -0.8817  1.5265
  126OSM    H6T13425   1.295   2.423   7.148  0.2718  1.9495  0.8544
  126OSM    C7S13426   1.089   2.362   7.103 -0.0961 -0.5976 -0.7824
  126OSM    H7S13427   1.117   2.256   7.091 -0.3264 -1.1751  2.6358
  126OSM    H7T13428   1.002   2.390   7.041  0.5360  1.8399 -0.6806
  126OSM    C8S13429   1.043   2.374   7.250 -0.3086  0.0512  0.6647
  126OSM    H8S13430   1.138   2.373   7.309 -0.5039 -0.7431  0.9917
  126OSM    H8T13431   0.991   2.280   7.280  1.3128 -0.8422  0.8223
  126OSM    C9S13432   0.954   2.495   7.283  0.2273  0.3968 -0.1606
  126OSM    H9S13433   0.870   2.484   7.211  0.3879 -0.3213 -0.2526
  126OSM    H9T13434   1.007   2.587   7.250 -0.6063  1.0424  0.2778
  126OSM   C10S13435   0.900   2.492   7.424 -0.0315 -0.0950  0.8685
  126OSM   H10S13436   0.869   2.389   7.452 -0.6189  0.6080  3.0020
  126OSM   H10T13437   0.811   2.559   7.424 -0.8687 -1.1769  1.8942
  126OSM   C11S13438   0.989   2.559   7.530 -0.5222 -0.0368 -0.0837
  126OSM   H11S13439   1.061   2.624   7.476 -1.1700 -0.3954 -1.4379
  126OSM   H11T13440   1.039   2.473   7.580  0.1917  0.0656 -0.6080
  126OSM   C12S13441   0.912   2.635   7.634  0.5546  0.7794 -0.1886
  126OSM   H12S13442   0.816   2.583   7.653  1.1525 -0.6388 -0.8395
  126OSM   H12T13443   0.882   2.734   7.595  1.8927  1.3600  0.2071
  126OSM   C13S13444   0.981   2.657   7.771 -0.3687 -0.4242  0.2133
  126OSM   H13S13445   0.955   2.756   7.815 -2.5914 -0.0728 -1.6982
  126OSM   H13T13446   1.089   2.669   7.747 -0.4489  1.6950  0.7077
  126OSM   C14S13447   0.975   2.542   7.877 -0.0859  0.3755 -0.3012
  126OSM   H14S13448   0.964   2.445   7.824  2.4303  0.5766 -1.2938
  126OSM   H14T13449   0.886   2.560   7.942  1.4606 -1.1214  2.4228
  126OSM   C15S13450   1.083   2.540   7.984  0.1017 -0.3342 -0.5211
  126OSM   H15S13451   1.097   2.644   8.021  1.7248 -0.1790 -1.4882
  126OSM   H15T13452   1.181   2.527   7.933 -0.1558  1.9830 -1.7748
  126OSM   C16S13453   1.073   2.451   8.102 -0.0409 -0.2110 -0.3237
  126OSM   H16S13454   0.985   2.473   8.167 -0.6665 -2.3372 -0.3936
  126OSM   H16T13455   1.169   2.465   8.158 -0.0123  1.4153 -0.7110
  126OSM   C17S13456   1.067   2.303   8.059 -0.2171  0.4899 -0.8803
  126OSM   H17S13457   1.150   2.281   7.989  0.6598  0.9256  0.0045
  126OSM   H17T13458   0.970   2.283   8.008 -0.3097  0.8772 -0.8592
  126OSM   C18S13459   1.081   2.193   8.170  0.9697  0.6710 -0.1132
  126OSM   H18S13460   1.019   2.105   8.142 -0.7690  2.6186 -2.8715
  126OSM   H18T13461   1.025   2.242   8.253 -1.4479 -0.0694 -1.2044
  126OSM   H18U13462   1.186   2.165   8.193  1.3987  1.6955 -0.7555
  126OSM    C1F13463   1.769   2.499   6.841  0.3893  0.7243 -0.5370
  126OSM     OF13464   1.757   2.594   6.759  0.2578  0.2197 -0.1643
  126OSM    C2F13465   1.883   2.496   6.945 -0.2491  0.7087  0.6988
  126OSM    H2F13466   1.946   2.405   6.942 -0.4492  0.5194  1.8138
  126OSM    H2G13467   1.823   2.504   7.038 -1.7632 -0.5803 -0.0948
  126OSM    C3F13468   1.989   2.616   6.933  0.1697  0.1415 -0.3658
  126OSM    H3F13469   1.937   2.699   6.880  1.9235 -0.2962 -3.0059
  126OSM    H3G13470   2.073   2.582   6.868  1.4017  1.6641  0.3772
  126OSM    C4F13471   2.050   2.658   7.065  0.0381 -0.1605  0.3294
  126OSM    H4F13472   1.967   2.681   7.136 -0.5278 -1.9893  0.3092
  126OSM    H4G13473   2.103   2.756   7.067 -0.4273  0.1083 -0.0576
  126OSM    C5F13474   2.142   2.549   7.124  0.3880  0.9673 -0.3706
  126OSM    H5F13475   2.240   2.537   7.074  0.1571 -1.1669 -0.3837
  126OSM    H5G13476   2.086   2.453   7.119 -0.5424  1.1500  3.4823
  126OSM    C6F13477   2.179   2.582   7.271  0.6783  0.1464 -0.0942
  126OSM    H6F13478   2.159   2.690   7.291  0.9409  0.1874 -0.0540
  126OSM    H6G13479   2.281   2.548   7.297  0.4836 -1.2040 -0.9969
  126OSM    C7F13480   2.102   2.497   7.370  0.6332 -0.9869  0.0386
  126OSM    H7F13481   2.099   2.389   7.342 -0.9952 -0.4101 -2.3361
  126OSM    H7G13482   1.994   2.522   7.370  0.9383  0.4642  0.8828
  126OSM    C8F13483   2.147   2.491   7.519  0.0701 -0.0150  0.6090
  126OSM    H8F13484   2.246   2.442   7.536  1.0227  1.7020  0.2970
  126OSM    H8G13485   2.075   2.435   7.582 -1.5888  0.4189 -0.8379
  126OSM    C9F13486   2.162   2.630   7.579  0.3539  0.1846  0.4943
  126OSM    H9F13487   2.099   2.705   7.528 -0.2049  0.5288  1.6482
  126OSM   C10F13488   2.230   2.663   7.684  0.1629 -0.2794 -0.4436
  126OSM   H10F13489   2.238   2.767   7.719 -1.7170 -0.4162  0.5085
  126OSM   C11F13490   2.320   2.565   7.761  0.2503 -0.2031 -0.6729
  126OSM   H11F13491   2.398   2.625   7.813  0.4446  0.3622 -1.6063
  126OSM   H11G13492   2.384   2.497   7.701  3.1225 -0.2547  2.1331
  126OSM   C12F13493   2.245   2.490   7.859  0.4427 -0.3273 -0.0794
  126OSM   H12F13494   2.313   2.413   7.903  0.4687 -0.0921  0.2944
  126OSM   H12G13495   2.165   2.428   7.813 -1.8095 -0.1022  3.2064
  126OSM   C13F13496   2.187   2.565   7.978 -0.3551  0.0575 -0.3437
  126OSM   H13F13497   2.140   2.658   7.939 -1.4764  0.0091  0.8440
  126OSM   H13G13498   2.268   2.596   8.048  0.3172  0.4061 -1.2522
  126OSM   C14F13499   2.071   2.490   8.045 -0.3660 -0.8355  0.2540
  126OSM   H14F13500   2.105   2.384   8.055 -0.7862 -0.9419  0.6364
  126OSM   H14G13501   1.983   2.487   7.977 -0.4087 -1.6145  0.3230
  126OSM   C15F13502   2.049   2.545   8.183 -0.3726  0.6040  0.3063
  126OSM   H15F13503   2.010   2.649   8.181 -0.8372  0.4619  1.2179
  126OSM   H15G13504   2.146   2.542   8.238  0.0159 -2.0041 -0.3625
  126OSM   C16F13505   1.944   2.475   8.269 -0.8764 -0.6776 -0.2388
  126OSM   H16F13506   1.947   2.364   8.264 -0.2484 -0.5966 -2.4780
  126OSM   H16G13507   1.844   2.497   8.224 -0.0764  1.3763 -1.1340
  126OSM   C17F13508   1.945   2.529   8.408 -0.7644  0.1090  0.5489
  126OSM   H17F13509   1.949   2.639   8.403 -1.1484  0.1330  0.7148
  126OSM   H17G13510   2.042   2.494   8.448 -0.0647 -0.8614 -1.7992
  126OSM   C18F13511   1.834   2.487   8.501 -0.1284  0.1951 -0.0883
  126OSM   H18F13512   1.853   2.522   8.605  0.4462  4.6240 -1.4883
  126OSM   H18G13513   1.829   2.376   8.510 -2.3823  0.1933 -0.7260
  126OSM   H18H13514   1.737   2.525   8.462  0.6470 -0.4274 -2.8393
  127OSM      N13515   6.124   0.047   6.394  0.1054  0.0735  0.4190
  127OSM    C1513516   6.180  -0.040   6.282  0.3300 -0.0765  0.2363
  127OSM   H15A13517   6.151   0.010   6.191  0.5601 -1.2381 -0.5049
  127OSM   H15B13518   6.129  -0.136   6.278  1.2158 -0.5178 -1.3717
  127OSM   H15C13519   6.287  -0.055   6.284  0.1493 -1.4370  0.9390
  127OSM    C1413520   5.977   0.082   6.381 -0.0403 -0.0542 -0.5984
  127OSM   H14A13521   5.972   0.161   6.307 -0.0362  0.1118 -0.4240
  127OSM   H14B13522   5.938   0.134   6.468 -1.2830 -2.3041  0.2768
  127OSM   H14C13523   5.907   0.006   6.350 -2.1808  0.9039  1.5102
  127OSM    C1313524   6.142  -0.027   6.519 -0.6190  0.2179 -0.0173
  127OSM   H13A13525   6.246  -0.050   6.537 -0.0514  1.2970 -1.7381
  127OSM   H13B13526   6.103  -0.128   6.514  3.7992 -1.7069 -0.4495
  127OSM   H13C13527   6.105   0.019   6.610  2.1734  1.5490  0.5535
  127OSM    C1213528   6.209   0.178   6.402  0.2115  0.3118 -0.5963
  127OSM   H12A13529   6.222   0.201   6.297  1.1472 -1.7147 -0.9859
  127OSM   H12B13530   6.310   0.150   6.430 -0.1733  1.6588  2.5046
  127OSM    C1113531   6.156   0.300   6.486  0.0020 -0.0808 -0.6011
  127OSM   H11A13532   6.243   0.370   6.481 -2.3059  2.9449 -1.9140
  127OSM   H11B13533   6.138   0.274   6.593 -0.3002  0.4477 -0.5170
  127OSM      P13534   6.051   0.476   6.329 -0.2892 -0.2271  0.4249
  127OSM    O1313535   6.177   0.456   6.251  0.0754 -0.2688  0.1314
  127OSM    O1413536   5.928   0.481   6.247  0.1857  0.1738  0.0467
  127OSM    O1113537   6.066   0.610   6.417  0.9559 -0.0061 -0.3929
  127OSM    O1213538   6.046   0.367   6.435  0.1379  0.1852 -0.4120
  127OSM    C1S13539   5.945   0.677   6.467  0.6591  0.2560  0.2526
  127OSM    H1S13540   5.853   0.615   6.459  1.0334 -0.1228 -1.3383
  127OSM    H1T13541   5.928   0.775   6.419  1.7067  0.4830  0.3270
  127OSM     NF13542   5.824   0.744   6.682  0.1052 -0.5637  0.2151
  127OSM    HNF13543   5.816   0.842   6.697 -3.8705 -0.7030  0.1149
  127OSM    C2S13544   5.953   0.719   6.616 -0.4792 -0.2303 -0.4594
  127OSM    H2S13545   6.012   0.644   6.672  0.9842  0.4668 -1.0158
  127OSM    C3S13546   6.041   0.848   6.630  0.1096  0.1187 -0.2263
  127OSM    H3S13547   5.986   0.930   6.579  0.7471 -0.1699 -1.4139
  127OSM     O313548   6.169   0.828   6.565  0.3835 -0.2292 -0.1976
  127OSM    HO313549   6.158   0.746   6.515  0.1752 -1.1792  1.3403
  127OSM    C4S13550   6.076   0.878   6.769  0.0200 -0.9064  0.0265
  127OSM    H4S13551   6.132   0.804   6.828  2.2090  1.3461  0.9783
  127OSM    C5S13552   6.023   0.987   6.834 -0.4430 -0.0682  0.5595
  127OSM    H5S13553   5.972   1.066   6.776 -2.0616 -1.8801 -0.6126
  127OSM    C6S13554   6.048   1.026   6.975 -0.3039  0.3558  0.1077
  127OSM    H6S13555   5.955   1.079   7.006 -1.3933 -1.8086  0.6823
  127OSM    H6T13556   6.125   1.107   6.968 -1.4956  1.4095 -4.8715
  127OSM    C7S13557   6.093   0.920   7.078  0.2560  0.0878 -0.6777
  127OSM    H7S13558   6.197   0.891   7.049  0.9502  2.5429 -0.9405
  127OSM    H7T13559   6.017   0.841   7.068 -2.0333  1.9029  1.2198
  127OSM    C8S13560   6.096   0.969   7.219  0.0259  0.0837  0.0286
  127OSM    H8S13561   5.998   0.947   7.267  0.8572 -1.6465  1.0192
  127OSM    H8T13562   6.107   1.079   7.228 -0.5260 -0.0238  5.1730
  127OSM    C9S13563   6.208   0.900   7.307 -0.1523  0.1250 -0.9894
  127OSM    H9S13564   6.297   0.944   7.258  0.5434 -0.7381 -0.5410
  127OSM    H9T13565   6.206   0.789   7.294  1.7615 -0.0264 -0.3755
  127OSM   C10S13566   6.198   0.954   7.456  0.0527 -0.4090 -0.4698
  127OSM   H10S13567   6.273   0.895   7.514 -0.2522 -0.4634 -0.1254
  127OSM   H10T13568   6.099   0.919   7.492 -0.2303  0.0334 -0.8141
  127OSM   C11S13569   6.239   1.097   7.478  0.3214 -0.4404  0.7535
  127OSM   H11S13570   6.167   1.160   7.423  2.7819  2.6274  0.7948
  127OSM   H11T13571   6.339   1.121   7.437 -0.0382  2.2824  1.3116
  127OSM   C12S13572   6.247   1.134   7.624  0.9318 -0.7781  0.0335
  127OSM   H12S13573   6.337   1.096   7.675  0.6362  1.6675  2.5879
  127OSM   H12T13574   6.161   1.105   7.688  0.3680  2.4498  0.9195
  127OSM   C13S13575   6.273   1.283   7.638  0.0110 -0.2204  0.5803
  127OSM   H13S13576   6.179   1.336   7.612  1.8539  1.8345 -2.3687
  127OSM   H13T13577   6.351   1.307   7.563 -1.6051  0.1457 -1.0610
  127OSM   C14S13578   6.346   1.308   7.770  0.3170  0.5949 -0.1603
  127OSM   H14S13579   6.438   1.250   7.792  0.4650  1.4008  1.5134
  127OSM   H14T13580   6.278   1.276   7.851 -0.9318  1.0965 -0.9807
  127OSM   C15S13581   6.383   1.449   7.789  0.1274 -0.1529  0.3389
  127OSM   H15S13582   6.309   1.519   7.745 -0.5688 -0.4444  1.0319
  127OSM   H15T13583   6.483   1.475   7.750 -0.5711  0.8985 -0.8271
  127OSM   C16S13584   6.387   1.486   7.940 -0.9154 -0.5700 -0.0609
  127OSM   H16S13585   6.458   1.417   7.991 -0.6839  0.5871  1.2353
  127OSM   H16T13586   6.285   1.475   7.984 -1.7448  2.0007 -1.1666
  127OSM   C17S13587   6.456   1.622   7.961  0.5265  0.1042 -0.0374
  127OSM   H17S13588   6.374   1.691   7.931 -0.0536 -1.5009 -2.3622
  127OSM   H17T13589   6.540   1.636   7.891 -1.2820  2.6568 -1.8691
  127OSM   C18S13590   6.508   1.646   8.102  0.1905  0.0348  0.2782
  127OSM   H18S13591   6.570   1.556   8.127  0.8864  0.4748  0.1762
  127OSM   H18T13592   6.428   1.653   8.179  0.5977  0.2350  0.6936
  127OSM   H18U13593   6.568   1.740   8.109 -1.6822  1.3084 -0.2000
  127OSM    C1F13594   5.748   0.646   6.726 -0.7705 -0.2431 -0.5077
  127OSM     OF13595   5.776   0.531   6.706  0.3553  0.6046 -0.2408
  127OSM    C2F13596   5.629   0.685   6.802  0.3343 -0.0635 -0.7736
  127OSM    H2F13597   5.532   0.695   6.750 -0.7466 -1.0342  0.9327
  127OSM    H2G13598   5.637   0.782   6.856 -1.0944 -0.5906  0.4865
  127OSM    C3F13599   5.622   0.578   6.913 -0.3886 -0.5451 -0.2100
  127OSM    H3F13600   5.717   0.559   6.968 -1.9338 -3.3274  1.7633
  127OSM    H3G13601   5.578   0.482   6.879 -1.5364 -0.2699  0.4241
  127OSM    C4F13602   5.526   0.616   7.032 -0.0495  0.2442  1.0580
  127OSM    H4F13603   5.513   0.528   7.099 -2.1738  0.0766  0.5206
  127OSM    H4G13604   5.420   0.634   7.003  0.0902  0.0053  0.3640
  127OSM    C5F13605   5.582   0.728   7.120  0.4222 -0.1552 -0.6163
  127OSM    H5F13606   5.584   0.817   7.053 -0.0518 -0.5009 -1.0990
  127OSM    H5G13607   5.688   0.710   7.147 -0.1146 -1.2680  0.8678
  127OSM    C6F13608   5.504   0.765   7.249  0.4604  0.4929  0.3679
  127OSM    H6F13609   5.506   0.675   7.315  0.5259  0.5958  0.5060
  127OSM    H6G13610   5.394   0.780   7.234  0.1970 -1.8523 -0.5866
  127OSM    C7F13611   5.569   0.875   7.323  0.6477 -0.2172 -1.4413
  127OSM    H7F13612   5.556   0.968   7.264 -1.0358 -0.0275 -0.8123
  127OSM    H7G13613   5.678   0.850   7.329  0.0105 -2.9022  1.1266
  127OSM    C8F13614   5.501   0.898   7.465 -0.5817  0.3866 -0.9110
  127OSM    H8F13615   5.391   0.905   7.459 -0.6166  1.8323  0.7074
  127OSM    H8G13616   5.534   0.996   7.506 -1.1540  0.1742  0.0854
  127OSM    C9F13617   5.542   0.798   7.570  0.7707  0.0032  0.0028
  127OSM    H9F13618   5.628   0.732   7.548  1.8066  0.8939  1.1717
  127OSM   C10F13619   5.478   0.788   7.691  0.2101 -0.7547 -0.3162
  127OSM   H10F13620   5.508   0.712   7.765 -1.4358 -1.0778  0.0726
  127OSM   C11F13621   5.364   0.879   7.731  0.8679  0.2723 -0.0960
  127OSM   H11F13622   5.269   0.834   7.696  1.2626 -1.8431  1.3468
  127OSM   H11G13623   5.361   0.976   7.677 -0.2370  0.0425 -0.4781
  127OSM   C12F13624   5.369   0.892   7.881 -0.1418 -0.1993 -0.2990
  127OSM   H12F13625   5.353   0.794   7.931 -1.8321 -0.1322 -0.6547
  127OSM   H12G13626   5.278   0.953   7.898 -0.8868 -1.2978 -0.2902
  127OSM   C13F13627   5.491   0.974   7.939  0.2143  0.8531 -0.3102
  127OSM   H13F13628   5.498   1.069   7.883 -0.3318  0.5703 -0.8695
  127OSM   H13G13629   5.591   0.927   7.925  0.1451  0.7647 -0.5113
  127OSM   C14F13630   5.453   0.997   8.083  0.4598 -0.0620  0.2096
  127OSM   H14F13631   5.430   0.902   8.136  0.0458  0.4787  1.0255
  127OSM   H14G13632   5.367   1.068   8.087  1.2394  0.9609 -0.5185
  127OSM   C15F13633   5.561   1.072   8.162 -0.1738  0.8084  0.2417
  127OSM   H15F13634   5.593   1.160   8.102  2.0787 -0.1110 -0.0246
  127OSM   H15G13635   5.646   1.000   8.162  0.6437  1.6748  2.5980
  127OSM   C16F13636   5.527   1.105   8.311 -0.1444 -0.1462 -0.0105
  127OSM   H16F13637   5.484   1.021   8.369  1.3552 -1.2297 -0.4105
  127OSM   H16G13638   5.465   1.197   8.316  0.7127  0.4854 -0.7760
  127OSM   C17F13639   5.654   1.132   8.386  0.2896 -0.4450  0.0975
  127OSM   H17F13640   5.730   1.051   8.391 -0.3095 -1.1032 -1.0817
  127OSM   H17G13641   5.614   1.141   8.489 -1.1706 -2.2837 -0.2499
  127OSM   C18F13642   5.733   1.254   8.339  0.4121  0.0577  0.2123
  127OSM   H18F13643   5.667   1.344   8.341  1.3338  0.8819 -2.2010
  127OSM   H18G13644   5.771   1.260   8.235  0.9196  0.7771  0.4261
  127OSM   H18H13645   5.810   1.270   8.418  0.1146  1.4138  0.2680
  128OSM      N13646   5.658   6.399   6.052 -0.0951 -0.2961  0.8244
  128OSM    C1513647   5.799   6.427   6.086 -0.5226 -0.8053 -0.4574
  128OSM   H15A13648   5.852   6.338   6.115  1.5603  1.1701  2.2663
  128OSM   H15B13649   5.799   6.502   6.164  1.0530 -1.8100  0.5596
  128OSM   H15C13650   5.847   6.472   6.000 -2.1166  1.0060 -0.4789
  128OSM    C1413651   5.606   6.536   6.012 -0.2981  0.0078 -0.0932
  128OSM   H14A13652   5.613   6.595   6.103 -0.2130 -0.9977  0.5710
  128OSM   H14B13653   5.500   6.541   5.996 -0.3605  0.2963  0.3944
  128OSM   H14C13654   5.653   6.583   5.927  1.0910 -1.7414 -0.3555
  128OSM    C1313655   5.652   6.304   5.937 -0.0027 -0.3594  0.2091
  128OSM   H13A13656   5.718   6.340   5.859  2.3583 -2.2159  1.2103
  128OSM   H13B13657   5.555   6.302   5.890  0.7306  1.3415 -1.5057
  128OSM   H13C13658   5.696   6.212   5.973  2.4833  0.7262  0.1691
  128OSM    C1213659   5.581   6.343   6.174  0.5133  0.4559 -0.0307
  128OSM   H12A13660   5.627   6.249   6.202  3.7465  1.3521 -1.8205
  128OSM   H12B13661   5.478   6.335   6.141  0.1607 -1.7270  1.4319
  128OSM    C1113662   5.577   6.433   6.299  0.9949 -0.0374 -0.4007
  128OSM   H11A13663   5.683   6.442   6.329  0.3912  1.8677  1.4591
  128OSM   H11B13664   5.536   6.368   6.379  2.1909 -0.9159 -0.4878
  128OSM      P13665   5.367   6.561   6.282 -0.4646 -0.0625  0.3178
  128OSM    O1313666   5.315   6.687   6.221  0.3063 -0.1225 -0.3073
  128OSM    O1413667   5.310   6.435   6.227 -0.1705 -0.3199 -0.4022
  128OSM    O1113668   5.325   6.565   6.438 -0.2583 -0.2765 -0.0749
  128OSM    O1213669   5.520   6.558   6.280  0.0463 -0.5627  0.1081
  128OSM    C1S13670   5.424   6.621   6.530  0.3318  0.2931  0.4390
  128OSM    H1S13671   5.417   6.732   6.528  2.6604  0.4959 -0.4708
  128OSM    H1T13672   5.533   6.610   6.512  0.2482  0.2143 -0.0416
  128OSM     NF13673   5.490   6.686   6.757  0.3695 -0.5268 -0.3951
  128OSM    HNF13674   5.585   6.674   6.786  0.1970 -0.5894  0.1435
  128OSM    C2S13675   5.416   6.586   6.681  0.5079 -0.1917  0.5216
  128OSM    H2S13676   5.311   6.591   6.718  0.8539 -1.6200  1.8024
  128OSM    C3S13677   5.457   6.444   6.705  0.4860 -0.3359 -0.1875
  128OSM    H3S13678   5.567   6.438   6.688  0.0790  0.1654 -3.9353
  128OSM     O313679   5.405   6.353   6.617  0.1086 -0.1742  0.5029
  128OSM    HO313680   5.362   6.413   6.556 -3.5007  0.0471  2.9604
  128OSM    C4S13681   5.431   6.403   6.851  0.2142 -0.2241 -0.6516
  128OSM    H4S13682   5.508   6.426   6.925  0.8776  0.8621 -1.6420
  128OSM    C5S13683   5.318   6.347   6.897 -0.3779  0.9506  0.0451
  128OSM    H5S13684   5.233   6.351   6.827  0.6777  2.0858 -1.2528
  128OSM    C6S13685   5.297   6.311   7.040  0.5498 -0.7685  0.0217
  128OSM    H6S13686   5.312   6.201   7.050 -0.7234 -0.9183  0.4883
  128OSM    H6T13687   5.192   6.331   7.072  0.8489 -0.2211  0.7036
  128OSM    C7S13688   5.375   6.384   7.149  0.6201  0.4561 -0.0874
  128OSM    H7S13689   5.365   6.494   7.138 -1.4421  0.2470 -0.6802
  128OSM    H7T13690   5.481   6.356   7.132 -0.2841 -2.0686 -2.1644
  128OSM    C8S13691   5.330   6.346   7.290 -0.5396 -0.5793  0.3395
  128OSM    H8S13692   5.342   6.236   7.293  0.5042 -0.4838  0.0293
  128OSM    H8T13693   5.221   6.364   7.303 -0.5063 -0.3764  0.3448
  128OSM    C9S13694   5.408   6.421   7.399  0.2299 -0.1390 -0.0022
  128OSM    H9S13695   5.388   6.530   7.391  2.8499  0.4434  0.4431
  128OSM    H9T13696   5.517   6.409   7.382 -0.0684 -2.7985 -0.4356
  128OSM   C10S13697   5.370   6.383   7.546 -0.2944  1.0196 -0.3985
  128OSM   H10S13698   5.386   6.273   7.548 -0.8891  0.9274 -0.4617
  128OSM   H10T13699   5.265   6.407   7.572 -0.2323  0.4832  0.3712
  128OSM   C11S13700   5.453   6.456   7.660  0.5350  0.4220 -0.6767
  128OSM   H11S13701   5.443   6.566   7.652  1.6680  0.5688 -0.2736
  128OSM   H11T13702   5.556   6.422   7.639  1.0447  1.3265  0.2536
  128OSM   C12S13703   5.427   6.398   7.796 -0.6926 -0.1114 -0.0098
  128OSM   H12S13704   5.410   6.288   7.791  0.2747 -0.4969  3.1112
  128OSM   H12T13705   5.326   6.439   7.818 -0.0137  0.9504  1.1998
  128OSM   C13S13706   5.527   6.438   7.901 -0.1869  0.4285  0.2474
  128OSM   H13S13707   5.534   6.547   7.917  0.7268  0.0485  3.0070
  128OSM   H13T13708   5.629   6.403   7.872 -0.3155  0.9567 -0.9021
  128OSM   C14S13709   5.499   6.393   8.042 -0.4549  0.3066  0.0342
  128OSM   H14S13710   5.508   6.283   8.056  2.1338  0.4870  0.3483
  128OSM   H14T13711   5.393   6.421   8.059 -1.7867 -2.8268 -2.1420
  128OSM   C15S13712   5.588   6.467   8.149  0.0354 -0.2909  0.6286
  128OSM   H15S13713   5.570   6.577   8.139 -1.4308 -0.5123  0.6275
  128OSM   H15T13714   5.697   6.451   8.142  0.7272  2.2240  3.5483
  128OSM   C16S13715   5.563   6.430   8.294 -0.1879 -0.0813  0.2150
  128OSM   H16S13716   5.657   6.455   8.348  2.9061 -0.1290 -4.6357
  128OSM   H16T13717   5.539   6.321   8.302 -0.9295  0.0735  0.1636
  128OSM   C17S13718   5.443   6.499   8.352  0.5641  0.2119  0.0096
  128OSM   H17S13719   5.377   6.537   8.270  0.6305  1.6133  0.5711
  128OSM   H17T13720   5.460   6.588   8.416  0.7727  0.0100  0.2330
  128OSM   C18S13721   5.348   6.400   8.418 -0.5221  0.0559 -0.3081
  128OSM   H18S13722   5.402   6.329   8.483 -0.4390 -1.6414 -2.1345
  128OSM   H18T13723   5.291   6.339   8.344 -0.8565 -0.7478  0.5986
  128OSM   H18U13724   5.273   6.451   8.482 -0.9912 -0.0616 -0.7518
  128OSM    C1F13725   5.425   6.804   6.788 -0.8392 -0.3029  0.4155
  128OSM     OF13726   5.312   6.828   6.744 -0.2096 -0.5255 -0.1435
  128OSM    C2F13727   5.488   6.906   6.881 -0.4700  0.1813 -0.0996
  128OSM    H2F13728   5.483   7.000   6.822  0.4586 -0.5018 -1.3243
  128OSM    H2G13729   5.592   6.875   6.904 -0.6135  0.5547  1.1069
  128OSM    C3F13730   5.413   6.920   7.007  0.4424  0.5637 -0.6102
  128OSM    H3F13731   5.422   6.819   7.050  0.9754  0.3512 -1.2135
  128OSM    H3G13732   5.304   6.942   6.995  0.2696  0.0601 -0.0341
  128OSM    C4F13733   5.468   7.032   7.098 -0.0538  0.2167  0.2768
  128OSM    H4F13734   5.455   7.127   7.041 -0.9392  1.2761  2.1618
  128OSM    H4G13735   5.577   7.015   7.110 -0.1816 -1.1109 -0.2783
  128OSM    C5F13736   5.403   7.044   7.233  0.2992 -0.5480  0.0148
  128OSM    H5F13737   5.416   6.948   7.288 -1.1191  0.0274  1.4730
  128OSM    H5G13738   5.296   7.061   7.206  0.0197 -0.8584  0.8906
  128OSM    C6F13739   5.451   7.147   7.326 -0.6550  0.1876 -0.6549
  128OSM    H6F13740   5.449   7.244   7.273 -3.9318 -0.8788 -2.8217
  128OSM    H6G13741   5.552   7.113   7.356 -0.6139 -1.3531 -2.3420
  128OSM    C7F13742   5.358   7.161   7.447 -0.0034 -0.3231  0.0148
  128OSM    H7F13743   5.334   7.062   7.492 -0.4460 -0.0465  0.3974
  128OSM    H7G13744   5.263   7.207   7.413  0.6642  3.2901  2.3885
  128OSM    C8F13745   5.401   7.272   7.545  0.9443  0.0397  0.2115
  128OSM    H8F13746   5.384   7.363   7.484  2.4006 -1.1214 -2.0730
  128OSM    H8G13747   5.508   7.268   7.577  0.7516 -1.2616  0.7259
  128OSM    C9F13748   5.302   7.271   7.662  0.0339 -0.0099 -0.5925
  128OSM    H9F13749   5.196   7.289   7.641 -1.0704 -1.8477  2.6812
  128OSM   C10F13750   5.340   7.256   7.795 -0.0290 -0.1423 -0.0401
  128OSM   H10F13751   5.265   7.274   7.874  0.0667  0.1959 -0.0220
  128OSM   C11F13752   5.475   7.226   7.845  0.3560  0.4843  0.0055
  128OSM   H11F13753   5.551   7.297   7.807  0.9263 -1.0323 -1.8653
  128OSM   H11G13754   5.496   7.119   7.821 -1.2239  0.3632 -1.0356
  128OSM   C12F13755   5.480   7.236   8.003  0.2217  0.5854 -0.5035
  128OSM   H12F13756   5.563   7.170   8.036  0.7349  0.6941 -1.5137
  128OSM   H12G13757   5.393   7.182   8.045 -0.0966  2.4870  1.4758
  128OSM   C13F13758   5.479   7.374   8.072  0.2191  0.4083  1.0735
  128OSM   H13F13759   5.382   7.423   8.046  1.2716  1.1302 -1.8222
  128OSM   H13G13760   5.553   7.438   8.021 -0.1206  1.1742  1.5174
  128OSM   C14F13761   5.485   7.358   8.224 -0.8810 -0.4509  0.1960
  128OSM   H14F13762   5.582   7.314   8.255  0.9249  2.3928 -0.9543
  128OSM   H14G13763   5.406   7.283   8.245  0.9333 -2.3129  0.6822
  128OSM   C15F13764   5.464   7.487   8.298 -0.1719  0.0760 -0.1993
  128OSM   H15F13765   5.361   7.526   8.279  0.1374  0.9117 -0.2080
  128OSM   H15G13766   5.534   7.563   8.256  1.2094 -1.2847 -0.4269
  128OSM   C16F13767   5.476   7.489   8.451  0.0438  0.0997  0.7323
  128OSM   H16F13768   5.510   7.588   8.488  0.2814  1.0875 -1.8763
  128OSM   H16G13769   5.572   7.440   8.478  0.7469  0.3414 -1.1252
  128OSM   C17F13770   5.359   7.418   8.526  0.3320  0.4496  0.7446
  128OSM   H17F13771   5.389   7.427   8.632 -0.2307  0.9128  0.8734
  128OSM   H17G13772   5.365   7.309   8.508 -2.6115  0.1218  1.2732
  128OSM   C18F13773   5.225   7.490   8.489 -0.2226 -0.5749 -0.1489
  128OSM   H18F13774   5.231   7.600   8.495 -0.1916 -0.6353  1.3703
  128OSM   H18G13775   5.148   7.452   8.560  0.4260 -1.2378  0.2237
  128OSM   H18H13776   5.204   7.455   8.386  1.5289  1.3433 -1.2211
  129OSM      N13777   4.274   3.107   6.247  1.1121 -0.5397  0.1368
  129OSM    C1513778   4.303   3.022   6.133  0.4808  0.5383  0.5749
  129OSM   H15A13779   4.217   2.988   6.077  0.4660  3.1913 -1.2070
  129OSM   H15B13780   4.356   2.939   6.177 -0.8226 -0.6504 -0.0224
  129OSM   H15C13781   4.370   3.065   6.060 -0.9910  1.3722 -0.3525
  129OSM    C1413782   4.400   3.154   6.315 -0.5177 -0.5928  0.5711
  129OSM   H14A13783   4.372   3.240   6.374  1.7500 -0.5515  1.6898
  129OSM   H14B13784   4.464   3.205   6.245 -0.2184 -1.9471 -0.1785
  129OSM   H14C13785   4.451   3.076   6.369 -0.2909 -0.4382  0.5790
  129OSM    C1313786   4.201   3.233   6.198  0.3137 -0.6643  0.1920
  129OSM   H13A13787   4.243   3.266   6.104 -0.3269  0.2127  0.2014
  129OSM   H13B13788   4.208   3.306   6.277  0.2159 -0.4626  0.0167
  129OSM   H13C13789   4.098   3.213   6.175  0.2259  1.2380 -1.2825
  129OSM    C1213790   4.169   3.034   6.339 -0.2401 -0.1146 -0.8130
  129OSM   H12A13791   4.082   3.005   6.280 -1.2256 -1.9800  1.3899
  129OSM   H12B13792   4.142   3.111   6.410 -0.9475  1.9507 -3.1673
  129OSM    C1113793   4.218   2.913   6.426  0.3260  0.3589  0.9784
  129OSM   H11A13794   4.147   2.889   6.507 -0.9225  1.9189  0.3949
  129OSM   H11B13795   4.311   2.942   6.479  0.6606  2.2246 -0.5176
  129OSM      P13796   4.133   2.708   6.274 -0.3016  0.2096 -0.4766
  129OSM    O1313797   4.034   2.800   6.208  0.0525  0.5876 -0.2042
  129OSM    O1413798   4.192   2.601   6.194  1.0769  0.1842  0.2940
  129OSM    O1113799   4.061   2.644   6.400 -0.1194  0.9728  0.4361
  129OSM    O1213800   4.244   2.793   6.348  0.1253 -0.4135 -0.1003
  129OSM    C1S13801   4.079   2.512   6.436  0.7422  0.6552 -0.4748
  129OSM    H1S13802   4.187   2.490   6.445  0.9518  1.4595 -0.8899
  129OSM    H1T13803   4.036   2.454   6.352  0.6114  1.3241 -0.8827
  129OSM     NF13804   4.034   2.334   6.602 -0.1911 -0.0117  0.1178
  129OSM    HNF13805   3.960   2.268   6.588  1.9655 -2.4131 -0.6256
  129OSM    C2S13806   4.010   2.474   6.573  0.1901 -0.4091  0.1615
  129OSM    H2S13807   4.053   2.529   6.659 -0.2731 -0.0235  0.1502
  129OSM    C3S13808   3.860   2.514   6.571 -0.5904 -0.5299  0.8374
  129OSM    H3S13809   3.805   2.468   6.486 -0.4509 -1.5800  1.3110
  129OSM     O313810   3.837   2.661   6.556 -0.1603  0.0539  0.0167
  129OSM    HO313811   3.922   2.692   6.524  0.2756 -0.3876  0.7268
  129OSM    C4S13812   3.792   2.478   6.696 -0.4618 -0.4680 -0.2163
  129OSM    H4S13813   3.813   2.547   6.779 -0.4086  0.2414 -0.8170
  129OSM    C5S13814   3.705   2.376   6.701  0.6410  0.2380  0.0078
  129OSM    H5S13815   3.678   2.316   6.613  3.9648 -0.9002 -0.3876
  129OSM    C6S13816   3.630   2.347   6.830 -0.4886  0.7155  0.0498
  129OSM    H6S13817   3.661   2.243   6.853  0.2170  0.8637 -0.2066
  129OSM    H6T13818   3.521   2.333   6.815 -0.1460 -0.6085 -1.4289
  129OSM    C7S13819   3.646   2.427   6.964 -0.0806 -0.3390 -0.3429
  129OSM    H7S13820   3.558   2.401   7.026  0.6345 -2.8382 -0.2772
  129OSM    H7T13821   3.641   2.534   6.932  1.4937 -0.3570 -0.7587
  129OSM    C8S13822   3.772   2.393   7.044 -0.7375  0.3517  0.2077
  129OSM    H8S13823   3.856   2.413   6.975 -0.0456 -1.2452  0.5420
  129OSM    H8T13824   3.771   2.286   7.072 -1.7784 -0.2253 -1.8446
  129OSM    C9S13825   3.777   2.476   7.168 -0.3588 -0.0882  0.8377
  129OSM    H9S13826   3.672   2.480   7.204  0.2105 -2.0481  2.9441
  129OSM    H9T13827   3.798   2.580   7.135  0.3138 -0.8038 -1.1345
  129OSM   C10S13828   3.884   2.422   7.261  0.2553  0.2307 -0.2701
  129OSM   H10S13829   3.905   2.511   7.324  1.4915  0.8085 -1.4577
  129OSM   H10T13830   3.979   2.400   7.209  1.6107 -0.0427  2.1555
  129OSM   C11S13831   3.850   2.307   7.352 -0.4797  0.1500 -0.2783
  129OSM   H11S13832   3.823   2.214   7.297 -0.8374  0.8289 -1.2646
  129OSM   H11T13833   3.763   2.331   7.417 -0.5511 -0.5317 -0.1096
  129OSM   C12S13834   3.965   2.285   7.452 -0.0087 -0.3536  0.0130
  129OSM   H12S13835   4.062   2.320   7.411  0.2447 -1.1352 -0.0629
  129OSM   H12T13836   3.984   2.177   7.469  2.6624  0.0693  0.1326
  129OSM   C13S13837   3.933   2.358   7.582  0.3845  0.2319 -0.3562
  129OSM   H13S13838   3.866   2.295   7.645  0.8488  1.1719  1.1422
  129OSM   H13T13839   3.866   2.443   7.557  0.3778  0.3455  0.0419
  129OSM   C14S13840   4.059   2.409   7.652  0.0413 -0.3805 -0.3636
  129OSM   H14S13841   4.092   2.486   7.579 -3.6109 -0.1991 -2.0387
  129OSM   H14T13842   4.140   2.332   7.653  1.3626  0.9575  0.6025
  129OSM   C15S13843   4.056   2.473   7.796 -0.1397 -0.2687  0.3745
  129OSM   H15S13844   4.004   2.571   7.791 -0.9669 -0.5193  2.7626
  129OSM   H15T13845   4.163   2.491   7.819  0.0256 -0.8358  0.0723
  129OSM   C16S13846   3.992   2.397   7.914 -0.5466  1.1244  0.0957
  129OSM   H16S13847   4.009   2.288   7.901 -0.1756  1.0908  0.8668
  129OSM   H16T13848   3.881   2.408   7.913 -0.5044  1.6170 -1.0752
  129OSM   C17S13849   4.047   2.453   8.046  0.3380 -0.1448 -0.2201
  129OSM   H17S13850   4.005   2.556   8.042  1.4479  0.3973  1.2487
  129OSM   H17T13851   4.158   2.456   8.040  0.2880 -0.0795 -1.2802
  129OSM   C18S13852   3.998   2.378   8.170 -0.4548 -0.3613  0.0650
  129OSM   H18S13853   3.887   2.377   8.182 -0.3905  1.1893  1.0704
  129OSM   H18T13854   4.040   2.423   8.263 -1.3184  3.2421 -1.1222
  129OSM   H18U13855   4.029   2.272   8.162 -1.7354 -0.9253  1.7816
  129OSM    C1F13856   4.152   2.308   6.655 -0.1895 -0.3791 -0.2663
  129OSM     OF13857   4.246   2.389   6.661 -0.2416 -0.2456 -0.0454
  129OSM    C2F13858   4.174   2.167   6.710  0.1526 -0.0513 -0.7909
  129OSM    H2F13859   4.239   2.103   6.646  0.7738  0.0685 -0.2989
  129OSM    H2G13860   4.072   2.123   6.710 -0.4508  1.2918 -0.5896
  129OSM    C3F13861   4.228   2.165   6.858 -0.2775  0.3422  0.0458
  129OSM    H3F13862   4.319   2.228   6.868  1.8093 -2.6834  1.5429
  129OSM    H3G13863   4.247   2.058   6.879 -0.1586  0.2931 -0.3073
  129OSM    C4F13864   4.119   2.210   6.956  0.1962  0.2246 -0.5662
  129OSM    H4F13865   4.035   2.142   6.933  0.3394 -0.8299  1.6697
  129OSM    H4G13866   4.078   2.310   6.927 -0.6080 -0.3410 -1.4237
  129OSM    C5F13867   4.175   2.194   7.098  0.4656  0.1400  0.1736
  129OSM    H5F13868   4.105   2.228   7.177  0.4928 -0.2085  0.3517
  129OSM    H5G13869   4.263   2.261   7.095  1.0278 -0.6127 -0.6341
  129OSM    C6F13870   4.229   2.055   7.142 -0.0787  0.6080  0.2697
  129OSM    H6F13871   4.282   1.994   7.066 -1.3556 -1.9598  1.3232
  129OSM    H6G13872   4.143   1.993   7.176  1.4327 -2.9369 -1.8137
  129OSM    C7F13873   4.341   2.071   7.248  0.1323  0.0633  0.4788
  129OSM    H7F13874   4.291   2.111   7.339 -0.4688 -1.2943  0.7726
  129OSM    H7G13875   4.418   2.140   7.206  0.4454  2.0128  3.8633
  129OSM    C8F13876   4.406   1.930   7.273  0.8214  0.4119  0.2706
  129OSM    H8F13877   4.461   1.900   7.182  0.5361  0.7158 -0.0091
  129OSM    H8G13878   4.318   1.862   7.285 -0.0288  1.5288  0.6053
  129OSM    C9F13879   4.498   1.933   7.387  0.8265 -0.7170  0.5620
  129OSM    H9F13880   4.517   2.033   7.427  0.8575 -0.3561 -0.3496
  129OSM   C10F13881   4.555   1.828   7.443  0.0664  1.0367  0.5375
  129OSM   H10F13882   4.622   1.832   7.530 -2.0541 -1.7138  2.4890
  129OSM   C11F13883   4.543   1.686   7.390  0.1403  0.1284  0.6068
  129OSM   H11F13884   4.518   1.677   7.282  1.1171  0.9987  0.2914
  129OSM   H11G13885   4.455   1.653   7.449  0.0008  0.3734  0.5360
  129OSM   C12F13886   4.658   1.593   7.418  0.1506 -0.2827  0.3532
  129OSM   H12F13887   4.622   1.489   7.408  0.6151 -0.2119 -3.3142
  129OSM   H12G13888   4.689   1.608   7.524 -1.3841  4.9809  0.3601
  129OSM   C13F13889   4.784   1.604   7.326  0.2275 -0.4697 -0.1762
  129OSM   H13F13890   4.850   1.679   7.374  0.3263  1.4276 -3.0066
  129OSM   H13G13891   4.748   1.639   7.227 -0.4478 -2.1376 -0.5650
  129OSM   C14F13892   4.861   1.469   7.309 -0.2495  0.1735 -0.0222
  129OSM   H14F13893   4.787   1.392   7.279  3.2929 -2.5322 -2.6827
  129OSM   H14G13894   4.897   1.443   7.411 -1.3588 -0.8628  0.1240
  129OSM   C15F13895   4.975   1.459   7.198  0.7178 -0.1364  0.6657
  129OSM   H15F13896   5.021   1.358   7.188  0.9118  0.0758 -0.7989
  129OSM   H15G13897   5.063   1.521   7.225  0.8445  1.7089 -3.2863
  129OSM   C16F13898   4.925   1.507   7.057 -0.6816 -0.9085  0.3065
  129OSM   H16F13899   4.902   1.615   7.061  0.7172 -0.5415 -0.8055
  129OSM   H16G13900   4.833   1.449   7.036  0.3010 -2.4306  0.0099
  129OSM   C17F13901   5.022   1.479   6.946 -0.0166 -1.1560 -0.3873
  129OSM   H17F13902   5.119   1.517   6.982 -0.9525  0.4263  0.6026
  129OSM   H17G13903   4.997   1.542   6.858 -0.9166  1.0334  1.3608
  129OSM   C18F13904   5.039   1.336   6.911  0.2450 -0.4263  0.4808
  129OSM   H18F13905   5.088   1.272   6.987 -0.5987 -0.6805  0.8174
  129OSM   H18G13906   5.102   1.320   6.820 -0.0260 -0.7731  0.3520
  129OSM   H18H13907   4.940   1.299   6.876  0.7541 -0.2051 -1.3271
  130OSM      N13908   4.256   6.239   6.105  0.2537 -0.2561  0.0294
  130OSM    C1513909   4.207   6.226   5.964  0.0532 -0.5850  0.8528
  130OSM   H15A13910   4.278   6.269   5.894 -0.4495 -2.1871 -0.7025
  130OSM   H15B13911   4.117   6.278   5.932  0.6177 -1.0569 -1.7675
  130OSM   H15C13912   4.200   6.122   5.938  0.6941 -0.0932 -1.5395
  130OSM    C1413913   4.150   6.164   6.185  0.4362  0.2755  0.0274
  130OSM   H14A13914   4.170   6.168   6.291 -1.6317  0.9400  0.4504
  130OSM   H14B13915   4.151   6.059   6.160 -0.8042  0.5318 -1.2555
  130OSM   H14C13916   4.053   6.207   6.168  1.5668  3.3555  0.6792
  130OSM    C1313917   4.379   6.164   6.113 -0.2265 -0.4197  0.4495
  130OSM   H13A13918   4.410   6.158   6.216  1.1250 -0.7844  0.0380
  130OSM   H13B13919   4.467   6.205   6.066 -0.8092 -0.8161 -1.0386
  130OSM   H13C13920   4.367   6.063   6.077  2.0203 -0.1757 -1.1580
  130OSM    C1213921   4.272   6.383   6.152 -0.4850  0.4183 -0.0343
  130OSM   H12A13922   4.175   6.429   6.139  0.5366  2.8753  0.4679
  130OSM   H12B13923   4.332   6.449   6.091 -0.5905  1.5118  1.0076
  130OSM    C1113924   4.321   6.407   6.301  0.6628 -0.1129  0.2561
  130OSM   H11A13925   4.247   6.362   6.372  1.5566 -0.7300  0.8303
  130OSM   H11B13926   4.297   6.515   6.314 -0.4427 -0.2736 -0.2802
  130OSM      P13927   4.574   6.436   6.248  0.1681  0.0748 -0.1607
  130OSM    O1313928   4.618   6.347   6.135 -0.0147 -0.6085  0.0136
  130OSM    O1413929   4.533   6.573   6.219  0.1702  0.3067 -0.5176
  130OSM    O1113930   4.701   6.429   6.347  0.1208 -0.0328 -0.4386
  130OSM    O1213931   4.453   6.368   6.327  0.0228 -0.2854 -0.3472
  130OSM    C1S13932   4.702   6.541   6.454  0.2962  0.8771 -0.0063
  130OSM    H1S13933   4.639   6.628   6.425  1.9116  1.6197 -1.4752
  130OSM    H1T13934   4.804   6.582   6.468  0.1076  1.0164  1.0390
  130OSM     NF13935   4.650   6.587   6.689  0.0712 -0.3339  0.3545
  130OSM    HNF13936   4.722   6.598   6.757 -1.2999  2.0652  1.5507
  130OSM    C2S13937   4.642   6.481   6.588 -0.5550 -0.1154  0.1269
  130OSM    H2S13938   4.538   6.457   6.558 -0.2756  1.7899 -2.7189
  130OSM    C3S13939   4.713   6.360   6.628  1.2543  0.4295 -0.3878
  130OSM    H3S13940   4.818   6.389   6.651  1.9226 -1.7529 -0.4505
  130OSM     O313941   4.714   6.245   6.534  0.0516  0.2070 -0.7427
  130OSM    HO313942   4.683   6.289   6.455 -2.9744  0.4914  0.4838
  130OSM    C4S13943   4.661   6.298   6.755  0.1418 -0.9687 -0.0270
  130OSM    H4S13944   4.561   6.254   6.752 -1.3098  2.1217 -0.4850
  130OSM    C5S13945   4.730   6.312   6.870  0.7207  0.1462  0.2967
  130OSM    H5S13946   4.826   6.366   6.866 -0.0280  1.4277 -1.9522
  130OSM    C6S13947   4.695   6.255   7.004  0.7977 -0.4299 -0.3242
  130OSM    H6S13948   4.589   6.222   7.007  0.7605 -0.2832  0.2748
  130OSM    H6T13949   4.703   6.338   7.078 -0.9791 -0.1433 -0.3960
  130OSM    C7S13950   4.790   6.136   7.039  0.4173 -0.1127  0.1824
  130OSM    H7S13951   4.889   6.163   6.996  0.1259 -2.3112 -2.0396
  130OSM    H7T13952   4.762   6.046   6.982 -2.4386  0.6508  0.2568
  130OSM    C8S13953   4.802   6.115   7.187 -1.1416 -0.3494  0.2996
  130OSM    H8S13954   4.824   6.213   7.234  0.0188 -0.4023 -0.1042
  130OSM    H8T13955   4.878   6.036   7.206 -0.0895  1.0483  2.1875
  130OSM    C9S13956   4.675   6.064   7.241  0.0493  0.3746 -0.1514
  130OSM    H9S13957   4.646   5.978   7.177  0.2291  1.5450 -1.8727
  130OSM    H9T13958   4.597   6.141   7.220 -1.5691 -0.4403  2.3648
  130OSM   C10S13959   4.683   6.049   7.392  0.2489  0.4648 -0.5087
  130OSM   H10S13960   4.773   5.989   7.416  0.3272  0.7683 -0.0346
  130OSM   H10T13961   4.591   5.995   7.424 -0.7667  1.3869 -1.7766
  130OSM   C11S13962   4.690   6.184   7.471  0.1050  0.0451  0.1355
  130OSM   H11S13963   4.623   6.257   7.421  0.6260  1.7684  1.7860
  130OSM   H11T13964   4.797   6.215   7.465  0.3879 -1.0846 -0.9996
  130OSM   C12S13965   4.646   6.178   7.616 -0.2588 -0.8380 -0.5902
  130OSM   H12S13966   4.677   6.080   7.659  0.0466 -1.0203 -1.2121
  130OSM   H12T13967   4.535   6.177   7.610 -0.3393 -0.0694  0.5530
  130OSM   C13S13968   4.684   6.300   7.699 -0.1476 -0.5525 -0.6224
  130OSM   H13S13969   4.670   6.395   7.644 -0.3180 -0.7940 -1.0054
  130OSM   H13T13970   4.795   6.294   7.703 -0.0010  1.3511 -1.1972
  130OSM   C14S13971   4.624   6.314   7.835  0.2386 -0.1753  0.0405
  130OSM   H14S13972   4.649   6.221   7.891  0.2663 -0.0588  0.2225
  130OSM   H14T13973   4.514   6.325   7.827  0.0204 -1.7835  0.4359
  130OSM   C15S13974   4.679   6.438   7.902 -0.7391 -0.6651 -0.0508
  130OSM   H15S13975   4.666   6.528   7.838  1.8515 -1.3226 -1.6757
  130OSM   H15T13976   4.787   6.428   7.926 -0.7755 -0.9697 -0.0185
  130OSM   C16S13977   4.616   6.459   8.040  0.1694 -0.6485  0.4425
  130OSM   H16S13978   4.621   6.363   8.095 -3.1595 -1.9577 -1.2807
  130OSM   H16T13979   4.508   6.465   8.017  0.3139 -3.4076 -1.4967
  130OSM   C17S13980   4.682   6.564   8.130  0.3887 -0.8777  0.3432
  130OSM   H17S13981   4.790   6.542   8.140  0.5087  0.3914  2.5925
  130OSM   H17T13982   4.643   6.568   8.234 -0.0659  3.4269  0.1673
  130OSM   C18S13983   4.652   6.699   8.070 -0.2706 -0.2299 -0.2734
  130OSM   H18S13984   4.713   6.775   8.123 -2.1222  0.3990  1.0456
  130OSM   H18T13985   4.548   6.740   8.060 -0.4897 -0.3801  1.2676
  130OSM   H18U13986   4.681   6.705   7.963 -2.0283  1.5735 -0.7140
  130OSM    C1F13987   4.578   6.698   6.682  0.2058 -0.1048 -0.1352
  130OSM     OF13988   4.487   6.711   6.606 -0.4404  0.2600  0.2934
  130OSM    C2F13989   4.622   6.815   6.761 -0.5088 -0.7965 -0.9909
  130OSM    H2F13990   4.693   6.880   6.704 -0.7528 -0.6610 -1.1409
  130OSM    H2G13991   4.684   6.780   6.847  1.1529  1.1481 -1.2931
  130OSM    C3F13992   4.491   6.886   6.829 -0.4454  0.4993  0.0244
  130OSM    H3F13993   4.448   6.808   6.896  0.1512 -0.0420 -0.2047
  130OSM    H3G13994   4.415   6.908   6.751  0.1805 -1.0458 -1.0979
  130OSM    C4F13995   4.532   7.020   6.890  0.1462 -0.2516  0.0827
  130OSM    H4F13996   4.586   7.082   6.814 -0.2398 -2.7075 -2.3709
  130OSM    H4G13997   4.606   7.002   6.971  1.2361 -1.7030 -1.1527
  130OSM    C5F13998   4.420   7.097   6.958 -0.4492 -0.3178  1.5190
  130OSM    H5F13999   4.335   7.026   6.971 -1.6711  0.4464 -1.3494
  130OSM    H5G14000   4.400   7.165   6.872 -0.0037  0.1888  1.8130
  130OSM    C6F14001   4.454   7.168   7.085 -0.1590  0.1466  0.3643
  130OSM    H6F14002   4.377   7.246   7.100 -0.4830 -0.2535  0.8224
  130OSM    H6G14003   4.544   7.233   7.089 -2.5667  3.7688  0.4009
  130OSM    C7F14004   4.451   7.077   7.209 -0.3777  0.0993  1.1453
  130OSM    H7F14005   4.507   6.983   7.190 -0.1780  0.8435 -2.7670
  130OSM    H7G14006   4.343   7.053   7.215 -0.1926 -0.6804  1.5975
  130OSM    C8F14007   4.494   7.151   7.336  1.3691  0.0105  0.3937
  130OSM    H8F14008   4.436   7.093   7.412  1.2445 -1.1510 -0.5689
  130OSM    H8G14009   4.451   7.254   7.342 -1.4877 -0.7579 -3.1294
  130OSM    C9F14010   4.642   7.148   7.372  0.1597 -0.2208  0.5725
  130OSM    H9F14011   4.700   7.198   7.293 -2.0411  2.0953  0.2896
  130OSM   C10F14012   4.704   7.109   7.479 -0.3523  0.1396 -0.4709
  130OSM   H10F14013   4.814   7.119   7.477 -0.1383 -1.5427  0.5334
  130OSM   C11F14014   4.642   7.047   7.598  0.0258  0.7987 -0.0253
  130OSM   H11F14015   4.675   6.941   7.600 -1.8764  0.1803  2.3621
  130OSM   H11G14016   4.533   7.028   7.586  0.3232 -3.1012  2.0081
  130OSM   C12F14017   4.681   7.108   7.730  0.2289  0.0202  0.3573
  130OSM   H12F14018   4.669   7.218   7.738 -2.7130 -0.2770  0.8471
  130OSM   H12G14019   4.790   7.086   7.736 -0.0168 -0.8204  3.6904
  130OSM   C13F14020   4.614   7.047   7.847  0.5083  0.9083 -0.0358
  130OSM   H13F14021   4.629   6.937   7.845 -0.3671  0.7955 -1.2821
  130OSM   H13G14022   4.509   7.071   7.821  0.7068 -1.0488 -3.1115
  130OSM   C14F14023   4.662   7.112   7.976  0.6645  0.1296  0.0037
  130OSM   H14F14024   4.597   7.078   8.059  2.2925 -0.2794  1.1579
  130OSM   H14G14025   4.654   7.222   7.969  1.3019  0.0931 -1.9682
  130OSM   C15F14026   4.807   7.084   8.005  0.2985 -0.8017  0.1232
  130OSM   H15F14027   4.874   7.130   7.929 -1.3578 -0.3491 -1.1128
  130OSM   H15G14028   4.829   6.975   8.008 -0.4696 -0.9416  2.7600
  130OSM   C16F14029   4.850   7.138   8.147  0.0488  0.1621  0.2066
  130OSM   H16F14030   4.806   7.240   8.148 -0.3939  0.0323 -2.0499
  130OSM   H16G14031   4.959   7.158   8.156  0.3494  0.2641 -2.6466
  130OSM   C17F14032   4.797   7.051   8.263 -0.1587 -0.4544 -0.3763
  130OSM   H17F14033   4.860   6.960   8.276  0.7602 -0.3197 -3.1455
  130OSM   H17G14034   4.695   7.017   8.233  0.6224 -1.8117 -1.6305
  130OSM   C18F14035   4.791   7.127   8.397 -0.3756 -0.5402  0.3890
  130OSM   H18F14036   4.898   7.142   8.425 -0.8162  3.5708  0.5379
  130OSM   H18G14037   4.738   7.058   8.465 -1.9515 -0.3775 -0.6372
  130OSM   H18H14038   4.735   7.223   8.401  1.9398  0.8612  1.8235
  131OSM      N14039   4.483   3.720   5.667 -0.1072 -0.4811 -0.1324
  131OSM    C1514040   4.526   3.815   5.557 -0.2416  0.2981  0.4469
  131OSM   H15A14041   4.618   3.868   5.576  0.6686 -0.5540 -1.3190
  131OSM   H15B14042   4.456   3.896   5.545  2.0725  2.3965  0.3139
  131OSM   H15C14043   4.543   3.768   5.462  1.3789  0.3472  0.6755
  131OSM    C1414044   4.346   3.678   5.641 -0.0162  0.0754  0.7971
  131OSM   H14A14045   4.335   3.641   5.541 -1.5135  0.6182  0.7376
  131OSM   H14B14046   4.278   3.761   5.655  0.6277  0.4197  2.0171
  131OSM   H14C14047   4.318   3.597   5.707  1.2411 -2.1527 -1.2428
  131OSM    C1314048   4.571   3.594   5.661 -0.0814  0.2129  0.0225
  131OSM   H13A14049   4.541   3.513   5.726  1.8571 -0.8629 -0.3741
  131OSM   H13B14050   4.672   3.614   5.695 -0.2117 -0.5874  0.9308
  131OSM   H13C14051   4.582   3.553   5.562  2.7691  1.4528 -0.2649
  131OSM    C1214052   4.502   3.794   5.802 -0.2262 -1.0755  0.3925
  131OSM   H12A14053   4.443   3.883   5.817 -0.5454 -0.8996 -1.6283
  131OSM   H12B14054   4.607   3.817   5.812 -0.5657  0.4058  0.6772
  131OSM    C1114055   4.485   3.711   5.927 -0.5116 -0.0549 -0.6958
  131OSM   H11A14056   4.384   3.666   5.935 -0.2872 -0.4867 -0.2063
  131OSM   H11B14057   4.500   3.779   6.014  2.0692 -0.1930 -0.9377
  131OSM      P14058   4.579   3.530   6.096 -0.0118  0.0903 -0.3708
  131OSM    O1314059   4.449   3.473   6.134 -0.2522  0.2455 -0.0044
  131OSM    O1414060   4.696   3.436   6.101 -0.1158 -0.2610  0.3651
  131OSM    O1114061   4.607   3.651   6.199 -0.3507  0.0312 -0.1758
  131OSM    O1214062   4.580   3.606   5.947  0.4099 -0.5278 -1.0612
  131OSM    C1S14063   4.585   3.633   6.337  0.0025  0.3304 -0.5087
  131OSM    H1S14064   4.592   3.524   6.359  1.5449  0.1876 -1.5240
  131OSM    H1T14065   4.487   3.671   6.373  0.1355  1.2108 -1.0527
  131OSM     NF14066   4.644   3.699   6.565 -0.7671 -0.1565  0.7301
  131OSM    HNF14067   4.588   3.777   6.590  0.5751  0.9163  0.5073
  131OSM    C2S14068   4.685   3.708   6.425 -1.0429  0.2122  0.3359
  131OSM    H2S14069   4.783   3.657   6.412 -1.4134 -0.3028 -0.5716
  131OSM    C3S14070   4.711   3.855   6.377 -0.5031 -0.4769 -0.4622
  131OSM    H3S14071   4.618   3.915   6.383 -1.5501 -2.0975  0.2747
  131OSM     O314072   4.746   3.872   6.244 -0.2184 -0.1249  0.4663
  131OSM    HO314073   4.734   3.781   6.215  1.8212 -0.4131  0.4210
  131OSM    C4S14074   4.818   3.914   6.466  0.0143  0.1336 -0.4546
  131OSM    H4S14075   4.774   3.943   6.563  2.7717 -1.1403  1.3038
  131OSM    C5S14076   4.952   3.925   6.447  0.0635 -0.2804  0.3030
  131OSM    H5S14077   4.988   3.871   6.358  0.6201  0.2462  0.1976
  131OSM    C6S14078   5.055   3.982   6.535 -0.1978  0.4409  0.5690
  131OSM    H6S14079   5.013   4.057   6.606  1.3242  0.4864  1.4635
  131OSM    H6T14080   5.126   4.050   6.483  1.9721 -0.6739  1.9300
  131OSM    C7S14081   5.134   3.881   6.616  0.5053  0.1116  0.2240
  131OSM    H7S14082   5.196   3.948   6.679  3.0166 -1.1717 -0.7533
  131OSM    H7T14083   5.193   3.815   6.548  1.3404 -1.0542  2.0042
  131OSM    C8S14084   5.043   3.799   6.709  0.6676  0.1894 -0.1030
  131OSM    H8S14085   4.975   3.743   6.641  0.2572  1.0814 -0.4484
  131OSM    H8T14086   4.975   3.855   6.777 -0.8796 -0.5700 -0.9755
  131OSM    C9S14087   5.123   3.695   6.787 -0.0277  0.2406 -0.1011
  131OSM    H9S14088   5.189   3.738   6.865 -0.9339 -0.7133  1.2256
  131OSM    H9T14089   5.189   3.652   6.708 -0.6656 -0.7811 -0.1047
  131OSM   C10S14090   5.039   3.587   6.848 -0.5318  0.5809 -0.1889
  131OSM   H10S14091   4.962   3.546   6.780 -0.6817 -1.2978  1.0333
  131OSM   H10T14092   4.985   3.628   6.936 -2.3098 -0.4769 -0.7388
  131OSM   C11S14093   5.127   3.472   6.898  0.0320  0.0020  0.0016
  131OSM   H11S14094   5.201   3.450   6.818  0.1546  2.2859 -0.5825
  131OSM   H11T14095   5.074   3.375   6.914  3.3003 -1.9301  0.0244
  131OSM   C12S14096   5.193   3.498   7.027 -0.0807 -0.8666 -0.2246
  131OSM   H12S14097   5.267   3.581   7.018 -0.6701 -0.5589 -2.7222
  131OSM   H12T14098   5.244   3.401   7.049  1.5145 -0.2783 -1.1497
  131OSM   C13S14099   5.117   3.519   7.161 -0.7389  0.0024 -0.0143
  131OSM   H13S14100   5.035   3.444   7.165 -1.4304  0.6995 -0.9215
  131OSM   H13T14101   5.067   3.617   7.150 -0.0836  0.1823 -1.5271
  131OSM   C14S14102   5.211   3.510   7.289  0.3219 -0.0550 -0.0052
  131OSM   H14S14103   5.277   3.599   7.278  1.2257 -0.6918  0.2347
  131OSM   H14T14104   5.276   3.421   7.286 -0.6608 -0.7612 -1.2661
  131OSM   C15S14105   5.125   3.503   7.411  0.0951 -0.0480  0.4680
  131OSM   H15S14106   5.059   3.415   7.403 -0.9041  0.6795  0.5083
  131OSM   H15T14107   5.063   3.596   7.416  0.0315 -0.1403  1.8145
  131OSM   C16S14108   5.188   3.498   7.554 -0.1286 -0.9904 -0.3700
  131OSM   H16S14109   5.114   3.463   7.630 -0.8225 -0.2772 -0.7030
  131OSM   H16T14110   5.219   3.602   7.576  1.3866 -1.6023  0.5021
  131OSM   C17S14111   5.305   3.409   7.568  0.4324 -0.3061 -0.0191
  131OSM   H17S14112   5.390   3.459   7.517  0.2465 -0.2424 -0.2693
  131OSM   H17T14113   5.289   3.305   7.532  0.8251 -0.2207 -0.4521
  131OSM   C18S14114   5.350   3.401   7.716  0.0807  0.2406  0.6088
  131OSM   H18S14115   5.449   3.351   7.724  0.6460  1.3589  0.8179
  131OSM   H18T14116   5.273   3.359   7.784  0.8733  0.0198  1.4024
  131OSM   H18U14117   5.355   3.506   7.751 -0.1151  0.6881 -0.6600
  131OSM    C1F14118   4.652   3.585   6.635 -0.0584  0.6224 -0.0385
  131OSM     OF14119   4.712   3.482   6.593  0.0971 -0.2797 -0.2092
  131OSM    C2F14120   4.583   3.586   6.763  0.4200  0.2278 -0.6132
  131OSM    H2F14121   4.548   3.483   6.781  1.2388  0.1211  0.4654
  131OSM    H2G14122   4.495   3.654   6.767 -1.3765 -2.0320  0.3023
  131OSM    C3F14123   4.688   3.641   6.874  1.3059 -0.3797  0.2631
  131OSM    H3F14124   4.716   3.744   6.843 -0.8644 -0.4977 -2.4578
  131OSM    H3G14125   4.777   3.575   6.866  0.9082 -0.8303 -0.5410
  131OSM    C4F14126   4.624   3.628   7.011  0.0148 -1.0958  0.3487
  131OSM    H4F14127   4.563   3.536   7.016  0.4137 -1.3151  1.4834
  131OSM    H4G14128   4.547   3.709   7.008  0.7208 -0.4248 -0.4397
  131OSM    C5F14129   4.726   3.656   7.128  0.4768  0.2691  0.5555
  131OSM    H5F14130   4.786   3.746   7.103  1.0293 -0.6445 -1.6587
  131OSM    H5G14131   4.792   3.568   7.142  0.8642 -0.0378 -2.4534
  131OSM    C6F14132   4.646   3.692   7.259 -0.1879  0.0112  0.2756
  131OSM    H6F14133   4.567   3.619   7.288 -0.3246  0.5010  1.1823
  131OSM    H6G14134   4.585   3.782   7.234  0.1575 -0.4284 -2.5207
  131OSM    C7F14135   4.749   3.728   7.367  0.3762  0.3599 -0.4349
  131OSM    H7F14136   4.832   3.781   7.316  0.1534 -0.3087 -1.5194
  131OSM    H7G14137   4.776   3.637   7.425 -0.9244  1.0350  1.3218
  131OSM    C8F14138   4.696   3.822   7.479  0.8206  0.2727 -0.7870
  131OSM    H8F14139   4.648   3.912   7.434  1.3550  1.5867  1.1027
  131OSM    H8G14140   4.776   3.868   7.541  0.9849  2.4823 -2.5344
  131OSM    C9F14141   4.589   3.760   7.567  0.2638 -0.1888  0.3418
  131OSM    H9F14142   4.494   3.734   7.518  1.2749 -2.0484 -0.7073
  131OSM   C10F14143   4.600   3.724   7.694 -0.5842  0.0913  0.3122
  131OSM   H10F14144   4.512   3.676   7.738 -0.9315 -0.6951 -1.1605
  131OSM   C11F14145   4.729   3.733   7.781  0.0222 -0.7225  0.3544
  131OSM   H11F14146   4.688   3.770   7.877 -0.4015 -1.5409  0.4955
  131OSM   H11G14147   4.806   3.805   7.744 -2.0427  0.4923 -1.8202
  131OSM   C12F14148   4.805   3.604   7.793  0.5871  0.4559 -0.0901
  131OSM   H12F14149   4.847   3.572   7.695  0.9118 -4.1711  1.3412
  131OSM   H12G14150   4.730   3.530   7.827 -1.2218  2.1269 -0.2488
  131OSM   C13F14151   4.915   3.611   7.892  0.7763  0.3696  0.5270
  131OSM   H13F14152   4.870   3.637   7.990  0.6599 -1.3836  0.9686
  131OSM   H13G14153   4.985   3.690   7.856  2.7272 -0.9181  1.3041
  131OSM   C14F14154   4.991   3.475   7.917 -0.6491 -0.5150  0.1194
  131OSM   H14F14155   5.013   3.421   7.822 -1.4002 -0.2893 -0.1859
  131OSM   H14G14156   4.926   3.409   7.978 -1.8317 -0.4501 -1.0311
  131OSM   C15F14157   5.116   3.497   8.000  0.3291 -0.0709 -0.5313
  131OSM   H15F14158   5.183   3.577   7.962  0.0258 -0.5915 -2.2401
  131OSM   H15G14159   5.174   3.403   8.006 -0.0516 -0.4026 -1.7744
  131OSM   C16F14160   5.086   3.526   8.147  0.7094  0.1061  0.5134
  131OSM   H16F14161   5.030   3.443   8.194 -1.4383  0.4063 -1.3177
  131OSM   H16G14162   5.028   3.621   8.155 -0.1669 -0.1677 -1.8724
  131OSM   C17F14163   5.215   3.544   8.237 -0.2715 -0.3548  0.6078
  131OSM   H17F14164   5.267   3.637   8.204 -1.8186 -0.1164 -1.3708
  131OSM   H17G14165   5.275   3.453   8.218  0.2531 -0.1511  1.2525
  131OSM   C18F14166   5.182   3.559   8.385  0.1339 -0.2071  0.1866
  131OSM   H18F14167   5.118   3.646   8.410  2.7064  1.5874  0.9262
  131OSM   H18G14168   5.273   3.559   8.448  0.6211 -1.1559 -0.4981
  131OSM   H18H14169   5.126   3.470   8.422 -2.2114  2.1582  2.7529
  132OSM      N14170   0.365   0.579   5.886 -0.5570 -0.4215 -0.0104
  132OSM    C1514171   0.461   0.605   5.775 -0.1333 -0.8866  0.1993
  132OSM   H15A14172   0.562   0.572   5.797  0.9806  2.1213  0.0763
  132OSM   H15B14173   0.468   0.709   5.745  1.8152 -1.3275 -1.0800
  132OSM   H15C14174   0.421   0.559   5.686 -1.9342 -0.6634  0.8374
  132OSM    C1414175   0.241   0.646   5.856  0.4011  1.0273  0.0331
  132OSM   H14A14176   0.255   0.750   5.830  2.5592  0.8736  0.3680
  132OSM   H14B14177   0.181   0.639   5.945 -2.3267  0.0076 -1.7618
  132OSM   H14C14178   0.179   0.609   5.776 -3.5798  0.5188  3.0468
  132OSM    C1314179   0.339   0.433   5.890  0.5534 -0.0900 -0.5380
  132OSM   H13A14180   0.434   0.382   5.891  0.9790  0.6564  0.8933
  132OSM   H13B14181   0.276   0.390   5.813  0.9179  0.3797 -1.1029
  132OSM   H13C14182   0.293   0.399   5.982 -0.9564 -1.0834 -1.6075
  132OSM    C1214183   0.423   0.630   6.016 -0.1040  0.4067  0.3876
  132OSM   H12A14184   0.435   0.737   6.014 -0.1272  0.5282  3.0382
  132OSM   H12B14185   0.519   0.580   6.022  0.3446  1.3226  1.0325
  132OSM    C1114186   0.345   0.595   6.146 -0.3533  0.0752 -1.3770
  132OSM   H11A14187   0.237   0.590   6.123 -0.8704 -1.9172  1.0362
  132OSM   H11B14188   0.354   0.679   6.217  2.2556 -0.7710 -0.5759
  132OSM      P14189   0.529   0.452   6.275 -0.1631  0.2913  0.4863
  132OSM    O1314190   0.544   0.311   6.314  0.5039 -0.0319  0.0877
  132OSM    O1414191   0.631   0.511   6.182 -0.4942 -0.1928  0.2976
  132OSM    O1114192   0.517   0.529   6.416 -0.0337  0.1020  0.1077
  132OSM    O1214193   0.387   0.469   6.208  0.4359 -0.3835 -0.3068
  132OSM    C1S14194   0.401   0.526   6.498  0.3181  0.3624  0.7199
  132OSM    H1S14195   0.325   0.456   6.456 -1.0513 -0.3276  4.0650
  132OSM    H1T14196   0.352   0.625   6.508  0.3518  0.5149 -0.4574
  132OSM     NF14197   0.312   0.456   6.707  0.1594  0.2507  0.1286
  132OSM    HNF14198   0.279   0.522   6.773 -0.3219 -2.9908  3.4604
  132OSM    C2S14199   0.439   0.484   6.643  0.2961 -0.8763  0.8472
  132OSM    H2S14200   0.502   0.393   6.636  2.0931  0.4114 -4.1586
  132OSM    C3S14201   0.522   0.593   6.707  1.1239  0.2836 -0.1124
  132OSM    H3S14202   0.466   0.683   6.738  1.4513  1.3895 -2.5173
  132OSM     O314203   0.629   0.653   6.628  0.5204 -0.3366  0.2273
  132OSM    HO314204   0.614   0.619   6.539 -0.8982  0.8432 -0.0215
  132OSM    C4S14205   0.580   0.535   6.840  0.0321  0.6124  0.4261
  132OSM    H4S14206   0.543   0.581   6.933  2.3881  0.8765  1.3172
  132OSM    C5S14207   0.693   0.458   6.858  0.3450 -0.0237  0.5083
  132OSM    H5S14208   0.756   0.434   6.771  0.9379  1.7354  0.4182
  132OSM    C6S14209   0.732   0.398   6.987  0.4245 -0.5790 -0.1504
  132OSM    H6S14210   0.833   0.434   7.014  0.9704 -2.7930  1.0462
  132OSM    H6T14211   0.741   0.288   6.972  0.4223 -0.4719 -0.9951
  132OSM    C7S14212   0.641   0.431   7.097 -1.3547  0.5951  0.0466
  132OSM    H7S14213   0.537   0.394   7.095 -1.7245  1.5774  0.5369
  132OSM    H7T14214   0.640   0.541   7.109 -0.9345  1.2227 -4.1529
  132OSM    C8S14215   0.708   0.379   7.231 -0.3093 -0.9209 -0.1492
  132OSM    H8S14216   0.810   0.424   7.236 -1.0915  0.9566 -0.2766
  132OSM    H8T14217   0.719   0.268   7.231 -0.8956 -1.0035 -2.3306
  132OSM    C9S14218   0.629   0.428   7.352 -0.0677  0.3971  0.4636
  132OSM    H9S14219   0.520   0.418   7.334 -0.0905 -1.9436  1.6504
  132OSM    H9T14220   0.652   0.537   7.343  0.1948  0.1959 -2.9207
  132OSM   C10S14221   0.674   0.349   7.470  0.5466  0.4002  0.2198
  132OSM   H10S14222   0.785   0.356   7.473  0.4351  3.3521  3.0168
  132OSM   H10T14223   0.657   0.240   7.457  0.6032  0.5514 -1.2608
  132OSM   C11S14224   0.624   0.406   7.604  0.2845  0.5045 -0.2007
  132OSM   H11S14225   0.514   0.390   7.608  0.5279 -1.2837  0.2810
  132OSM   H11T14226   0.653   0.513   7.603  1.8605  0.1896  2.3194
  132OSM   C12S14227   0.683   0.340   7.724  0.1999  0.4015 -0.3406
  132OSM   H12S14228   0.788   0.374   7.741  0.0808  0.5224  0.1755
  132OSM   H12T14229   0.701   0.231   7.714  1.0183  0.5540 -0.6031
  132OSM   C13S14230   0.596   0.368   7.856 -0.4265 -0.1192  0.6597
  132OSM   H13S14231   0.500   0.311   7.856  0.1863 -1.2318 -0.7683
  132OSM   H13T14232   0.567   0.475   7.860 -0.8703 -0.1421 -1.1248
  132OSM   C14S14233   0.667   0.340   7.983 -0.0106 -0.4646  0.1698
  132OSM   H14S14234   0.758   0.401   7.999 -0.5168  0.4902 -0.5293
  132OSM   H14T14235   0.691   0.231   7.979  0.8122 -0.3014  0.4072
  132OSM   C15S14236   0.580   0.386   8.104  0.2016  0.3606  0.4052
  132OSM   H15S14237   0.508   0.302   8.114 -1.6968  1.4618 -2.6528
  132OSM   H15T14238   0.528   0.481   8.081 -1.1502 -0.9415 -2.4533
  132OSM   C16S14239   0.659   0.394   8.234 -0.0971 -0.3687 -0.4869
  132OSM   H16S14240   0.753   0.450   8.215 -1.1112  2.2912  1.6230
  132OSM   H16T14241   0.698   0.296   8.269  0.7225 -0.4851 -1.6488
  132OSM   C17S14242   0.587   0.482   8.327 -0.2915 -1.2384 -0.8986
  132OSM   H17S14243   0.529   0.561   8.274  0.0623  0.4313  1.0872
  132OSM   H17T14244   0.654   0.537   8.397  0.3164 -2.1352 -0.7597
  132OSM   C18S14245   0.487   0.397   8.405 -0.4328 -0.0269  0.2472
  132OSM   H18S14246   0.545   0.324   8.466  1.9331 -0.4690 -2.3464
  132OSM   H18T14247   0.424   0.342   8.333  1.4100 -1.6334 -0.2236
  132OSM   H18U14248   0.428   0.462   8.472 -0.1607 -0.5097  0.9665
  132OSM    C1F14249   0.238   0.351   6.677 -0.5927 -0.3512  0.3300
  132OSM     OF14250   0.282   0.269   6.597  0.2723 -0.1316  0.3170
  132OSM    C2F14251   0.117   0.337   6.743  0.5587  0.2033  0.3709
  132OSM    H2F14252   0.041   0.302   6.669 -0.7597  1.8436  0.8773
  132OSM    H2G14253   0.073   0.433   6.776 -0.7436 -0.1325 -0.2974
  132OSM    C3F14254   0.107   0.230   6.855 -0.5151  0.3175  0.4486
  132OSM    H3F14255   0.166   0.142   6.820  0.6761  1.4526 -0.5098
  132OSM    H3G14256   0.004   0.198   6.883  0.2513 -0.5789  2.4433
  132OSM    C4F14257   0.174   0.290   6.974 -0.2340 -0.6570 -0.6809
  132OSM    H4F14258   0.108   0.369   7.014 -2.5370 -1.8026 -2.0568
  132OSM    H4G14259   0.272   0.333   6.943 -0.7708 -0.0938 -1.6191
  132OSM    C5F14260   0.204   0.193   7.092 -0.5747 -0.6969 -0.2141
  132OSM    H5F14261   0.276   0.112   7.064  1.8708  0.4188  2.3675
  132OSM    H5G14262   0.110   0.144   7.125 -1.1156  0.4502 -0.0263
  132OSM    C6F14263   0.251   0.267   7.214 -0.2349  0.4112  0.9522
  132OSM    H6F14264   0.163   0.318   7.260  1.6111  1.5743  3.3732
  132OSM    H6G14265   0.319   0.349   7.184  2.8775 -1.8950  1.2983
  132OSM    C7F14266   0.309   0.172   7.318 -0.3593 -0.0456 -0.3383
  132OSM    H7F14267   0.327   0.237   7.407  1.2316 -1.7375  0.6369
  132OSM    H7G14268   0.408   0.153   7.273 -0.9448 -1.1379 -1.1871
  132OSM    C8F14269   0.229   0.049   7.358 -0.1505  0.3474  0.3154
  132OSM    H8F14270   0.286   0.003   7.442  1.0230  0.3839 -0.4250
  132OSM    H8G14271   0.221  -0.029   7.280 -1.0218 -0.5049  1.2357
  132OSM    C9F14272   0.085   0.080   7.397 -0.2709 -0.7322 -0.4318
  132OSM    H9F14273   0.020   0.102   7.312  1.3335  0.4257 -1.4188
  132OSM   C10F14274   0.048   0.103   7.521 -0.2898 -0.6671  0.0139
  132OSM   H10F14275  -0.053   0.146   7.527  0.5520  1.7411 -1.4588
  132OSM   C11F14276   0.119   0.092   7.652  0.3886 -0.2085 -0.1818
  132OSM   H11F14277   0.180   0.183   7.668 -2.0416  1.8185 -1.5840
  132OSM   H11G14278   0.173  -0.005   7.649 -0.8710 -0.9322 -2.1107
  132OSM   C12F14279   0.007   0.079   7.763 -0.0362 -0.3172 -0.7357
  132OSM   H12F14280  -0.054  -0.011   7.737  0.9218 -1.2138  0.0277
  132OSM   H12G14281  -0.055   0.171   7.762  1.1036  0.4794  0.1128
  132OSM   C13F14282   0.070   0.083   7.904 -1.4132  0.2823  0.8013
  132OSM   H13F14283   0.135   0.173   7.914 -0.5167  0.0592 -2.1708
  132OSM   H13G14284   0.130  -0.010   7.914  0.4560  1.2401 -0.8335
  132OSM   C14F14285  -0.034   0.086   8.015  0.0557  1.0111  0.3546
  132OSM   H14F14286   0.015   0.090   8.115  2.6235  0.0676 -0.7559
  132OSM   H14G14287  -0.073  -0.018   8.010  2.1310  0.1365  1.1143
  132OSM   C15F14288  -0.142   0.189   8.004  0.0585 -0.5665 -0.1814
  132OSM   H15F14289  -0.207   0.192   7.914 -0.2885  1.0458  0.0784
  132OSM   H15G14290  -0.094   0.289   8.001 -1.6913  0.3278 -0.2261
  132OSM   C16F14291  -0.233   0.195   8.120  0.6049 -0.7127 -0.1986
  132OSM   H16F14292  -0.173   0.238   8.204  0.0964 -2.5925  1.1925
  132OSM   H16G14293  -0.276   0.097   8.149 -1.4199  0.0444 -0.4535
  132OSM   C17F14294  -0.365   0.275   8.100 -0.0431 -0.2675  0.2402
  132OSM   H17F14295  -0.424   0.237   8.014  1.2402 -0.0454 -0.7636
  132OSM   H17G14296  -0.346   0.380   8.070  0.6794 -0.7074 -0.9206
  132OSM   C18F14297  -0.457   0.271   8.222 -0.5846 -0.3314  0.0503
  132OSM   H18F14298  -0.468   0.161   8.233  1.4496 -1.0865 -3.6366
  132OSM   H18G14299  -0.545   0.335   8.201 -1.5301 -1.4626  0.4680
  132OSM   H18H14300  -0.402   0.304   8.313  0.0366 -1.6362  0.1718
  133SAPE     N14301   2.722   0.109  10.564  0.1592 -0.6761  0.4191
  133SAPE   HN114302   2.750   0.199  10.519  0.5026 -0.8369  0.3026
  133SAPE   HN214303   2.745   0.042  10.487  2.6070  0.1647  0.3348
  133SAPE   HN314304   2.621   0.123  10.582 -0.0962  2.0214 -2.2067
  133SAPE   C1214305   2.787   0.071  10.690 -0.1443  0.2742  0.4630
  133SAPE  H12A14306   2.738  -0.021  10.729 -0.8423  1.2902  2.1094
  133SAPE  H12B14307   2.763   0.144  10.771 -1.7390 -0.7481  0.9684
  133SAPE   C1114308   2.942   0.053  10.686  0.1608  0.2905 -0.7295
  133SAPE  H11A14309   2.957  -0.045  10.634 -1.8799 -1.4065  1.6378
  133SAPE  H11B14310   2.988   0.042  10.787  0.8879  2.4842 -0.7733
  133SAPE     P14311   3.157   0.161  10.559  0.0996  0.3724 -0.1584
  133SAPE   O1314312   3.194   0.300  10.566 -0.3593 -0.0559 -0.0566
  133SAPE   O1414313   3.241   0.061  10.630 -0.1181 -0.0517 -0.4770
  133SAPE   O1214314   3.006   0.157  10.615 -0.4077 -0.0101 -0.2404
  133SAPE   O1114315   3.142   0.120  10.406  0.4855 -0.0676  0.0305
  133SAPE    C114316   3.225   0.165  10.301  0.0042  0.2249  0.3028
  133SAPE    HA14317   3.265   0.267  10.323  1.9572 -0.3145 -0.4742
  133SAPE    HB14318   3.316   0.102  10.290 -0.8106 -0.7139 -1.1563
  133SAPE    C214319   3.149   0.172  10.159  0.3438 -0.2850  0.6744
  133SAPE    HS14320   3.194   0.253  10.097 -0.5444  1.8823  2.6695
  133SAPE   O2114321   3.012   0.203  10.182 -1.0270 -0.4004  0.7544
  133SAPE   C2114322   2.988   0.321  10.231  0.1462 -0.1045 -0.2969
  133SAPE   O2214323   3.069   0.407  10.266 -0.3081  0.3226  0.3237
  133SAPE   C2214324   2.837   0.334  10.246 -0.2154 -0.1600 -0.2631
  133SAPE   H2R14325   2.790   0.234  10.258 -1.3481  0.5497  1.8041
  133SAPE   H2S14326   2.818   0.388  10.342  0.4390  0.3620 -0.4205
  133SAPE    C314327   3.144   0.032  10.098 -0.5789 -0.4403 -0.0294
  133SAPE    HX14328   3.056   0.013  10.033 -2.0652 -0.4576  1.8858
  133SAPE    HY14329   3.131  -0.032  10.188  2.4214  1.0295  1.6090
  133SAPE   O3114330   3.268  -0.014  10.037  0.4760 -0.3091  1.2999
  133SAPE   C3114331   3.284   0.031   9.909 -0.2053 -0.4777  0.5286
  133SAPE   O3214332   3.203   0.096   9.853 -0.0147 -0.4123 -0.2039
  133SAPE   C3214333   3.430   0.015   9.866 -0.2401  0.3882  0.1374
  133SAPE   H2X14334   3.437  -0.088   9.825  1.0001  0.1813  0.8025
  133SAPE   H2Y14335   3.500   0.011   9.952  0.3568  1.4629 -0.2860
  133SAPE   C2314336   2.760   0.395  10.130 -0.4675 -0.6090  0.2406
  133SAPE   H3R14337   2.653   0.373  10.150 -1.1875  1.7713 -0.6483
  133SAPE   H3S14338   2.783   0.353  10.029 -0.0902  1.9091 -0.7864
  133SAPE   C2414339   2.796   0.538  10.116  0.5197 -0.2240  0.6660
  133SAPE   H4R14340   2.888   0.547  10.055  0.4329  0.1238  0.5821
  133SAPE   H4S14341   2.808   0.583  10.217 -0.0066 -0.5995  0.8964
  133SAPE   C2514342   2.692   0.614  10.053 -0.2988 -0.7616  1.0216
  133SAPE   H5R14343   2.618   0.647  10.127 -0.4699 -0.9848  0.9513
  133SAPE   C2614344   2.675   0.637   9.918 -0.4916 -0.2966 -0.1766
  133SAPE   H6R14345   2.595   0.708   9.891 -0.3206 -0.1686 -0.3481
  133SAPE   C2714346   2.768   0.590   9.809  0.3917  0.6696  0.2382
  133SAPE   H7R14347   2.737   0.488   9.778  2.4522  0.1657 -0.3178
  133SAPE   H7S14348   2.873   0.591   9.846  1.0625  0.1076 -1.5498
  133SAPE   C2814349   2.756   0.674   9.682 -1.0612  0.5080  0.5321
  133SAPE   H8R14350   2.834   0.751   9.686  1.1144 -1.5986  0.9849
  133SAPE   C2914351   2.661   0.676   9.584  0.3413  0.1016  0.0397
  133SAPE   H9R14352   2.660   0.752   9.505  1.9996  0.0593 -0.0593
  133SAPE  C21014353   2.544   0.582   9.577 -0.1998 -0.1622 -0.2200
  133SAPE  H10R14354   2.456   0.627   9.527 -0.5108 -0.8356 -0.2912
  133SAPE  H10S14355   2.502   0.572   9.680 -1.4280  2.4319 -0.3718
  133SAPE  C21114356   2.559   0.442   9.532 -0.1471  0.2183  0.5468
  133SAPE  H11R14357   2.545   0.369   9.613 -1.2742 -1.1685 -0.8271
  133SAPE  C21214358   2.593   0.403   9.405  0.1756  0.2712  0.8666
  133SAPE  H12R14359   2.609   0.296   9.386  1.2240  0.0527  2.7274
  133SAPE  C21314360   2.627   0.496   9.287 -0.6513  0.1850 -0.1746
  133SAPE  H13R14361   2.669   0.445   9.198  0.1193  0.4566  0.0259
  133SAPE  H13S14362   2.704   0.568   9.319  1.8212 -2.9122  1.4054
  133SAPE  C21414363   2.503   0.569   9.238  0.1375  0.0217  0.1964
  133SAPE  H14R14364   2.418   0.560   9.307  0.7619 -1.2104  0.8375
  133SAPE  C21514365   2.498   0.626   9.117  0.0881  0.1592 -0.4761
  133SAPE  H15R14366   2.409   0.676   9.075  1.5166  2.2884 -1.1234
  133SAPE  C21614367   2.607   0.615   9.011 -0.1203 -0.3814 -0.0803
  133SAPE  H16R14368   2.708   0.591   9.052 -0.2307 -1.3980 -0.3803
  133SAPE  H16S14369   2.609   0.722   8.981 -0.2761  0.4247  2.5377
  133SAPE  C21714370   2.566   0.512   8.910  0.1037 -0.3683  0.1780
  133SAPE  H17R14371   2.461   0.533   8.883  1.1246  1.3912 -2.9185
  133SAPE  H17S14372   2.566   0.410   8.956  2.1516 -0.7399 -0.5487
  133SAPE  C21814373   2.645   0.503   8.780 -0.8275 -0.5134  0.2702
  133SAPE  H18R14374   2.749   0.478   8.812 -0.5971  0.4007  0.2604
  133SAPE  H18S14375   2.651   0.611   8.752 -1.5590 -0.6232 -0.3522
  133SAPE  C21914376   2.570   0.419   8.675 -1.1547 -0.7433  0.6405
  133SAPE  H19R14377   2.637   0.415   8.586 -1.8143 -2.3452  0.1682
  133SAPE  H19S14378   2.478   0.470   8.637 -0.7622  0.8754  1.7975
  133SAPE  C22014379   2.546   0.271   8.708  0.3366  0.0281  0.0384
  133SAPE  H20R14380   2.447   0.258   8.756 -0.8226 -0.6539 -2.4298
  133SAPE  H20S14381   2.629   0.217   8.760  0.6612  0.6174  0.1508
  133SAPE  H20T14382   2.540   0.215   8.613 -2.4309  0.6030 -0.2018
  133SAPE   C3314383   3.480   0.140   9.781  0.7352 -0.4975 -0.1250
  133SAPE   H3X14384   3.590   0.140   9.765  1.1737  1.3515  2.3101
  133SAPE   H3Y14385   3.467   0.229   9.846 -1.7292 -0.8276 -0.0841
  133SAPE   C3414386   3.410   0.147   9.643 -0.4111  0.0180 -0.1503
  133SAPE   H4X14387   3.311   0.195   9.650 -1.2775 -1.5737 -0.9337
  133SAPE   H4Y14388   3.401   0.044   9.602  0.0015 -0.8801  1.8558
  133SAPE   C3514389   3.483   0.233   9.537  0.2782 -0.3444 -0.2865
  133SAPE   H5X14390   3.588   0.200   9.521  1.4783  2.9044  0.2928
  133SAPE   H5Y14391   3.494   0.339   9.568  2.0889 -0.4043 -0.6476
  133SAPE   C3614392   3.410   0.239   9.397 -0.5437  0.4621  0.6212
  133SAPE   H6X14393   3.465   0.327   9.357 -1.6940  1.1520  0.5257
  133SAPE   H6Y14394   3.302   0.262   9.392 -0.3924  1.0091 -0.8520
  133SAPE   C3714395   3.431   0.110   9.306  0.7679  0.3717 -0.7836
  133SAPE   H7X14396   3.442   0.014   9.361 -0.1255 -0.2182 -1.5964
  133SAPE   H7Y14397   3.524   0.125   9.248  0.4041 -1.0686 -1.7907
  133SAPE   C3814398   3.323   0.098   9.192 -0.9888  0.7674 -1.1602
  133SAPE   H8X14399   3.261   0.189   9.188 -1.1406  0.6503 -1.4702
  133SAPE   H8Y14400   3.262   0.009   9.220  1.7190 -0.9968 -0.3648
  133SAPE   C3914401   3.370   0.067   9.054 -0.9220 -0.2795  0.2192
  133SAPE   H9X14402   3.300   0.016   8.984 -0.5498 -2.6741  1.5021
  133SAPE   H9Y14403   3.456  -0.002   9.060 -0.9620 -0.4096 -0.6299
  133SAPE  C31014404   3.420   0.191   8.977  0.0710  0.1912 -0.6640
  133SAPE  H10X14405   3.487   0.235   9.054 -1.3967  0.4818  0.5208
  133SAPE  H10Y14406   3.339   0.268   8.978  0.0892  0.2073 -0.3691
  133SAPE  C31114407   3.487   0.174   8.838 -0.1542 -0.1794  0.6701
  133SAPE  H11X14408   3.561   0.091   8.838  0.4047  0.3002 -0.0691
  133SAPE  H11Y14409   3.548   0.261   8.803 -1.8120  0.1531 -1.5826
  133SAPE  C31214410   3.385   0.123   8.723 -0.0873  0.4806 -0.0990
  133SAPE  H12X14411   3.333   0.213   8.685  0.6264  0.9932  0.1116
  133SAPE  H12Y14412   3.311   0.062   8.779  1.9042 -0.3138  1.8315
  133SAPE  C31314413   3.459   0.038   8.617  0.1392  0.5326  0.0081
  133SAPE  H13X14414   3.525  -0.039   8.662  0.7334  1.3048  0.4767
  133SAPE  H13Y14415   3.515   0.117   8.563  0.3658  0.1309 -0.3562
  133SAPE  C31414416   3.376  -0.042   8.520 -0.5344 -0.1853 -0.1452
  133SAPE  H14X14417   3.442  -0.083   8.440 -1.7246 -2.2145 -0.1625
  133SAPE  H14Y14418   3.305   0.028   8.471 -0.5726 -0.6481 -0.7756
  133SAPE  C31514419   3.300  -0.160   8.581  0.3148  0.1066 -0.7082
  133SAPE  H15X14420   3.244  -0.134   8.674 -0.8841 -3.1360 -0.3580
  133SAPE  H15Y14421   3.378  -0.227   8.623  0.7698 -0.6578 -2.7014
  133SAPE  C31614422   3.213  -0.221   8.475  0.1458  0.8602  0.2414
  133SAPE  H16X14423   3.273  -0.239   8.383  0.7651  1.7587  0.4598
  133SAPE  H16Y14424   3.141  -0.140   8.455 -2.0809 -0.8542  0.8425
  133SAPE  C31714425   3.129  -0.337   8.511  0.0857  0.5770  0.0212
  133SAPE  H17X14426   3.050  -0.298   8.579 -1.3699 -2.0315 -0.0339
  133SAPE  H17Y14427   3.189  -0.412   8.567 -0.5684 -0.0616 -0.1095
  133SAPE  C31814428   3.069  -0.411   8.389 -0.0378 -0.0875  0.4351
  133SAPE  H18X14429   3.152  -0.481   8.362  0.2009  0.0301  0.8524
  133SAPE  H18Y14430   3.028  -0.342   8.313  0.2778  0.5221  0.8120
  133SAPE  H18Z14431   2.979  -0.464   8.427  0.3981 -0.8869  0.3750
  134SAPE     N14432   5.365   5.793  10.610  0.0609  0.2462 -0.6761
  134SAPE   HN114433   5.370   5.837  10.703 -0.2361 -0.5438 -0.2761
  134SAPE   HN214434   5.379   5.875  10.547 -0.3882  2.1993  1.6334
  134SAPE   HN314435   5.270   5.755  10.591 -0.4461  1.9174 -1.8130
  134SAPE   C1214436   5.467   5.694  10.568 -0.4047  0.8940 -0.4262
  134SAPE  H12A14437   5.566   5.738  10.590 -1.3463  2.4950  0.7795
  134SAPE  H12B14438   5.451   5.677  10.459  1.3302 -1.4776 -0.4144
  134SAPE   C1114439   5.459   5.558  10.642  0.1727  0.1694  0.3776
  134SAPE  H11A14440   5.382   5.495  10.594  0.7813  1.6837 -2.8588
  134SAPE  H11B14441   5.421   5.586  10.743 -3.3718 -0.7819 -0.5329
  134SAPE     P14442   5.612   5.350  10.680  0.0105 -0.2565 -0.0100
  134SAPE   O1314443   5.545   5.324  10.808  0.1275  0.1394  0.5265
  134SAPE   O1414444   5.566   5.274  10.566 -0.3686 -0.2382  0.1219
  134SAPE   O1214445   5.594   5.502  10.653  0.2805 -0.3954  0.3550
  134SAPE   O1114446   5.765   5.340  10.694  0.1396 -0.3178 -0.0288
  134SAPE    C114447   5.851   5.448  10.642  0.1930  0.2972 -0.0759
  134SAPE    HA14448   5.803   5.546  10.655 -1.9476 -0.8286  0.9674
  134SAPE    HB14449   5.951   5.435  10.688  0.7209  0.6846 -1.0714
  134SAPE    C214450   5.887   5.423  10.490  0.1333 -0.1099  0.3728
  134SAPE    HS14451   5.787   5.414  10.442  0.1853  3.0132 -0.5412
  134SAPE   O2114452   5.969   5.304  10.475  0.1251 -0.4181  0.1420
  134SAPE   C2114453   5.934   5.222  10.384 -0.4269 -0.2642 -0.2476
  134SAPE   O2214454   5.846   5.238  10.299 -1.2401  0.2058 -0.5316
  134SAPE   C2214455   6.026   5.090  10.402  0.6176 -1.6293  0.7090
  134SAPE   H2R14456   6.130   5.129  10.409  0.0453  0.0378  0.1705
  134SAPE   H2S14457   5.984   5.049  10.497 -1.1047  0.5475  0.9637
  134SAPE    C314458   5.951   5.542  10.418  0.0502 -0.2195  0.2779
  134SAPE    HX14459   6.047   5.554  10.474  0.2829  0.5487 -0.2780
  134SAPE    HY14460   5.886   5.629  10.441 -2.8166 -1.3589 -2.8200
  134SAPE   O3114461   5.966   5.533  10.281 -0.2034 -0.3428  0.1979
  134SAPE   C3114462   5.857   5.556  10.207  0.9290 -0.1884 -0.1158
  134SAPE   O3214463   5.746   5.585  10.254  0.4610  0.4339 -0.0564
  134SAPE   C3214464   5.896   5.551  10.060 -0.5910  0.5116  0.4640
  134SAPE   H2X14465   5.890   5.449  10.017  0.7398  0.7817 -0.4233
  134SAPE   H2Y14466   5.992   5.604  10.043 -0.5159 -0.3220 -1.9741
  134SAPE   C2314467   6.004   4.983  10.297  1.0891  0.8461  0.2979
  134SAPE   H3R14468   6.032   5.027  10.199  0.5005  2.9558  1.0071
  134SAPE   H3S14469   5.895   4.969  10.282  1.2524  0.8879 -1.0984
  134SAPE   C2414470   6.080   4.852  10.333 -0.1040  0.4347  0.1563
  134SAPE   H4R14471   6.079   4.847  10.444 -0.5849  0.1197  0.1377
  134SAPE   H4S14472   6.189   4.867  10.322  0.1440 -0.1652  1.5736
  134SAPE   C2514473   6.039   4.714  10.278  0.3006 -0.2801  0.5800
  134SAPE   H5R14474   5.970   4.659  10.344 -0.8474  0.2993 -0.1183
  134SAPE   C2614475   6.081   4.661  10.162 -0.0520 -0.3452  0.2187
  134SAPE   H6R14476   6.041   4.562  10.136  1.2110 -1.2333  1.4693
  134SAPE   C2714477   6.172   4.719  10.058  0.2586 -0.1594 -0.3181
  134SAPE   H7R14478   6.258   4.651  10.042  0.8432  0.8314 -1.5187
  134SAPE   H7S14479   6.215   4.815  10.094 -1.9181  0.6857  0.1771
  134SAPE   C2814480   6.098   4.747   9.926  0.0163 -0.4688  0.8748
  134SAPE   H8R14481   5.993   4.778   9.928 -0.0135 -0.5684  0.8458
  134SAPE   C2914482   6.156   4.738   9.804 -0.2153  0.4641 -0.5177
  134SAPE   H9R14483   6.100   4.764   9.713  0.3193 -0.0033 -0.9925
  134SAPE  C21014484   6.295   4.677   9.774 -0.1549 -0.4241  1.3120
  134SAPE  H10R14485   6.287   4.568   9.752 -2.0096  0.0455 -0.7170
  134SAPE  H10S14486   6.363   4.688   9.861 -1.5885  0.7229  2.3175
  134SAPE  C21114487   6.358   4.754   9.661 -0.7864  0.1110 -0.6197
  134SAPE  H11R14488   6.404   4.850   9.686 -0.7748 -0.0282 -0.0923
  134SAPE  C21214489   6.365   4.716   9.533 -0.0098  0.9216  0.2676
  134SAPE  H12R14490   6.411   4.784   9.460  1.9896 -1.6707 -1.0830
  134SAPE  C21314491   6.300   4.586   9.484 -1.0812 -0.5931  0.3204
  134SAPE  H13R14492   6.296   4.503   9.558  0.0436 -0.4271  0.5798
  134SAPE  H13S14493   6.351   4.535   9.399  0.0354 -0.2332  0.7621
  134SAPE  C21414494   6.165   4.619   9.439 -0.2884 -0.5304  0.1623
  134SAPE  H14R14495   6.091   4.631   9.521  2.0916 -1.0548  2.5128
  134SAPE  C21514496   6.127   4.625   9.309 -0.1361 -0.0088 -0.4037
  134SAPE  H15R14497   6.020   4.636   9.285  0.2973  0.8896 -2.1264
  134SAPE  C21614498   6.206   4.615   9.184  0.0145  0.2362 -0.9988
  134SAPE  H16R14499   6.186   4.525   9.123  0.6684  1.3320 -2.9427
  134SAPE  H16S14500   6.313   4.612   9.216 -0.5193  2.1045  1.3046
  134SAPE  C21714501   6.181   4.733   9.091  0.0330 -0.1717  0.1844
  134SAPE  H17R14502   6.075   4.765   9.088  0.2934  0.6598 -0.2136
  134SAPE  H17S14503   6.200   4.706   8.985 -0.5205 -3.0795  0.7221
  134SAPE  C21814504   6.270   4.850   9.129 -0.1759 -0.2036 -0.0182
  134SAPE  H18R14505   6.371   4.846   9.083 -0.3830  0.7804 -0.5890
  134SAPE  H18S14506   6.284   4.840   9.239  0.7517  0.0471 -0.1074
  134SAPE  C21914507   6.200   4.987   9.092 -0.4409  0.3994  0.2215
  134SAPE  H19R14508   6.113   4.999   9.160 -0.7011 -1.7793  0.3633
  134SAPE  H19S14509   6.173   4.976   8.985 -0.9655 -1.7137  0.5114
  134SAPE  C22014510   6.292   5.104   9.116  0.2884 -0.3739  0.4235
  134SAPE  H20R14511   6.392   5.084   9.071  0.9775  1.9351  0.8269
  134SAPE  H20S14512   6.320   5.114   9.223  2.8105 -0.9330 -0.1018
  134SAPE  H20T14513   6.255   5.205   9.088 -1.7287 -1.5995 -1.6927
  134SAPE   C3314514   5.786   5.618   9.977  0.2985  0.2750 -0.4872
  134SAPE   H3X14515   5.769   5.721  10.014 -0.2668 -0.0075  0.0362
  134SAPE   H3Y14516   5.690   5.564   9.992 -0.2835  1.2048 -0.7807
  134SAPE   C3414517   5.821   5.649   9.821  0.6345  0.2097 -0.4577
  134SAPE   H4X14518   5.842   5.556   9.764  0.8367  0.2486 -0.4455
  134SAPE   H4Y14519   5.919   5.701   9.827  2.1771 -2.5153 -0.6360
  134SAPE   C3514520   5.705   5.718   9.750 -0.1038 -0.2522  0.4937
  134SAPE   H5X14521   5.692   5.818   9.797 -0.6469  1.0275 -2.2217
  134SAPE   H5Y14522   5.610   5.661   9.758  0.6109 -1.4604  0.5888
  134SAPE   C3614523   5.738   5.729   9.602 -0.4013  0.5484 -0.3306
  134SAPE   H6X14524   5.768   5.629   9.563 -2.1138 -0.6103  1.1777
  134SAPE   H6Y14525   5.833   5.786   9.593  0.0123  0.1465  1.1452
  134SAPE   C3714526   5.633   5.788   9.522  0.0840  0.1558  0.2998
  134SAPE   H7X14527   5.615   5.896   9.543  1.4330  0.7183 -1.2102
  134SAPE   H7Y14528   5.539   5.732   9.543 -1.0638  1.2601 -1.6163
  134SAPE   C3814529   5.664   5.772   9.370 -0.3505  0.3109  0.9496
  134SAPE   H8X14530   5.673   5.668   9.332  0.5258  1.3970 -2.1407
  134SAPE   H8Y14531   5.757   5.827   9.343  0.9054 -2.0953  0.0083
  134SAPE   C3914532   5.550   5.831   9.291 -0.4357 -0.3365 -0.0374
  134SAPE   H9X14533   5.546   5.939   9.317  0.1102  0.6130 -3.3616
  134SAPE   H9Y14534   5.453   5.785   9.320 -0.9511  0.7951  0.1044
  134SAPE  C31014535   5.578   5.826   9.139 -0.1565 -0.1495  0.3595
  134SAPE  H10X14536   5.660   5.887   9.097 -1.1170  0.0047 -1.3787
  134SAPE  H10Y14537   5.482   5.869   9.103  0.6924  2.4745  0.9707
  134SAPE  C31114538   5.602   5.684   9.075 -0.7038 -0.7067 -0.2314
  134SAPE  H11X14539   5.515   5.624   9.110 -1.6317  0.9144  0.3638
  134SAPE  H11Y14540   5.694   5.647   9.125 -0.7166  0.7905  0.9662
  134SAPE  C31214541   5.600   5.683   8.924  0.3273 -0.3616  0.4974
  134SAPE  H12X14542   5.697   5.731   8.899 -0.6079  2.1619  1.3217
  134SAPE  H12Y14543   5.517   5.747   8.887  1.1313  1.6589  2.0084
  134SAPE  C31314544   5.583   5.538   8.860  0.1052 -0.5587  0.6350
  134SAPE  H13X14545   5.567   5.559   8.752  1.0599  0.0245  0.5941
  134SAPE  H13Y14546   5.489   5.494   8.901 -0.2041  0.2547  0.8360
  134SAPE  C31414547   5.696   5.448   8.881 -0.8018 -0.5457  0.1935
  134SAPE  H14X14548   5.701   5.430   8.990 -3.5484  0.2495  0.5250
  134SAPE  H14Y14549   5.790   5.499   8.849 -1.5740  0.2946 -0.7898
  134SAPE  C31514550   5.687   5.306   8.814 -0.5712  0.2228 -0.0180
  134SAPE  H15X14551   5.681   5.320   8.704  0.5778 -0.5515 -0.2066
  134SAPE  H15Y14552   5.596   5.260   8.857 -0.3768 -1.1264 -0.9873
  134SAPE  C31614553   5.807   5.219   8.846 -0.0660  0.8666 -0.2632
  134SAPE  H16X14554   5.820   5.230   8.956  1.3473  0.8049 -0.4057
  134SAPE  H16Y14555   5.897   5.259   8.794  1.6254 -1.2874  0.8629
  134SAPE  C31714556   5.790   5.072   8.821 -0.0779 -0.4341 -0.6526
  134SAPE  H17X14557   5.774   5.053   8.713 -1.4047  0.6628 -0.6625
  134SAPE  H17Y14558   5.697   5.033   8.869  1.5025 -2.3803  1.0557
  134SAPE  C31814559   5.910   4.991   8.865  0.1424 -0.1818 -0.5839
  134SAPE  H18X14560   5.994   5.059   8.841 -0.7394  1.2269  0.1463
  134SAPE  H18Y14561   5.921   4.890   8.820  0.0125 -0.2043 -0.5669
  134SAPE  H18Z14562   5.904   4.978   8.975 -4.3618 -1.3286 -0.7688
  135SAPE     N14563   3.616   6.054  10.824  0.0547 -0.6857 -0.9305
  135SAPE   HN114564   3.578   6.144  10.860  0.1761 -1.3142  0.8722
  135SAPE   HN214565   3.579   5.966  10.865  1.1103 -0.1609  1.3293
  135SAPE   HN314566   3.717   6.047  10.848  0.4153 -0.8743 -2.3991
  135SAPE   C1214567   3.610   6.057  10.674  0.0503 -0.1830  0.2314
  135SAPE  H12A14568   3.554   6.150  10.648 -0.7932 -1.0996 -1.4519
  135SAPE  H12B14569   3.546   5.970  10.647 -1.7345  1.1381  0.0091
  135SAPE   C1114570   3.746   6.048  10.600 -1.0544 -0.2926  0.1671
  135SAPE  H11A14571   3.788   6.151  10.600 -1.3518 -0.1359  2.1204
  135SAPE  H11B14572   3.737   6.023  10.492  3.6834 -0.6911 -0.3468
  135SAPE     P14573   3.837   5.789  10.619  0.5654 -0.2422 -0.1863
  135SAPE   O1314574   3.946   5.729  10.691  0.3917 -0.9379 -0.3222
  135SAPE   O1414575   3.707   5.724  10.621  0.3356  0.4597 -0.6931
  135SAPE   O1214576   3.823   5.941  10.665 -0.6703 -0.6478 -0.0701
  135SAPE   O1114577   3.888   5.793  10.467 -0.1736 -0.2437 -0.4464
  135SAPE    C114578   3.976   5.898  10.422  0.3025 -0.5312 -0.0428
  135SAPE    HA14579   3.935   6.000  10.407 -0.5825 -0.5396  1.9843
  135SAPE    HB14580   4.062   5.912  10.491 -0.4235  0.0528  0.7720
  135SAPE    C214581   4.036   5.862  10.282 -0.0073  0.4563  0.4929
  135SAPE    HS14582   4.106   5.942  10.247  0.6705  0.4396  1.7227
  135SAPE   O2114583   3.925   5.840  10.193 -0.2418  0.1498 -0.1738
  135SAPE   C2114584   3.883   5.956  10.139  0.3053  0.4589  0.0123
  135SAPE   O2214585   3.942   6.061  10.140 -0.4934  0.3326  0.2041
  135SAPE   C2214586   3.743   5.937  10.082 -0.0178  0.1134  0.0002
  135SAPE   H2R14587   3.722   5.842  10.029 -2.4876 -0.3932  1.6944
  135SAPE   H2S14588   3.683   5.949  10.175 -2.0028  1.8686 -1.3918
  135SAPE    C314589   4.131   5.740  10.290  0.2265  0.8955 -0.6586
  135SAPE    HX14590   4.061   5.666  10.333  1.6790 -0.3278 -0.3413
  135SAPE    HY14591   4.212   5.747  10.364  0.5131 -1.5821 -0.6499
  135SAPE   O3114592   4.172   5.692  10.164  0.4952  0.2843  0.0260
  135SAPE   C3114593   4.274   5.748  10.102  0.1281  0.7262 -0.7660
  135SAPE   O3214594   4.340   5.843  10.142 -0.4720 -0.0123  0.4036
  135SAPE   C3214595   4.278   5.682   9.968 -0.0892  0.1732  0.4122
  135SAPE   H2X14596   4.175   5.696   9.929 -0.5263  0.1416  1.5005
  135SAPE   H2Y14597   4.311   5.576   9.974  3.5681  0.9427 -2.5455
  135SAPE   C2314598   3.700   6.059   9.992  1.1351 -0.1400  0.6715
  135SAPE   H3R14599   3.742   6.150  10.040 -0.1164  0.8702 -0.0827
  135SAPE   H3S14600   3.592   6.086  10.001  1.0705  1.0445 -2.4030
  135SAPE   C2414601   3.745   6.036   9.838  1.0267  0.7874 -1.2191
  135SAPE   H4R14602   3.840   5.978   9.835  1.4426  1.4018 -0.3776
  135SAPE   H4S14603   3.771   6.137   9.800 -0.3328  0.9292 -1.7972
  135SAPE   C2514604   3.630   5.968   9.776  0.4468 -0.3244  0.1296
  135SAPE   H5R14605   3.569   5.897   9.834  0.0246  0.3539  0.5340
  135SAPE   C2614606   3.579   5.989   9.650 -0.3888  0.2314  0.0663
  135SAPE   H6R14607   3.499   5.924   9.612  0.4169  0.2510 -1.7597
  135SAPE   C2714608   3.636   6.090   9.549 -0.5657 -0.3389  0.6977
  135SAPE   H7R14609   3.692   6.046   9.464 -0.1917  1.0092  0.2308
  135SAPE   H7S14610   3.719   6.150   9.591 -0.4441 -0.4953  0.6835
  135SAPE   C2814611   3.535   6.189   9.497 -0.1590 -0.4910  0.2201
  135SAPE   H8R14612   3.505   6.259   9.577 -0.6785  0.8472 -1.1043
  135SAPE   C2914613   3.486   6.187   9.370 -0.1775  0.1310  0.0653
  135SAPE   H9R14614   3.427   6.275   9.343  0.2303  0.3969  0.0255
  135SAPE  C21014615   3.533   6.099   9.256  0.4040  0.4213 -0.0391
  135SAPE  H10R14616   3.643   6.092   9.246  0.1890 -0.3755 -2.2733
  135SAPE  H10S14617   3.503   6.163   9.171  0.2704  0.8228  0.3050
  135SAPE  C21114618   3.462   5.962   9.230 -0.0191 -0.0644 -0.3001
  135SAPE  H11R14619   3.352   5.962   9.228 -0.1699  0.9895  2.6981
  135SAPE  C21214620   3.524   5.848   9.219  1.2250 -0.0223 -0.2920
  135SAPE  H12R14621   3.467   5.754   9.208 -0.7348  1.2015 -0.8845
  135SAPE  C21314622   3.678   5.828   9.234  0.7044  0.5954 -0.8547
  135SAPE  H13R14623   3.708   5.871   9.332 -0.6240  2.7110 -1.3287
  135SAPE  H13S14624   3.721   5.905   9.167  0.9368 -0.3341 -1.8037
  135SAPE  C21414625   3.717   5.682   9.214  0.1592 -0.2211 -0.9697
  135SAPE  H14R14626   3.728   5.617   9.302 -0.9956  0.8223 -0.0179
  135SAPE  C21514627   3.753   5.629   9.098 -0.8427  0.0233 -0.0648
  135SAPE  H15R14628   3.770   5.521   9.091  0.6853  0.2878 -0.9114
  135SAPE  C21614629   3.766   5.696   8.961  0.5647  0.2302 -0.9727
  135SAPE  H16R14630   3.869   5.675   8.923 -0.8989 -0.1328 -5.2459
  135SAPE  H16S14631   3.749   5.804   8.976 -2.3635  0.0796 -2.5802
  135SAPE  C21714632   3.665   5.642   8.858  0.2991  0.7683 -0.4692
  135SAPE  H17R14633   3.571   5.613   8.911  0.6928 -2.5524 -1.3385
  135SAPE  H17S14634   3.708   5.561   8.795 -1.9053  0.7242 -2.0166
  135SAPE  C21814635   3.626   5.746   8.756 -0.5943 -0.3599 -0.9086
  135SAPE  H18R14636   3.723   5.768   8.706  0.5651 -2.4878  0.2468
  135SAPE  H18S14637   3.592   5.829   8.820  1.5746 -1.3395  1.6868
  135SAPE  C21914638   3.512   5.705   8.660  0.1210  0.3099  0.3069
  135SAPE  H19R14639   3.501   5.792   8.591  1.5669  1.9255  2.0154
  135SAPE  H19S14640   3.417   5.693   8.715 -1.2802 -0.5422 -2.1248
  135SAPE  C22014641   3.535   5.572   8.588 -0.1056 -0.0828 -0.4033
  135SAPE  H20R14642   3.466   5.563   8.501  0.7616 -1.2813 -0.9837
  135SAPE  H20S14643   3.511   5.490   8.658 -1.6085  0.0276 -0.7620
  135SAPE  H20T14644   3.638   5.568   8.546  0.1181 -1.5212  0.2310
  135SAPE   C3314645   4.380   5.744   9.873 -0.0697  0.0236  0.1980
  135SAPE   H3X14646   4.481   5.743   9.921  0.0920  1.4265 -0.0820
  135SAPE   H3Y14647   4.363   5.848   9.841 -1.0864  0.0298  0.7139
  135SAPE   C3414648   4.395   5.657   9.741  0.4280  0.5055  0.6094
  135SAPE   H4X14649   4.315   5.678   9.668  0.0955 -2.4078 -0.0033
  135SAPE   H4Y14650   4.385   5.550   9.771 -1.2364  0.2784 -0.6136
  135SAPE   C3514651   4.535   5.673   9.677 -0.0639  0.3080  0.5368
  135SAPE   H5X14652   4.615   5.655   9.752  3.3804  0.0992 -2.9080
  135SAPE   H5Y14653   4.540   5.778   9.639  0.0432  0.2482  0.3863
  135SAPE   C3614654   4.562   5.586   9.558 -0.5797  0.0376  0.6574
  135SAPE   H6X14655   4.481   5.593   9.482 -1.2236 -1.1900  1.2166
  135SAPE   H6Y14656   4.575   5.478   9.578 -2.9068 -0.1021  1.7134
  135SAPE   C3714657   4.680   5.638   9.465 -0.6717  0.3619  0.7821
  135SAPE   H7X14658   4.780   5.626   9.510  0.2145 -0.2968 -1.2254
  135SAPE   H7Y14659   4.650   5.740   9.435 -0.9047  0.7689  2.3492
  135SAPE   C3814660   4.682   5.565   9.328 -0.2579 -0.2777 -0.4688
  135SAPE   H8X14661   4.581   5.566   9.283 -0.9075  1.6622  0.9001
  135SAPE   H8Y14662   4.711   5.458   9.334  0.6116 -0.5136 -5.1478
  135SAPE   C3914663   4.778   5.633   9.235  0.4180  0.2628  0.4876
  135SAPE   H9X14664   4.877   5.599   9.273  0.4770 -1.0707 -0.7770
  135SAPE   H9Y14665   4.758   5.742   9.246 -0.1474  0.2144  0.0177
  135SAPE  C31014666   4.760   5.594   9.082  0.2998  0.1474  0.0816
  135SAPE  H10X14667   4.817   5.666   9.019  0.7832  0.2387  0.6156
  135SAPE  H10Y14668   4.655   5.586   9.046 -0.8730 -0.3949  3.3091
  135SAPE  C31114669   4.828   5.457   9.058  0.0851 -0.3002  0.4832
  135SAPE  H11X14670   4.779   5.372   9.111  1.0643 -1.1743  0.0234
  135SAPE  H11Y14671   4.931   5.463   9.100 -0.2199 -0.2634  1.2415
  135SAPE  C31214672   4.848   5.430   8.912  0.3149  0.3015  0.6691
  135SAPE  H12X14673   4.873   5.520   8.853  1.4855  0.1052  0.8446
  135SAPE  H12Y14674   4.751   5.392   8.874  0.0741  0.1520  1.4118
  135SAPE  C31314675   4.949   5.319   8.879 -0.0595  0.5489  0.5187
  135SAPE  H13X14676   5.043   5.350   8.930 -0.0298  3.0478 -0.8978
  135SAPE  H13Y14677   4.958   5.319   8.768 -0.8872 -0.7285  0.4244
  135SAPE  C31414678   4.908   5.181   8.927 -0.0223  0.0141 -0.0883
  135SAPE  H14X14679   4.809   5.166   8.880 -0.4308  3.1222 -0.4197
  135SAPE  H14Y14680   4.888   5.176   9.036  2.0936  1.1977  0.4041
  135SAPE  C31514681   5.007   5.067   8.890  0.5219 -0.3032  0.0292
  135SAPE  H15X14682   4.986   5.052   8.782  1.2552 -2.0099  0.0863
  135SAPE  H15Y14683   4.981   4.967   8.933  1.4286 -0.6771 -0.2655
  135SAPE  C31614684   5.155   5.083   8.927  0.4875  0.7010 -0.1440
  135SAPE  H16X14685   5.152   5.121   9.031  1.1082 -0.0665  0.1667
  135SAPE  H16Y14686   5.193   5.163   8.861 -0.0789 -0.8339 -2.4737
  135SAPE  C31714687   5.247   4.960   8.926 -0.2826 -0.1741  0.1547
  135SAPE  H17X14688   5.230   4.906   8.831  3.3446 -1.9578  0.3260
  135SAPE  H17Y14689   5.219   4.895   9.012  1.1969  0.4491  1.1701
  135SAPE  C31814690   5.389   5.010   8.934  0.0760  0.4038  0.2445
  135SAPE  H18X14691   5.462   4.927   8.933  0.1803  0.4047 -2.9171
  135SAPE  H18Y14692   5.382   5.066   9.030 -0.3594  1.1560 -0.2127
  135SAPE  H18Z14693   5.408   5.073   8.845 -1.6367  1.4615  0.5834
  136SAPE     N14694   2.229   3.313  10.772  0.4604  0.2878  0.4406
  136SAPE   HN114695   2.307   3.324  10.705  0.1523 -0.1592  0.0011
  136SAPE   HN214696   2.253   3.230  10.831 -1.0341 -0.3060  0.2585
  136SAPE   HN314697   2.139   3.297  10.722 -0.2024  0.2589  1.5888
  136SAPE   C1214698   2.211   3.441  10.845 -0.1996 -0.6731  0.0350
  136SAPE  H12A14699   2.115   3.431  10.900 -0.5386 -0.8549 -0.5669
  136SAPE  H12B14700   2.203   3.519  10.766  1.7527  0.1403  0.5704
  136SAPE   C1114701   2.334   3.483  10.933 -0.2593 -0.2279 -0.8666
  136SAPE  H11A14702   2.334   3.421  11.025 -1.4056  0.8161 -0.1304
  136SAPE  H11B14703   2.315   3.580  10.983 -0.1895  0.3876 -2.0120
  136SAPE     P14704   2.513   3.583  10.760  0.1841 -0.4216 -0.2185
  136SAPE   O1314705   2.476   3.722  10.808 -0.1879 -0.1427 -0.1525
  136SAPE   O1414706   2.654   3.556  10.728 -0.1205 -0.0484  0.3539
  136SAPE   O1214707   2.462   3.478  10.871 -0.1071 -0.5873 -0.1535
  136SAPE   O1114708   2.416   3.537  10.637  0.1158  0.5031  0.0389
  136SAPE    C114709   2.340   3.633  10.563  0.0160 -0.8237 -0.2414
  136SAPE    HA14710   2.257   3.662  10.632 -0.3326 -1.3429 -0.4296
  136SAPE    HB14711   2.404   3.722  10.546  0.7633 -0.8344  2.1210
  136SAPE    C214712   2.277   3.586  10.433  0.3982  0.1191  0.4156
  136SAPE    HS14713   2.198   3.509  10.447 -0.5148  1.2043  1.4281
  136SAPE   O2114714   2.385   3.547  10.345 -0.0147  0.2576 -0.2750
  136SAPE   C2114715   2.358   3.463  10.244 -0.5429  0.2631  0.0032
  136SAPE   O2214716   2.271   3.376  10.250 -0.0984  0.3070  0.0017
  136SAPE   C2214717   2.459   3.477  10.124 -0.1347  0.1405 -1.0366
  136SAPE   H2R14718   2.423   3.544  10.043  1.1645  1.7037 -0.3698
  136SAPE   H2S14719   2.551   3.525  10.164 -0.8004 -0.2655  1.1383
  136SAPE    C314720   2.206   3.701  10.356  0.1985  0.0989  0.1682
  136SAPE    HX14721   2.288   3.776  10.354 -1.2320  1.8363  2.3478
  136SAPE    HY14722   2.127   3.755  10.413  1.3249  1.0386  0.9116
  136SAPE   O3114723   2.164   3.672  10.223  0.7509  0.5794  0.2220
  136SAPE   C3114724   2.095   3.758  10.163  0.1313 -0.7466 -0.0239
  136SAPE   O3214725   2.068   3.873  10.207 -0.6467 -0.1903  0.2207
  136SAPE   C3214726   2.043   3.711  10.026 -0.0049  0.9835  0.3383
  136SAPE   H2X14727   1.956   3.647  10.056  0.9216  1.1612  3.8076
  136SAPE   H2Y14728   2.119   3.636   9.998  1.1284  2.6758 -1.3401
  136SAPE   C2314729   2.495   3.345  10.058 -0.3238  0.8082  0.5771
  136SAPE   H3R14730   2.396   3.296  10.049 -0.3167  1.1638 -3.6287
  136SAPE   H3S14731   2.549   3.282  10.132 -1.3864 -0.7229  0.1096
  136SAPE   C2414732   2.562   3.352   9.926 -0.1158 -0.3017 -0.2921
  136SAPE   H4R14733   2.507   3.410   9.850  1.5455  1.0607 -0.5293
  136SAPE   H4S14734   2.586   3.250   9.890  1.2164 -0.9824  2.2624
  136SAPE   C2514735   2.695   3.421   9.950  0.4935 -0.2909  0.0388
  136SAPE   H5R14736   2.713   3.424  10.059 -1.2525  0.7661  0.3276
  136SAPE   C2614737   2.789   3.464   9.862  0.4350  0.6763 -0.0737
  136SAPE   H6R14738   2.872   3.524   9.901  1.2255 -0.0625 -0.6031
  136SAPE   C2714739   2.779   3.463   9.705 -0.0685  0.2419 -0.0329
  136SAPE   H7R14740   2.763   3.566   9.667 -0.5281 -0.4770 -1.8727
  136SAPE   H7S14741   2.686   3.410   9.677 -1.2920  0.8259  2.5797
  136SAPE   C2814742   2.898   3.414   9.635 -0.8890  0.6104 -1.4548
  136SAPE   H8R14743   2.941   3.332   9.694 -0.9108  1.6226  0.0207
  136SAPE   C2914744   2.966   3.455   9.527  0.7520  0.6118 -0.3877
  136SAPE   H9R14745   3.063   3.408   9.505  0.5003 -0.5931  0.8735
  136SAPE  C21014746   2.929   3.576   9.452 -0.2356 -0.0112 -0.3884
  136SAPE  H10R14747   3.029   3.608   9.417 -0.0964 -0.5440 -0.4809
  136SAPE  H10S14748   2.890   3.658   9.516  0.2120 -1.6712  2.1594
  136SAPE  C21114749   2.838   3.565   9.334  0.5175 -0.1710 -0.1695
  136SAPE  H11R14750   2.748   3.502   9.337  0.1313  0.3579  2.9301
  136SAPE  C21214751   2.859   3.627   9.218 -0.7904 -0.4192  0.2119
  136SAPE  H12R14752   2.779   3.611   9.143  0.4169  1.1707 -1.4893
  136SAPE  C21314753   2.985   3.704   9.175 -0.4156 -0.2018 -0.2951
  136SAPE  H13R14754   3.060   3.625   9.153 -0.1228  0.1843 -0.7006
  136SAPE  H13S14755   3.022   3.759   9.264  1.8888 -3.6697  1.1033
  136SAPE  C21414756   2.947   3.800   9.069 -0.7480  0.0714 -0.0313
  136SAPE  H14R14757   2.896   3.894   9.095 -1.7006 -0.7482  1.1476
  136SAPE  C21514758   2.968   3.774   8.935  0.1479 -0.0398  0.0250
  136SAPE  H15R14759   2.937   3.843   8.855  1.0874  1.0415  0.5659
  136SAPE  C21614760   3.034   3.648   8.879 -0.1516 -1.0339  1.0308
  136SAPE  H16R14761   2.972   3.556   8.882 -0.7947 -0.6511 -0.1041
  136SAPE  H16S14762   3.128   3.625   8.934  0.0390  1.2047  1.7282
  136SAPE  C21714763   3.076   3.678   8.733  0.3969 -0.0216  0.4666
  136SAPE  H17R14764   3.147   3.764   8.735 -0.8706  1.1043 -0.7481
  136SAPE  H17S14765   2.985   3.719   8.684  1.0674  0.8672 -0.0829
  136SAPE  C21814766   3.141   3.568   8.647 -0.4860  0.1474 -0.2468
  136SAPE  H18R14767   3.070   3.484   8.657 -0.0679 -0.1682  0.1357
  136SAPE  H18S14768   3.237   3.543   8.697 -0.9056 -0.2898  0.3465
  136SAPE  C21914769   3.162   3.604   8.497  0.7089  1.0877  0.6258
  136SAPE  H19R14770   3.068   3.661   8.480 -1.5742 -2.0365  1.8279
  136SAPE  H19S14771   3.177   3.515   8.432  0.6886  1.4286  0.1481
  136SAPE  C22014772   3.280   3.692   8.455  0.1994 -0.1767  0.5054
  136SAPE  H20R14773   3.282   3.789   8.510 -4.1758  0.0290  0.7135
  136SAPE  H20S14774   3.282   3.706   8.345  0.4366 -3.6212 -0.0476
  136SAPE  H20T14775   3.374   3.639   8.482  0.1087 -0.5233  0.1522
  136SAPE   C3314776   2.010   3.818   9.923 -0.3038  0.1113 -0.0828
  136SAPE   H3X14777   2.099   3.882   9.907 -0.9579  1.5809  1.7252
  136SAPE   H3Y14778   1.931   3.887   9.959  0.9362  1.1502  0.7323
  136SAPE   C3414779   1.955   3.756   9.796  0.6251 -0.2602  0.7884
  136SAPE   H4X14780   1.849   3.724   9.808  0.4484  0.1981  0.4981
  136SAPE   H4Y14781   2.015   3.666   9.772 -0.1974 -0.2168 -1.7778
  136SAPE   C3514782   1.969   3.845   9.675  0.3195  0.0654  0.4270
  136SAPE   H5X14783   2.073   3.880   9.662  0.4859 -0.1463  1.1724
  136SAPE   H5Y14784   1.913   3.939   9.694  1.5661  0.6073  1.5313
  136SAPE   C3614785   1.924   3.782   9.544  0.3138 -0.0641  0.8597
  136SAPE   H6X14786   1.814   3.764   9.551  0.1525  0.8665  0.8559
  136SAPE   H6Y14787   1.979   3.686   9.545  1.7049  0.6797 -0.4641
  136SAPE   C3714788   1.954   3.867   9.419 -0.1900 -0.6542  0.3770
  136SAPE   H7X14789   1.914   3.969   9.440 -1.2012 -1.3532  1.9387
  136SAPE   H7Y14790   1.912   3.828   9.324  0.1926 -2.4714  0.9292
  136SAPE   C3814791   2.109   3.862   9.384  0.8891  0.2115 -0.4898
  136SAPE   H8X14792   2.140   3.761   9.351 -0.2971  0.0934 -1.2946
  136SAPE   H8Y14793   2.154   3.894   9.481 -2.1475 -0.0588  1.1461
  136SAPE   C3914794   2.151   3.969   9.278  0.3188 -0.5218  1.6463
  136SAPE   H9X14795   2.258   3.997   9.276  0.0106  1.0275 -2.5177
  136SAPE   H9Y14796   2.100   4.064   9.307 -0.8215 -0.0537 -1.5801
  136SAPE  C31014797   2.101   3.951   9.130 -0.0352 -0.1587  0.0545
  136SAPE  H10X14798   2.112   4.044   9.071  0.6471 -0.1291  0.2142
  136SAPE  H10Y14799   1.992   3.933   9.138 -0.7676  3.5997  0.5583
  136SAPE  C31114800   2.167   3.849   9.049 -0.4369  0.1240  0.2660
  136SAPE  H11X14801   2.108   3.821   8.959  0.8852 -1.7627 -0.0774
  136SAPE  H11Y14802   2.164   3.752   9.103  1.9956  0.3339  0.8859
  136SAPE  C31214803   2.309   3.885   8.997  0.8156  0.1968  0.4531
  136SAPE  H12X14804   2.380   3.918   9.075  1.3276 -2.3049  1.1316
  136SAPE  H12Y14805   2.295   3.963   8.919 -0.3369 -2.5733 -2.3574
  136SAPE  C31314806   2.374   3.764   8.936 -0.0285  0.1386 -0.7211
  136SAPE  H13X14807   2.302   3.709   8.872 -0.1651 -0.1034 -0.3657
  136SAPE  H13Y14808   2.388   3.701   9.027  2.7058 -0.5587 -1.5532
  136SAPE  C31414809   2.507   3.783   8.860  0.5830 -0.2187  0.2477
  136SAPE  H14X14810   2.566   3.859   8.915  3.2790 -0.3896 -2.1561
  136SAPE  H14Y14811   2.476   3.834   8.766 -2.1866 -0.8382  0.7374
  136SAPE  C31514812   2.596   3.658   8.836 -0.6597 -0.1230 -0.4142
  136SAPE  H15X14813   2.603   3.619   8.940  0.3227  1.1794  0.0363
  136SAPE  H15Y14814   2.691   3.705   8.803 -0.8139  0.0342 -0.6378
  136SAPE  C31614815   2.541   3.547   8.750  0.5556  0.5468  1.3224
  136SAPE  H16X14816   2.516   3.576   8.646  0.7598 -1.0919  0.7955
  136SAPE  H16Y14817   2.442   3.515   8.789  0.1019 -0.8476 -0.8160
  136SAPE  C31714818   2.642   3.433   8.750  0.2765 -0.5199  0.5489
  136SAPE  H17X14819   2.592   3.353   8.692  0.7864  1.4523 -2.9332
  136SAPE  H17Y14820   2.667   3.395   8.851 -0.9099 -2.1985  0.2525
  136SAPE  C31814821   2.774   3.468   8.681  0.7043  1.0103  0.2079
  136SAPE  H18X14822   2.821   3.369   8.666  0.8805  1.4853 -3.5692
  136SAPE  H18Y14823   2.834   3.526   8.755  2.3871 -0.0881 -0.2477
  136SAPE  H18Z14824   2.753   3.529   8.590  0.8046 -0.3133 -0.7256
  137SAPE     N14825   5.405   0.831  11.134  0.0729  0.4330  0.1026
  137SAPE   HN114826   5.436   0.891  11.055 -0.6952  0.2448 -0.3580
  137SAPE   HN214827   5.417   0.875  11.227  2.2229 -0.8408  0.4916
  137SAPE   HN314828   5.469   0.749  11.143 -1.5506 -0.6817  2.7780
  137SAPE   C1214829   5.267   0.773  11.107 -0.0061  0.1343  0.3198
  137SAPE  H12A14830   5.189   0.852  11.099 -1.9407 -1.8524 -2.3923
  137SAPE  H12B14831   5.243   0.712  11.197  0.3867  0.6293  0.7651
  137SAPE   C1114832   5.269   0.694  10.976  0.0941 -0.3218 -0.1002
  137SAPE  H11A14833   5.343   0.613  10.988  1.9118  1.2134 -0.4966
  137SAPE  H11B14834   5.302   0.762  10.895  0.0279 -0.4995 -0.2764
  137SAPE     P14835   5.104   0.523  10.866  0.2219 -0.0840  0.1908
  137SAPE   O1314836   5.125   0.396  10.939 -0.2597 -0.4735 -1.1448
  137SAPE   O1414837   4.968   0.539  10.809  0.3593 -0.4402  0.5589
  137SAPE   O1214838   5.136   0.649  10.955 -0.1311 -0.0523  0.2292
  137SAPE   O1114839   5.222   0.523  10.760  0.0063 -0.5434 -0.2699
  137SAPE    C114840   5.230   0.630  10.666  0.2424  0.7696 -0.7822
  137SAPE    HA14841   5.143   0.698  10.680  0.5588  1.0167  0.0704
  137SAPE    HB14842   5.325   0.683  10.685  0.8517 -0.9407  1.4072
  137SAPE    C214843   5.222   0.574  10.521  0.1520 -0.4718  0.3910
  137SAPE    HS14844   5.154   0.487  10.517  1.5597 -1.7103  1.7707
  137SAPE   O2114845   5.363   0.556  10.478 -0.6154  0.1414 -0.1035
  137SAPE   C2114846   5.399   0.434  10.474  0.3454 -0.3271 -0.8222
  137SAPE   O2214847   5.324   0.333  10.491  0.1781 -0.4293  0.6522
  137SAPE   C2214848   5.546   0.428  10.439  0.4470  0.7705  0.3433
  137SAPE   H2R14849   5.571   0.528  10.399  0.1132  0.8558  0.3494
  137SAPE   H2S14850   5.603   0.413  10.534 -1.0957  1.6067  1.4387
  137SAPE    C314851   5.144   0.682  10.430 -0.2952  0.2329  0.2829
  137SAPE    HX14852   5.185   0.784  10.451 -1.9289  1.0702 -0.4220
  137SAPE    HY14853   5.042   0.678  10.473 -0.8259  0.0658 -0.9702
  137SAPE   O3114854   5.146   0.637  10.292  0.1658 -0.0905 -0.7529
  137SAPE   C3114855   5.248   0.696  10.228  0.4418 -0.8396 -0.1118
  137SAPE   O3214856   5.315   0.792  10.266  0.3861 -0.0761 -0.5260
  137SAPE   C3214857   5.259   0.641  10.091  0.1520  0.0200  0.3408
  137SAPE   H2X14858   5.322   0.714  10.035 -2.1502  2.2863  0.5393
  137SAPE   H2Y14859   5.156   0.634  10.050  0.6406  0.7695 -1.0982
  137SAPE   C2314860   5.573   0.323  10.327  0.2638 -0.3574 -0.9696
  137SAPE   H3R14861   5.530   0.334  10.225  0.1248 -2.5319 -1.2003
  137SAPE   H3S14862   5.532   0.222  10.351 -4.0633  0.6473 -3.1156
  137SAPE   C2414863   5.724   0.299  10.312 -0.2387  0.8461  0.1774
  137SAPE   H4R14864   5.743   0.203  10.258 -1.5050  1.7092 -1.9516
  137SAPE   H4S14865   5.773   0.297  10.411  1.0002 -0.6787 -0.4250
  137SAPE   C2514866   5.795   0.414  10.240  0.6849  0.0106 -0.6300
  137SAPE   H5R14867   5.849   0.462  10.324 -0.4696 -0.3071  0.3278
  137SAPE   C2614868   5.819   0.442  10.117  0.6902 -0.6189  0.1230
  137SAPE   H6R14869   5.873   0.533  10.086 -1.4537 -0.1036 -2.5102
  137SAPE   C2714870   5.765   0.370  10.000  0.1822  0.6506 -0.1974
  137SAPE   H7R14871   5.743   0.448   9.924 -1.1783 -0.9873 -1.5613
  137SAPE   H7S14872   5.671   0.313  10.016  1.2776 -2.0634 -2.6239
  137SAPE   C2814873   5.859   0.278   9.947 -0.3010 -0.0699 -0.1891
  137SAPE   H8R14874   5.900   0.212  10.024 -3.7035  0.0074  1.8777
  137SAPE   C2914875   5.909   0.260   9.821 -0.5501 -0.1812 -0.0898
  137SAPE   H9R14876   5.993   0.191   9.801 -0.2404  0.2401 -0.2648
  137SAPE  C21014877   5.874   0.351   9.707 -0.5412  0.2068 -0.0173
  137SAPE  H10R14878   5.962   0.415   9.685  1.1288 -2.1277 -0.5487
  137SAPE  H10S14879   5.784   0.411   9.732  1.9160  3.0882  2.7406
  137SAPE  C21114880   5.854   0.269   9.578 -0.0692 -0.3265 -0.4381
  137SAPE  H11R14881   5.795   0.176   9.582 -0.7011  0.0813 -0.1186
  137SAPE  C21214882   5.879   0.313   9.449 -0.1904  0.0668 -0.8937
  137SAPE  H12R14883   5.844   0.247   9.369 -0.4243  0.5146 -1.1618
  137SAPE  C21314884   5.932   0.451   9.410  0.6046  0.2225 -0.2415
  137SAPE  H13R14885   5.988   0.496   9.495 -0.4731 -2.4142  2.0525
  137SAPE  H13S14886   5.844   0.513   9.384 -0.4451 -2.0261 -2.4090
  137SAPE  C21414887   6.034   0.433   9.297  0.5163 -0.4703 -0.9141
  137SAPE  H14R14888   6.140   0.422   9.322  0.8833 -1.2387 -2.6725
  137SAPE  C21514889   6.014   0.455   9.164  0.2228  0.2303 -0.7211
  137SAPE  H15R14890   6.104   0.470   9.101  1.3374  3.3647  1.3259
  137SAPE  C21614891   5.877   0.490   9.107  0.0718 -0.4171  0.0332
  137SAPE  H16R14892   5.886   0.591   9.061  2.8787 -1.2189 -1.4005
  137SAPE  H16S14893   5.795   0.495   9.181 -0.6586  0.6478 -0.8221
  137SAPE  C21714894   5.837   0.400   8.992 -0.3851 -0.4161 -0.1757
  137SAPE  H17R14895   5.829   0.294   9.026  3.2713 -0.2359  1.7017
  137SAPE  H17S14896   5.920   0.409   8.918 -1.1366  0.7592 -0.9255
  137SAPE  C21814897   5.723   0.455   8.906 -0.0996 -0.4642  0.2770
  137SAPE  H18R14898   5.729   0.402   8.808  0.9228 -0.8561  0.5402
  137SAPE  H18S14899   5.735   0.564   8.888  1.4596 -0.7087 -0.2853
  137SAPE  C21914900   5.588   0.414   8.958  0.1673  0.2680  0.1308
  137SAPE  H19R14901   5.581   0.447   9.064  1.2292  0.1416  0.2514
  137SAPE  H19S14902   5.572   0.305   8.941  0.8194  0.3394 -1.0176
  137SAPE  C22014903   5.472   0.491   8.890 -0.2667  0.3105  0.2328
  137SAPE  H20R14904   5.459   0.451   8.787  0.1178  0.2653  0.2001
  137SAPE  H20S14905   5.494   0.600   8.887  1.4217  0.0707  1.8625
  137SAPE  H20T14906   5.376   0.474   8.943 -1.6927  1.1541 -1.9207
  137SAPE   C3314907   5.331   0.508  10.078 -0.2313  0.5362 -0.1911
  137SAPE   H3X14908   5.274   0.437  10.142  0.4312 -0.4305 -0.6486
  137SAPE   H3Y14909   5.432   0.506  10.123  0.8617 -0.2537 -2.5305
  137SAPE   C3414910   5.330   0.440   9.938 -0.2323 -0.0950 -0.1509
  137SAPE   H4X14911   5.235   0.458   9.882 -0.5173  2.5447  1.0347
  137SAPE   H4Y14912   5.353   0.333   9.954 -0.3945  0.0796  1.3402
  137SAPE   C3514913   5.436   0.510   9.849 -0.6785 -0.2841 -0.6315
  137SAPE   H5X14914   5.539   0.523   9.889 -1.1351  0.3507  0.3889
  137SAPE   H5Y14915   5.405   0.616   9.849 -0.1626 -0.1251  0.0541
  137SAPE   C3614916   5.445   0.452   9.708 -0.3034  0.4531 -0.7995
  137SAPE   H6X14917   5.363   0.379   9.693 -0.6980  1.2397 -2.8091
  137SAPE   H6Y14918   5.529   0.384   9.685 -2.3925 -2.8243  0.5784
  137SAPE   C3714919   5.441   0.557   9.594 -0.1070 -1.2901  0.0754
  137SAPE   H7X14920   5.524   0.631   9.607 -1.1912  0.2542 -1.2583
  137SAPE   H7Y14921   5.342   0.605   9.608  1.2855  1.9866 -0.1641
  137SAPE   C3814922   5.448   0.484   9.461 -0.0861 -0.1794 -0.3897
  137SAPE   H8X14923   5.347   0.440   9.453 -0.1076 -0.1300 -0.3888
  137SAPE   H8Y14924   5.526   0.407   9.481  1.4392  1.9830  2.9979
  137SAPE   C3914925   5.493   0.573   9.346  0.6733  0.5836  0.2082
  137SAPE   H9X14926   5.519   0.505   9.262 -1.2399 -3.4533  2.6061
  137SAPE   H9Y14927   5.595   0.601   9.379  1.1260 -0.8614  0.0817
  137SAPE  C31014928   5.406   0.688   9.311  0.3301 -0.0072  0.4543
  137SAPE  H10X14929   5.460   0.758   9.244  1.6538  0.4782  1.9768
  137SAPE  H10Y14930   5.391   0.751   9.401  1.7650  1.1089 -0.0431
  137SAPE  C31114931   5.269   0.641   9.257 -0.1690  0.1572 -0.5534
  137SAPE  H11X14932   5.228   0.572   9.334 -1.1573  0.8446 -0.4431
  137SAPE  H11Y14933   5.284   0.581   9.165  0.3817  0.6353 -0.7797
  137SAPE  C31214934   5.160   0.750   9.236  0.1399  0.1976 -0.4895
  137SAPE  H12X14935   5.132   0.781   9.339  0.0249  0.2333 -0.5315
  137SAPE  H12Y14936   5.076   0.698   9.184 -0.0887 -1.1218  1.1176
  137SAPE  C31314937   5.212   0.873   9.161 -0.4609  0.3589  0.4587
  137SAPE  H13X14938   5.287   0.936   9.213 -0.2911  3.0523 -2.7355
  137SAPE  H13Y14939   5.129   0.947   9.153 -1.6455 -0.7675  1.6913
  137SAPE  C31414940   5.252   0.840   9.015 -0.6426  0.2603 -0.1432
  137SAPE  H14X14941   5.173   0.780   8.966 -0.9486  1.4944 -1.2314
  137SAPE  H14Y14942   5.346   0.782   9.021 -0.8149 -0.0472 -0.3991
  137SAPE  C31514943   5.282   0.965   8.938  0.0840 -0.5394  0.0684
  137SAPE  H15X14944   5.369   1.022   8.976  0.0983  0.4285 -1.3266
  137SAPE  H15Y14945   5.203   1.038   8.965  0.0371 -1.1512  1.6676
  137SAPE  C31614946   5.315   0.935   8.791 -0.7588 -0.3172 -0.2100
  137SAPE  H16X14947   5.228   0.891   8.737 -2.2243  0.3101  1.5506
  137SAPE  H16Y14948   5.395   0.859   8.781  0.2308  0.9104 -2.7473
  137SAPE  C31714949   5.375   1.044   8.701  0.0020  0.2908 -0.1143
  137SAPE  H17X14950   5.424   1.000   8.611 -0.0576  0.0563 -0.0324
  137SAPE  H17Y14951   5.449   1.103   8.759  0.7383  0.4323 -1.1711
  137SAPE  C31814952   5.262   1.128   8.641  0.6497 -1.3194  0.2198
  137SAPE  H18X14953   5.212   1.178   8.727  1.7353  1.2958 -0.5563
  137SAPE  H18Y14954   5.186   1.083   8.574  0.4972  1.9590 -2.0483
  137SAPE  H18Z14955   5.296   1.216   8.583  1.0951 -1.4164  0.3274
  138SAPE     N14956   2.303   1.597  10.907  0.1079 -0.4377 -0.0775
  138SAPE   HN114957   2.357   1.575  10.821  0.9008  0.8644  0.0434
  138SAPE   HN214958   2.365   1.584  10.990  0.4531  0.2002 -0.2228
  138SAPE   HN314959   2.221   1.537  10.926  0.6961 -0.5403  2.5100
  138SAPE   C1214960   2.253   1.741  10.909 -0.6104 -0.2837  0.5887
  138SAPE  H12A14961   2.145   1.744  10.934 -0.5502 -0.0378  0.8269
  138SAPE  H12B14962   2.261   1.780  10.805 -0.4655 -0.8667  0.3809
  138SAPE   C1114963   2.331   1.833  11.007 -0.5521  0.0438 -0.9861
  138SAPE  H11A14964   2.295   1.797  11.106  0.0679  1.5171 -0.1989
  138SAPE  H11B14965   2.296   1.938  11.001 -0.1846  0.5153  2.6411
  138SAPE     P14966   2.556   1.918  10.919 -0.6911 -0.1864  0.0252
  138SAPE   O1314967   2.588   2.039  11.001  0.2504 -0.3775  0.2418
  138SAPE   O1414968   2.668   1.849  10.849 -0.5828 -0.5617 -0.4287
  138SAPE   O1214969   2.475   1.819  11.003  0.5711  0.3759 -0.2775
  138SAPE   O1114970   2.454   1.956  10.802 -0.5247 -0.1215 -0.4649
  138SAPE    C114971   2.442   2.086  10.746  1.0084 -0.1634 -0.2100
  138SAPE    HA14972   2.337   2.117  10.762  1.3721  0.7045  0.5827
  138SAPE    HB14973   2.498   2.167  10.798  1.9556 -0.4794 -0.7064
  138SAPE    C214974   2.484   2.085  10.592 -0.1716  0.0033  1.1300
  138SAPE    HS14975   2.445   2.183  10.557 -1.4261 -0.2380  1.7890
  138SAPE   O2114976   2.423   1.972  10.514  0.2222 -0.5284 -0.4634
  138SAPE   C2114977   2.302   1.966  10.498  0.3633  0.2380 -0.0800
  138SAPE   O2214978   2.216   2.042  10.543 -0.2971  0.2064 -0.7334
  138SAPE   C2214979   2.273   1.833  10.432 -0.3399 -0.5989  0.1920
  138SAPE   H2R14980   2.369   1.790  10.397 -0.3755 -1.8990  1.5625
  138SAPE   H2S14981   2.227   1.771  10.513  0.9939 -0.5563  1.0098
  138SAPE    C314982   2.640   2.101  10.566 -0.6533  0.0048 -0.0971
  138SAPE    HX14983   2.687   2.018  10.625  1.7533 -0.0260 -1.8867
  138SAPE    HY14984   2.671   2.196  10.615  0.3738 -0.9053  1.1237
  138SAPE   O3114985   2.679   2.101  10.430  0.0614  0.0611  0.2501
  138SAPE   C3114986   2.684   1.974  10.379 -0.3123 -0.7620 -0.0660
  138SAPE   O3214987   2.680   1.871  10.444  0.5044  0.2593  0.1698
  138SAPE   C3214988   2.689   1.986  10.224  0.1985 -0.6892 -0.8169
  138SAPE   H2X14989   2.717   1.891  10.174  0.2613 -0.8582 -0.4650
  138SAPE   H2Y14990   2.770   2.063  10.218  1.1080 -1.7139 -2.8091
  138SAPE   C2314991   2.168   1.843  10.316  0.2974  0.0741 -0.7005
  138SAPE   H3R14992   2.201   1.925  10.250  3.9343 -1.1397 -0.6183
  138SAPE   H3S14993   2.064   1.853  10.353 -0.0470 -1.6814 -1.0918
  138SAPE   C2414994   2.174   1.713  10.229  0.1933 -0.2698 -0.3215
  138SAPE   H4R14995   2.157   1.622  10.291  1.0597 -0.0195  0.3047
  138SAPE   H4S14996   2.275   1.702  10.184 -0.0647 -2.3252 -0.4645
  138SAPE   C2514997   2.072   1.710  10.120 -0.3482  0.9219 -0.3752
  138SAPE   H5R14998   1.966   1.690  10.143 -0.4926 -1.6596 -2.7459
  138SAPE   C2614999   2.096   1.728   9.987 -0.8266  0.2049  1.0807
  138SAPE   H6R15000   2.005   1.736   9.926  0.3464  0.9573 -0.6583
  138SAPE   C2715001   2.229   1.767   9.918 -0.3578  0.4911 -0.3644
  138SAPE   H7R15002   2.265   1.685   9.852  1.1747 -0.8042  1.9383
  138SAPE   H7S15003   2.313   1.783   9.989 -0.0387  0.4496 -0.7297
  138SAPE   C2815004   2.229   1.885   9.834  0.6447 -0.4332  0.1052
  138SAPE   H8R15005   2.272   1.976   9.876 -0.0806 -0.8187  1.7586
  138SAPE   C2915006   2.177   1.892   9.703 -0.3680  1.0296  0.0034
  138SAPE   H9R15007   2.193   1.979   9.637  0.9570  0.4107 -0.5525
  138SAPE  C21015008   2.111   1.781   9.632 -1.0614  0.4317 -0.6198
  138SAPE  H10R15009   2.056   1.711   9.699 -2.0067  1.6304 -0.1118
  138SAPE  H10S15010   2.195   1.731   9.580  0.8191  0.1232  2.4573
  138SAPE  C21115011   2.012   1.830   9.533  0.2011  0.3953  0.0900
  138SAPE  H11R15012   1.910   1.844   9.571  0.2206  0.4804  0.1097
  138SAPE  C21215013   2.026   1.818   9.401 -0.9652 -0.8470 -0.0211
  138SAPE  H12R15014   1.943   1.841   9.333 -1.2756  2.4957  1.3035
  138SAPE  C21315015   2.156   1.780   9.328  0.1020  0.5890 -0.4283
  138SAPE  H13R15016   2.148   1.678   9.284  1.0691  1.6770 -3.3714
  138SAPE  H13S15017   2.245   1.777   9.395  0.7282 -1.3361 -1.2719
  138SAPE  C21415018   2.183   1.887   9.226  0.9153 -0.1967 -0.2285
  138SAPE  H14R15019   2.267   1.954   9.251 -0.8475  1.4520  1.5258
  138SAPE  C21515020   2.108   1.913   9.122 -0.4013  0.5502  0.7262
  138SAPE  H15R15021   2.144   1.991   9.053 -0.8871 -2.3130 -3.1715
  138SAPE  C21615022   1.986   1.838   9.068  0.2058  0.4531 -0.0059
  138SAPE  H16R15023   1.897   1.904   9.065  0.3641  0.7571  1.3487
  138SAPE  H16S15024   1.966   1.742   9.122 -0.3352  0.9638  0.7293
  138SAPE  C21715025   2.005   1.790   8.928  0.1591  0.9810  0.5592
  138SAPE  H17R15026   1.927   1.718   8.895  1.0901  0.9073 -1.6474
  138SAPE  H17S15027   2.088   1.717   8.918 -0.4426 -0.0975  2.8806
  138SAPE  C21815028   2.026   1.893   8.817 -0.0897 -0.4913 -0.3294
  138SAPE  H18R15029   2.039   1.831   8.726 -3.9402 -2.0100 -0.0298
  138SAPE  H18S15030   2.127   1.938   8.829 -0.0682  0.5672 -3.6070
  138SAPE  C21915031   1.914   1.989   8.792  0.7588  0.8868 -0.3765
  138SAPE  H19R15032   1.860   2.013   8.886  1.7124 -1.7039  0.9314
  138SAPE  H19S15033   1.842   1.930   8.732  2.6114 -2.6021  0.5535
  138SAPE  C22015034   1.947   2.120   8.731 -0.2474 -0.7850  0.1936
  138SAPE  H20R15035   1.985   2.187   8.811  0.8204  0.6355 -1.4382
  138SAPE  H20S15036   1.856   2.173   8.695  1.3631  1.0922 -1.3168
  138SAPE  H20T15037   2.019   2.104   8.648  1.8507 -0.3844  1.8462
  138SAPE   C3315038   2.548   2.026  10.171  0.4140 -0.4118  0.6998
  138SAPE   H3X15039   2.494   2.100  10.235  0.6529 -0.8682  1.4488
  138SAPE   H3Y15040   2.480   1.938  10.161  1.2597 -1.0745  0.6946
  138SAPE   C3415041   2.566   2.097  10.032  0.3955  0.1951  0.0727
  138SAPE   H4X15042   2.652   2.167  10.038  2.2576 -2.0528  1.0060
  138SAPE   H4Y15043   2.469   2.148  10.015  0.0195 -1.1017 -2.0204
  138SAPE   C3515044   2.595   1.988   9.932  0.4674  0.3408  0.8792
  138SAPE   H5X15045   2.506   1.922   9.934  0.9155 -0.3367 -0.3430
  138SAPE   H5Y15046   2.692   1.933   9.943 -0.0643 -0.3093  2.6060
  138SAPE   C3615047   2.579   2.051   9.790  0.3932 -0.5080  0.3142
  138SAPE   H6X15048   2.599   2.160   9.787 -0.3114 -0.3959 -0.4078
  138SAPE   H6Y15049   2.473   2.040   9.760  0.8264  1.2622 -2.1300
  138SAPE   C3715050   2.679   1.999   9.680  0.0122  0.1567 -0.4809
  138SAPE   H7X15051   2.665   1.889   9.682  1.0769  0.0074 -0.5873
  138SAPE   H7Y15052   2.779   2.035   9.713  0.1291 -1.0436  0.5118
  138SAPE   C3815053   2.628   2.049   9.536 -0.6800  0.1420 -0.2791
  138SAPE   H8X15054   2.612   2.159   9.532 -0.0443  0.2020 -2.0576
  138SAPE   H8Y15055   2.533   1.996   9.513 -0.1201 -0.3624 -1.5229
  138SAPE   C3915056   2.731   2.013   9.425  0.1885 -0.1960  0.3855
  138SAPE   H9X15057   2.732   1.902   9.417  1.6144 -0.1690 -0.0498
  138SAPE   H9Y15058   2.835   2.044   9.449  0.1254 -0.9082  1.7001
  138SAPE  C31015059   2.692   2.076   9.290  0.2260  0.3305  0.4351
  138SAPE  H10X15060   2.700   2.186   9.297 -1.1317  0.4756 -0.0375
  138SAPE  H10Y15061   2.589   2.044   9.262 -0.2499  1.8986  0.3358
  138SAPE  C31115062   2.781   2.013   9.179 -0.3245 -0.1531 -0.5271
  138SAPE  H11X15063   2.797   1.907   9.209  1.6457 -0.1783 -1.4914
  138SAPE  H11Y15064   2.876   2.068   9.194  0.1081 -1.1055  0.3762
  138SAPE  C31215065   2.719   2.014   9.042  0.3606  0.1947 -0.0379
  138SAPE  H12X15066   2.723   2.123   9.022 -2.0099  0.9040  2.6810
  138SAPE  H12Y15067   2.619   1.965   9.033  0.5433 -0.4664  1.2735
  138SAPE  C31315068   2.802   1.947   8.930 -0.2905  0.3537 -0.4401
  138SAPE  H13X15069   2.737   1.963   8.842 -0.2529  0.4338 -0.4536
  138SAPE  H13Y15070   2.819   1.839   8.953 -1.2911  0.2778 -0.0368
  138SAPE  C31415071   2.930   2.020   8.909 -0.8012 -0.2244  0.0469
  138SAPE  H14X15072   2.986   1.993   9.000 -1.7565 -0.4459  0.5827
  138SAPE  H14Y15073   2.903   2.128   8.903 -0.9961 -0.3148 -1.1244
  138SAPE  C31515074   3.007   1.992   8.780  0.3806  0.3628 -0.5552
  138SAPE  H15X15075   2.954   2.005   8.683  3.2288  0.4313 -2.2233
  138SAPE  H15Y15076   3.060   1.895   8.795  0.2608  0.3521 -0.1978
  138SAPE  C31615077   3.117   2.101   8.753  0.3233  0.2906  0.3492
  138SAPE  H16X15078   3.179   2.096   8.846 -0.9999  0.1448  1.2461
  138SAPE  H16Y15079   3.075   2.202   8.735  0.5787  0.0241 -2.1241
  138SAPE  C31715080   3.183   2.059   8.623 -0.0238  0.2926 -0.3607
  138SAPE  H17X15081   3.101   2.057   8.547 -1.0394  2.5812  0.5748
  138SAPE  H17Y15082   3.242   1.965   8.625 -1.0029 -0.3573 -1.1206
  138SAPE  C31815083   3.289   2.172   8.591  0.3042  0.5174 -0.3356
  138SAPE  H18X15084   3.254   2.277   8.599  0.1441  0.3223  2.8871
  138SAPE  H18Y15085   3.338   2.147   8.495  2.2421 -2.3167  1.2535
  138SAPE  H18Z15086   3.367   2.173   8.670 -0.7168  1.1707  0.6926
  139SAPE     N15087   2.094   6.737  10.810 -0.4412  0.9120  0.0964
  139SAPE   HN115088   2.040   6.672  10.870 -1.0672 -0.7594 -2.1350
  139SAPE   HN215089   2.115   6.690  10.720  3.0347  0.6183  0.8961
  139SAPE   HN315090   2.186   6.740  10.860 -0.5038 -2.0457  0.5698
  139SAPE   C1215091   2.028   6.873  10.806 -0.0568  0.3837  0.6915
  139SAPE  H12A15092   2.026   6.917  10.908 -0.7207  0.9750  0.4340
  139SAPE  H12B15093   1.930   6.853  10.758  1.3958  1.5120 -3.1916
  139SAPE   C1115094   2.101   6.974  10.706 -0.2872  0.4467 -0.0305
  139SAPE  H11A15095   2.053   7.075  10.704  1.6108  1.3809 -1.3441
  139SAPE  H11B15096   2.092   6.932  10.604  2.0545 -0.2547  0.0027
  139SAPE     P15097   2.349   7.043  10.646  0.1511  0.2265 -0.3376
  139SAPE   O1315098   2.332   7.191  10.659 -0.7256  0.1204  0.1627
  139SAPE   O1415099   2.482   6.992  10.680  0.3081 -0.2934  0.5243
  139SAPE   O1215100   2.239   6.981  10.740  0.3202 -0.5467 -0.4814
  139SAPE   O1115101   2.308   6.993  10.500 -0.2438 -1.1243  0.1498
  139SAPE    C115102   2.312   6.857  10.459 -0.0850  0.5134  0.0186
  139SAPE    HA15103   2.413   6.817  10.479 -0.0811  0.0969 -0.8259
  139SAPE    HB15104   2.237   6.791  10.507 -0.0930  0.5370  0.0391
  139SAPE    C215105   2.281   6.854  10.306 -0.2547  0.5852 -0.8979
  139SAPE    HS15106   2.275   6.747  10.276 -1.7773  0.2151  0.5326
  139SAPE   O2115107   2.378   6.924  10.226  0.6747 -0.4575 -0.0582
  139SAPE   C2115108   2.482   6.850  10.191 -1.1094  0.5193 -0.4383
  139SAPE   O2215109   2.492   6.730  10.219 -0.3860  0.0994  0.2372
  139SAPE   C2215110   2.575   6.931  10.094 -0.0497  0.3627 -0.5042
  139SAPE   H2R15111   2.500   6.998  10.047 -1.9309 -0.3743  1.3205
  139SAPE   H2S15112   2.644   6.987  10.161 -1.7794  0.3819  1.3161
  139SAPE    C315113   2.135   6.907  10.276  0.2279  0.3803 -0.3279
  139SAPE    HX15114   2.144   7.017  10.267 -2.5922  0.5653 -2.1202
  139SAPE    HY15115   2.063   6.877  10.356  0.7652  0.9369  0.3718
  139SAPE   O3115116   2.094   6.855  10.146 -0.3356 -0.3639 -0.2822
  139SAPE   C3115117   1.963   6.846  10.128 -0.2130  0.1969  0.0150
  139SAPE   O3215118   1.876   6.882  10.206 -0.4006 -0.5848  0.0444
  139SAPE   C3215119   1.945   6.774   9.994  0.1115  0.5650 -0.0201
  139SAPE   H2X15120   2.007   6.682  10.000  0.0892  0.6469  1.8188
  139SAPE   H2Y15121   1.996   6.839   9.921  0.9293  1.4344  1.2953
  139SAPE   C2315122   2.650   6.831  10.002  0.0228  0.4402  0.3021
  139SAPE   H3R15123   2.580   6.788   9.928 -1.6990  1.0424  1.5329
  139SAPE   H3S15124   2.688   6.748  10.066  0.8915  2.2541  2.2177
  139SAPE   C2415125   2.771   6.898   9.937  0.1026  0.5259 -0.3403
  139SAPE   H4R15126   2.823   6.815   9.884  0.4154 -0.5569  1.5812
  139SAPE   H4S15127   2.837   6.941  10.015  0.8692  0.6475 -1.0480
  139SAPE   C2515128   2.735   6.992   9.823  0.0783  0.1315  0.6717
  139SAPE   H5R15129   2.700   7.093   9.849  0.4742 -0.1337  2.3774
  139SAPE   C2615130   2.757   6.974   9.689 -0.4324  0.1198  0.2841
  139SAPE   H6R15131   2.744   7.059   9.620  1.4910 -0.7949 -1.3115
  139SAPE   C2715132   2.816   6.854   9.616  0.2334 -0.4252 -0.2367
  139SAPE   H7R15133   2.743   6.834   9.535  0.2615  0.5360 -0.5079
  139SAPE   H7S15134   2.813   6.758   9.673 -0.3514 -1.9444 -2.6913
  139SAPE   C2815135   2.945   6.886   9.562 -0.2674 -0.5809 -0.0465
  139SAPE   H8R15136   3.014   6.941   9.628 -2.0974  3.0707 -0.9173
  139SAPE   C2915137   2.986   6.865   9.436 -0.1142 -0.3063  0.1450
  139SAPE   H9R15138   3.087   6.894   9.406 -0.3305 -1.6197 -2.0633
  139SAPE  C21015139   2.909   6.798   9.309 -0.4346  0.6134 -1.1239
  139SAPE  H10R15140   2.836   6.724   9.348 -0.8340 -0.5450 -3.8170
  139SAPE  H10S15141   2.976   6.725   9.258 -1.2533 -0.8598 -0.1750
  139SAPE  C21115142   2.843   6.898   9.224 -0.3852  0.3025 -0.6853
  139SAPE  H11R15143   2.836   7.004   9.253 -1.4316 -0.1141  0.7403
  139SAPE  C21215144   2.804   6.868   9.097 -0.3967 -0.0222  0.5851
  139SAPE  H12R15145   2.759   6.948   9.035  1.5771  1.5294  1.0462
  139SAPE  C21315146   2.800   6.726   9.030 -0.2657  0.4782 -0.2189
  139SAPE  H13R15147   2.699   6.718   8.984 -0.7551 -0.2490  0.9363
  139SAPE  H13S15148   2.798   6.648   9.109 -1.5829  0.4082 -0.3011
  139SAPE  C21415149   2.917   6.729   8.937  0.4669  0.8487  0.2800
  139SAPE  H14R15150   3.014   6.715   8.988  0.8212  1.6183 -0.1665
  139SAPE  C21515151   2.918   6.732   8.799  0.3099 -0.4954 -0.0102
  139SAPE  H15R15152   3.014   6.730   8.746  1.6841 -2.0642  2.3640
  139SAPE  C21615153   2.790   6.745   8.724  0.0447 -0.3212  0.5091
  139SAPE  H16R15154   2.716   6.814   8.770  1.5989  0.6288  1.6967
  139SAPE  H16S15155   2.752   6.643   8.747 -1.5338  0.0061 -0.5162
  139SAPE  C21715156   2.802   6.769   8.574 -0.4875 -0.2105 -0.3151
  139SAPE  H17R15157   2.702   6.747   8.530  0.1160 -0.0498 -1.8073
  139SAPE  H17S15158   2.877   6.708   8.519 -1.4442  0.5203 -2.5525
  139SAPE  C21815159   2.828   6.918   8.549 -0.1134  0.5767  0.0498
  139SAPE  H18R15160   2.785   6.970   8.637  1.9806  1.1883  0.7666
  139SAPE  H18S15161   2.769   6.951   8.460 -1.3940 -0.1315  0.6168
  139SAPE  C21915162   2.978   6.965   8.538  0.4116  0.6093 -0.3002
  139SAPE  H19R15163   3.026   6.946   8.440 -0.7049 -1.7187 -0.4659
  139SAPE  H19S15164   3.032   6.907   8.617  0.5025  0.2689 -0.6121
  139SAPE  C22015165   2.984   7.121   8.558 -0.1851  0.6225  0.1148
  139SAPE  H20R15166   3.078   7.152   8.509 -1.0966  1.3023 -1.2441
  139SAPE  H20S15167   2.988   7.155   8.664 -2.1244  0.5833  0.2317
  139SAPE  H20T15168   2.902   7.168   8.501  0.9811  2.3177 -0.2326
  139SAPE   C3315169   1.799   6.753   9.955 -0.8595  0.3169 -0.3935
  139SAPE   H3X15170   1.743   6.848   9.939  1.5993  1.5997 -2.0406
  139SAPE   H3Y15171   1.738   6.698  10.030 -0.0415 -0.4247 -0.2559
  139SAPE   C3415172   1.780   6.672   9.827 -0.5134 -0.3420 -0.5367
  139SAPE   H4X15173   1.675   6.649   9.796 -0.4059 -1.3792 -0.1747
  139SAPE   H4Y15174   1.821   6.569   9.832 -0.2874 -0.1887  1.2478
  139SAPE   C3515175   1.837   6.743   9.702  0.3374 -0.1727  0.0940
  139SAPE   H5X15176   1.946   6.725   9.686  0.9619  3.1710 -0.2330
  139SAPE   H5Y15177   1.807   6.849   9.715 -2.6314 -0.6848 -1.7098
  139SAPE   C3615178   1.774   6.706   9.571  0.0251 -0.4175 -0.1463
  139SAPE   H6X15179   1.675   6.755   9.559  0.3914  0.4235  0.1476
  139SAPE   H6Y15180   1.752   6.598   9.578 -1.9225  0.0364  1.6091
  139SAPE   C3715181   1.851   6.743   9.444 -0.1762  0.2726  0.0322
  139SAPE   H7X15182   1.944   6.684   9.453 -0.6488 -0.7025 -1.1972
  139SAPE   H7Y15183   1.880   6.851   9.442  1.9795 -0.2530 -1.9614
  139SAPE   C3815184   1.782   6.734   9.312 -0.2574 -0.4660  0.2321
  139SAPE   H8X15185   1.685   6.789   9.318  0.0566  0.5753 -2.7333
  139SAPE   H8Y15186   1.760   6.625   9.306 -1.3938 -0.2573  0.2622
  139SAPE   C3915187   1.878   6.775   9.198 -0.1568 -0.0164 -0.4723
  139SAPE   H9X15188   1.974   6.720   9.199  2.0871  3.5542 -1.2528
  139SAPE   H9Y15189   1.900   6.883   9.209 -1.3809  0.2314 -0.2872
  139SAPE  C31015190   1.806   6.755   9.065  0.3295  0.6032 -0.5123
  139SAPE  H10X15191   1.701   6.784   9.082  0.4612  0.8143 -0.0526
  139SAPE  H10Y15192   1.807   6.650   9.027  1.4483  0.2280  0.5057
  139SAPE  C31115193   1.861   6.855   8.958  0.1743  0.6054  0.3350
  139SAPE  H11X15194   1.972   6.850   8.955  0.2500 -4.7883  1.7203
  139SAPE  H11Y15195   1.835   6.958   8.991  0.3739  0.4227  1.0887
  139SAPE  C31215196   1.795   6.810   8.824 -0.3329 -0.3543 -0.2132
  139SAPE  H12X15197   1.689   6.842   8.827 -0.3292 -0.2976  3.0151
  139SAPE  H12Y15198   1.820   6.707   8.790 -1.1766 -0.5458 -0.2700
  139SAPE  C31315199   1.854   6.897   8.718 -0.2887  0.7122 -0.7435
  139SAPE  H13X15200   1.964   6.882   8.714 -0.2872  0.5531 -0.1768
  139SAPE  H13Y15201   1.827   7.004   8.732 -1.3076  0.8897 -3.5970
  139SAPE  C31415202   1.794   6.866   8.576 -0.0191 -0.3501 -0.4833
  139SAPE  H14X15203   1.830   6.940   8.500  0.6944 -0.2916 -0.0907
  139SAPE  H14Y15204   1.684   6.881   8.583  0.3376  2.7170  0.1486
  139SAPE  C31515205   1.822   6.727   8.512  0.3766  0.4292 -0.0426
  139SAPE  H15X15206   1.743   6.712   8.435  2.2436 -2.7882 -1.5281
  139SAPE  H15Y15207   1.802   6.644   8.583 -0.0902  0.2635 -0.3635
  139SAPE  C31615208   1.953   6.705   8.437 -0.1369  0.1157  0.0134
  139SAPE  H16X15209   1.982   6.779   8.360 -0.0102 -1.3297 -1.3578
  139SAPE  H16Y15210   2.032   6.703   8.515 -0.5509  1.3343  0.4884
  139SAPE  C31715211   1.932   6.578   8.358  0.3929 -0.0147 -0.4717
  139SAPE  H17X15212   1.867   6.583   8.267 -1.2302  2.4584  0.7143
  139SAPE  H17Y15213   1.875   6.505   8.420  0.7823  1.5716  1.8721
  139SAPE  C31815214   2.069   6.507   8.329  0.2241 -0.5657  0.7677
  139SAPE  H18X15215   2.118   6.487   8.427  1.2423 -0.7276  0.2316
  139SAPE  H18Y15216   2.137   6.572   8.271 -0.8251  1.6436  1.9176
  139SAPE  H18Z15217   2.045   6.419   8.265  0.7630  0.3817 -0.7713
  140SAPE     N15218   5.326   3.253  10.853 -0.0789 -0.1804  0.2552
  140SAPE   HN115219   5.299   3.155  10.873  0.7152 -0.2650  0.9348
  140SAPE   HN215220   5.263   3.304  10.920 -0.3960  0.7796 -0.7382
  140SAPE   HN315221   5.297   3.276  10.756 -1.0569  0.4235  0.6647
  140SAPE   C1215222   5.467   3.283  10.882 -0.6351  0.0455 -0.7403
  140SAPE  H12A15223   5.522   3.238  10.796 -1.9009 -2.7363 -0.1914
  140SAPE  H12B15224   5.497   3.224  10.971 -0.4537  0.5814 -0.4454
  140SAPE   C1115225   5.496   3.427  10.893 -0.3728 -0.0919 -0.7861
  140SAPE  H11A15226   5.484   3.470  10.791 -3.4454 -0.5788 -0.7109
  140SAPE  H11B15227   5.599   3.438  10.934 -0.2830 -0.8612 -0.7796
  140SAPE     P15228   5.398   3.645  11.007  0.2765 -0.0941 -0.5850
  140SAPE   O1315229   5.281   3.673  11.095 -0.0918 -0.1614  1.5240
  140SAPE   O1415230   5.526   3.690  11.061  0.2027 -0.4201  0.3914
  140SAPE   O1215231   5.399   3.494  10.977 -1.1240  0.1135 -0.5328
  140SAPE   O1115232   5.383   3.715  10.867 -0.3160  0.1499 -0.2894
  140SAPE    C115233   5.319   3.846  10.876  0.2796 -1.3733  0.3734
  140SAPE    HA15234   5.209   3.836  10.885 -0.1747  2.4561  0.5593
  140SAPE    HB15235   5.359   3.910  10.958 -1.4652  0.7024 -0.3043
  140SAPE    C215236   5.334   3.942  10.753  0.2024 -0.3181  0.4661
  140SAPE    HS15237   5.291   4.038  10.788  0.1476 -0.7835  1.7044
  140SAPE   O2115238   5.272   3.887  10.640 -0.0133 -0.1336 -0.0793
  140SAPE   C2115239   5.138   3.894  10.639  0.5934 -0.2712 -0.5888
  140SAPE   O2215240   5.066   3.953  10.726 -0.1103  0.2608  0.0785
  140SAPE   C2215241   5.095   3.839  10.510 -0.2446 -0.0475  0.6184
  140SAPE   H2R15242   5.177   3.865  10.439 -1.0549 -1.0563 -0.7539
  140SAPE   H2S15243   5.087   3.728  10.521  0.1855  0.0430  1.9647
  140SAPE    C315244   5.485   3.974  10.723  0.4204  0.8654 -0.3248
  140SAPE    HX15245   5.526   3.878  10.687 -0.7287  0.7746 -1.4469
  140SAPE    HY15246   5.525   4.004  10.823 -0.7048 -0.0353  0.4281
  140SAPE   O3115247   5.496   4.079  10.628 -0.1033  0.1828  0.3677
  140SAPE   C3115248   5.559   4.055  10.510 -0.3925  0.2421 -0.4064
  140SAPE   O3215249   5.592   3.948  10.466  0.0315 -0.0127  0.1166
  140SAPE   C3215250   5.604   4.183  10.443  0.2977  0.2949  0.2998
  140SAPE   H2X15251   5.695   4.224  10.492  1.2894 -1.9651  0.4656
  140SAPE   H2Y15252   5.533   4.269  10.445 -0.0225  0.0216  1.1001
  140SAPE   C2315253   4.957   3.894  10.456  0.1519  0.0278  0.0691
  140SAPE   H3R15254   4.888   3.935  10.532  0.2425  2.8114 -1.2006
  140SAPE   H3S15255   4.895   3.813  10.412 -0.1227  0.2734 -0.0028
  140SAPE   C2415256   4.987   4.005  10.355 -0.0474  0.1513  0.5008
  140SAPE   H4R15257   4.894   4.008  10.295  0.1270 -2.3857 -0.0322
  140SAPE   H4S15258   5.062   3.970  10.282  1.8632 -0.5063  2.6619
  140SAPE   C2515259   5.015   4.142  10.408 -0.0552 -0.2469 -0.2732
  140SAPE   H5R15260   4.939   4.185  10.475 -1.3262 -0.2082 -1.7169
  140SAPE   C2615261   5.127   4.211  10.387 -0.5613 -0.0560 -0.5191
  140SAPE   H6R15262   5.143   4.297  10.453 -4.4725 -0.5335  1.3097
  140SAPE   C2715263   5.248   4.166  10.300 -0.0723  0.3107  0.0042
  140SAPE   H7R15264   5.227   4.071  10.247  2.6997 -0.2255 -0.3136
  140SAPE   H7S15265   5.332   4.155  10.372  0.8860  1.2195 -0.9220
  140SAPE   C2815266   5.301   4.264  10.196  0.6338 -0.0004  0.1861
  140SAPE   H8R15267   5.374   4.342  10.225  0.9239 -0.1163 -0.2181
  140SAPE   C2915268   5.261   4.267  10.067 -0.0154  0.4590  0.1630
  140SAPE   H9R15269   5.297   4.344   9.997 -2.9787  1.4261 -0.4159
  140SAPE  C21015270   5.149   4.173  10.016 -0.1630  0.2469 -0.2816
  140SAPE  H10R15271   5.078   4.237   9.961 -0.3010  0.9067  0.6368
  140SAPE  H10S15272   5.093   4.128  10.101  0.5055  0.3250  0.2072
  140SAPE  C21115273   5.214   4.076   9.924 -1.0390  0.5909  0.8947
  140SAPE  H11R15274   5.234   3.978   9.970 -3.7622 -0.7362 -0.4873
  140SAPE  C21215275   5.247   4.102   9.795  0.8616  0.5453 -0.7082
  140SAPE  H12R15276   5.298   4.017   9.749 -2.3100 -1.5720 -0.6595
  140SAPE  C21315277   5.240   4.225   9.707  0.0383 -0.6233 -0.3372
  140SAPE  H13R15278   5.339   4.236   9.658 -0.9208  1.2191 -2.0292
  140SAPE  H13S15279   5.224   4.312   9.773  3.3016 -1.8474  2.3561
  140SAPE  C21415280   5.137   4.221   9.593 -0.4519  0.7221 -0.5378
  140SAPE  H14R15281   5.064   4.303   9.596 -1.6050 -0.2935  0.7310
  140SAPE  C21515282   5.122   4.129   9.492  0.7776  0.2814 -0.1929
  140SAPE  H15R15283   5.049   4.149   9.413  0.5930  0.0990 -0.0692
  140SAPE  C21615284   5.215   4.010   9.468 -0.1705 -0.3562 -0.7574
  140SAPE  H16R15285   5.269   3.972   9.557  0.8522  0.1001 -1.1678
  140SAPE  H16S15286   5.297   4.055   9.408  0.0132  0.3661  0.0139
  140SAPE  C21715287   5.152   3.894   9.393  0.4092  0.1786 -0.7060
  140SAPE  H17R15288   5.084   3.837   9.460  0.9428 -0.1703 -0.4522
  140SAPE  H17S15289   5.236   3.826   9.368  0.0247 -0.8609  0.7112
  140SAPE  C21815290   5.077   3.916   9.257  0.4200  0.6338  0.4981
  140SAPE  H18R15291   5.010   4.004   9.268  1.7135  1.3419  3.9947
  140SAPE  H18S15292   5.015   3.825   9.244  1.0787 -0.1710  2.5330
  140SAPE  C21915293   5.170   3.938   9.129  0.1812 -0.0876 -0.0465
  140SAPE  H19R15294   5.251   4.010   9.153 -2.0687  2.8147 -0.6155
  140SAPE  H19S15295   5.106   3.976   9.046  0.8815  4.9707  1.3642
  140SAPE  C22015296   5.239   3.810   9.080  0.6163 -0.5965  0.2045
  140SAPE  H20R15297   5.165   3.742   9.033 -0.1344  0.9250 -0.9023
  140SAPE  H20S15298   5.282   3.766   9.172  1.1541  1.2129  0.8703
  140SAPE  H20T15299   5.323   3.839   9.013 -1.8225  0.3773 -2.6525
  140SAPE   C3315300   5.644   4.152  10.287  0.0050  0.0934 -0.4049
  140SAPE   H3X15301   5.552   4.135  10.227 -1.7782 -0.6328  2.3466
  140SAPE   H3Y15302   5.711   4.065  10.276  1.3576  0.6770  2.5064
  140SAPE   C3415303   5.726   4.257  10.212  0.3479  0.3929  0.0799
  140SAPE   H4X15304   5.815   4.288  10.270  0.9068  0.9493 -1.0436
  140SAPE   H4Y15305   5.664   4.350  10.204 -0.2520  0.5490  4.3874
  140SAPE   C3515306   5.783   4.212  10.079 -0.0936  0.0965 -0.0558
  140SAPE   H5X15307   5.694   4.170  10.027  1.6906 -2.3979 -1.2633
  140SAPE   H5Y15308   5.852   4.125  10.086 -0.0644 -0.0295 -1.5876
  140SAPE   C3615309   5.859   4.325  10.012  0.0970 -0.4202 -0.7778
  140SAPE   H6X15310   5.951   4.341  10.072 -0.5314  1.0036 -0.1531
  140SAPE   H6Y15311   5.790   4.413  10.010 -1.4304 -1.5709 -1.9983
  140SAPE   C3715312   5.889   4.287   9.867  0.0025 -0.0744 -0.7374
  140SAPE   H7X15313   5.800   4.247   9.814  0.2596  0.8409 -1.8941
  140SAPE   H7Y15314   5.957   4.199   9.874 -0.8042 -0.6257  0.4899
  140SAPE   C3815315   5.960   4.394   9.782  0.6366  0.6856 -0.1058
  140SAPE   H8X15316   6.004   4.466   9.854 -1.3384  0.0683  1.8378
  140SAPE   H8Y15317   5.874   4.444   9.732 -1.8687 -1.9172  1.2791
  140SAPE   C3915318   6.057   4.335   9.681 -0.2134 -1.0791 -0.4960
  140SAPE   H9X15319   6.127   4.269   9.736  0.0830 -0.3603  0.0027
  140SAPE   H9Y15320   6.111   4.426   9.648  1.6728 -2.7208 -2.0978
  140SAPE  C31015321   6.007   4.270   9.551 -0.3317 -0.4200 -0.9174
  140SAPE  H10X15322   5.939   4.345   9.505  0.4340  0.3722 -0.7824
  140SAPE  H10Y15323   5.959   4.172   9.573  0.4088 -0.4887  0.5502
  140SAPE  C31115324   6.117   4.241   9.452 -0.3196  0.1116  0.1481
  140SAPE  H11X15325   6.184   4.163   9.492 -1.4489 -0.3509  1.1948
  140SAPE  H11Y15326   6.182   4.328   9.426  2.6597 -2.1274 -0.3835
  140SAPE  C31215327   6.049   4.194   9.320 -0.3880  0.8170 -0.5456
  140SAPE  H12X15328   5.995   4.274   9.264  0.8015 -0.3308 -3.5610
  140SAPE  H12Y15329   5.977   4.113   9.347  0.5453  0.7191  1.8030
  140SAPE  C31315330   6.154   4.133   9.233 -0.2998  0.1465  0.2795
  140SAPE  H13X15331   6.223   4.074   9.298  0.0118  0.3292  0.1134
  140SAPE  H13Y15332   6.223   4.214   9.202  0.5957 -0.1761  1.3653
  140SAPE  C31415333   6.111   4.039   9.116 -0.6666 -0.4014 -0.0882
  140SAPE  H14X15334   6.072   4.106   9.036 -2.7232 -2.0896 -0.5766
  140SAPE  H14Y15335   6.036   3.970   9.159  1.4015 -1.5366  1.9303
  140SAPE  C31515336   6.226   3.953   9.066  0.0882  0.1311 -0.1835
  140SAPE  H15X15337   6.270   3.907   9.156 -2.3238 -2.8333 -0.3292
  140SAPE  H15Y15338   6.307   4.019   9.028  0.4898  0.3435  1.0196
  140SAPE  C31615339   6.203   3.855   8.948  0.5008 -0.3017  0.3191
  140SAPE  H16X15340   6.129   3.904   8.881 -0.3548 -0.5809  1.0393
  140SAPE  H16Y15341   6.160   3.761   8.989 -1.9157  0.7982  0.5159
  140SAPE  C31715342   6.323   3.821   8.862 -0.8020 -0.4177  0.2662
  140SAPE  H17X15343   6.397   3.758   8.915 -1.6022 -2.9757 -1.4795
  140SAPE  H17Y15344   6.377   3.917   8.842 -0.7556  0.2211  3.1047
  140SAPE  C31815345   6.277   3.743   8.738 -0.1001 -0.3072  0.1657
  140SAPE  H18X15346   6.218   3.650   8.752 -0.4756 -0.1534 -0.3451
  140SAPE  H18Y15347   6.361   3.707   8.675 -0.1361 -2.2718  1.1696
  140SAPE  H18Z15348   6.209   3.799   8.669  1.3921 -0.9720 -1.9407
  141SAPE     N15349   4.906   4.128  10.893  0.7165 -0.0401 -0.3092
  141SAPE   HN115350   4.889   4.042  10.837 -0.0294  1.1333 -1.9588
  141SAPE   HN215351   5.008   4.144  10.907  0.7690  1.6453 -2.1652
  141SAPE   HN315352   4.850   4.123  10.981 -0.0948 -0.5880 -0.8453
  141SAPE   C1215353   4.858   4.227  10.794 -0.6310  0.1578  0.4084
  141SAPE  H12A15354   4.750   4.209  10.773 -0.2974 -0.7231 -0.6405
  141SAPE  H12B15355   4.914   4.201  10.702  1.1165 -0.7778  1.6974
  141SAPE   C1115356   4.895   4.367  10.840  0.1390  1.1338 -0.2892
  141SAPE  H11A15357   4.837   4.395  10.931  0.0155  1.8695 -0.5862
  141SAPE  H11B15358   4.860   4.447  10.770 -1.5747  3.8332  3.3076
  141SAPE     P15359   5.104   4.467  10.965 -0.2703  0.2355 -0.5848
  141SAPE   O1315360   5.014   4.549  11.052 -0.6387  0.5123  0.0528
  141SAPE   O1415361   5.212   4.380  11.027 -0.1281  0.5648  0.4262
  141SAPE   O1215362   5.031   4.374  10.866  0.5706  0.0652 -0.1615
  141SAPE   O1115363   5.174   4.557  10.858  0.8115  0.3059  0.3088
  141SAPE    C115364   5.288   4.496  10.797 -0.0309  0.2589  0.0044
  141SAPE    HA15365   5.372   4.491  10.869 -1.0092 -0.5666  1.1450
  141SAPE    HB15366   5.255   4.394  10.768 -1.8177  1.5976 -3.1630
  141SAPE    C215367   5.335   4.563  10.670 -0.0145 -0.1834  0.1125
  141SAPE    HS15368   5.368   4.668  10.690 -0.0388 -0.1190 -0.1796
  141SAPE   O2115369   5.227   4.542  10.571 -0.0566 -0.2450 -0.5252
  141SAPE   C2115370   5.157   4.653  10.567 -0.4507  0.1562 -0.0751
  141SAPE   O2215371   5.183   4.758  10.621 -0.0106  0.2429  0.0502
  141SAPE   C2215372   5.028   4.632  10.475 -0.4476 -0.2172  0.6803
  141SAPE   H2R15373   4.963   4.562  10.532  0.3515 -1.5567  0.0039
  141SAPE   H2S15374   4.982   4.733  10.467  0.3747  0.0777 -0.6326
  141SAPE    C315375   5.464   4.495  10.622 -0.4816  0.5946 -0.3757
  141SAPE    HX15376   5.439   4.388  10.607  1.3793  0.1250 -0.3130
  141SAPE    HY15377   5.537   4.502  10.705 -0.7240 -0.0759 -0.0963
  141SAPE   O3115378   5.513   4.533  10.491 -0.4371  0.5146  0.4745
  141SAPE   C3115379   5.576   4.656  10.486 -0.0104  0.7719  0.4110
  141SAPE   O3215380   5.627   4.713  10.583  0.5539  0.1577 -0.3127
  141SAPE   C3215381   5.577   4.697  10.336  0.3618 -0.0011  0.1635
  141SAPE   H2X15382   5.558   4.806  10.345 -0.4187 -0.3078  3.5002
  141SAPE   H2Y15383   5.481   4.661  10.293  0.3664  0.5873 -0.3390
  141SAPE   C2315384   5.065   4.580  10.329  0.1866 -0.3314 -0.5089
  141SAPE   H3R15385   4.965   4.565  10.284  0.3665  1.4749 -1.6054
  141SAPE   H3S15386   5.120   4.485  10.350 -0.4171 -0.4084  0.7994
  141SAPE   C2415387   5.157   4.658  10.243 -0.2649 -0.4737  0.2909
  141SAPE   H4R15388   5.168   4.595  10.153  1.5907  0.8376 -0.4526
  141SAPE   H4S15389   5.250   4.667  10.302 -1.3174  1.2191  1.8161
  141SAPE   C2515390   5.116   4.799  10.207  0.0660 -1.0279 -0.2826
  141SAPE   H5R15391   5.067   4.854  10.289  0.5354 -1.0067 -0.0125
  141SAPE   C2615392   5.127   4.856  10.083 -0.6549 -0.2967 -0.3729
  141SAPE   H6R15393   5.093   4.961  10.078  0.8429  0.4391  2.5557
  141SAPE   C2715394   5.176   4.788   9.957 -0.5182  0.4863  0.7737
  141SAPE   H7R15395   5.267   4.726   9.966 -0.8185 -0.0742  0.0141
  141SAPE   H7S15396   5.212   4.867   9.887 -0.2649 -0.6156 -0.3690
  141SAPE   C2815397   5.080   4.711   9.872  1.1562  0.4343  0.0488
  141SAPE   H8R15398   4.972   4.714   9.893  0.7979 -1.8123 -1.2571
  141SAPE   C2915399   5.108   4.644   9.761 -0.1353  0.4947 -0.2875
  141SAPE   H9R15400   5.039   4.577   9.708  0.3885  0.2449 -0.6682
  141SAPE  C21015401   5.245   4.630   9.697 -0.8005 -0.0728  1.0454
  141SAPE  H10R15402   5.277   4.525   9.686  3.7023  1.2558 -0.6742
  141SAPE  H10S15403   5.324   4.677   9.759 -1.0159  0.2684  1.0660
  141SAPE  C21115404   5.249   4.700   9.566  0.5396 -0.1688 -0.5508
  141SAPE  H11R15405   5.290   4.802   9.565  0.3387 -0.0737  0.3437
  141SAPE  C21215406   5.227   4.651   9.441  0.6073  0.0342 -0.0065
  141SAPE  H12R15407   5.247   4.716   9.354 -1.5845  1.2238  0.2871
  141SAPE  C21315408   5.192   4.511   9.403 -0.2698  0.5732 -0.3582
  141SAPE  H13R15409   5.083   4.514   9.386 -0.6299 -2.1732  0.9542
  141SAPE  H13S15410   5.199   4.451   9.496  0.9076  2.3445  0.7775
  141SAPE  C21415411   5.270   4.459   9.286 -0.5389 -0.0728 -0.2549
  141SAPE  H14R15412   5.358   4.398   9.309 -1.7067 -1.6153  0.2827
  141SAPE  C21515413   5.232   4.451   9.163  0.6391 -0.0859  0.2442
  141SAPE  H15R15414   5.295   4.402   9.087  0.1319 -0.0577 -0.1967
  141SAPE  C21615415   5.096   4.505   9.111 -0.0339 -0.0571  0.1695
  141SAPE  H16R15416   5.114   4.582   9.033 -0.1797  2.0046  2.0818
  141SAPE  H16S15417   5.031   4.559   9.182  0.6386  0.7959  0.1521
  141SAPE  C21715418   5.011   4.400   9.036  0.4527  0.7409 -0.6112
  141SAPE  H17R15419   4.926   4.441   8.978 -1.6143  1.2853  2.6118
  141SAPE  H17S15420   4.966   4.340   9.118  0.7431  2.2051  0.6588
  141SAPE  C21815421   5.088   4.303   8.938  0.2783 -0.5540  0.1877
  141SAPE  H18R15422   5.156   4.237   8.995  0.3947 -1.0023 -0.4500
  141SAPE  H18S15423   5.159   4.359   8.873  0.9686 -0.1335  1.2868
  141SAPE  C21915424   4.997   4.218   8.853 -0.2060  0.5869  0.0291
  141SAPE  H19R15425   4.938   4.281   8.783 -1.1705 -2.4324 -2.0443
  141SAPE  H19S15426   4.930   4.173   8.930 -0.7977  2.9919  1.0158
  141SAPE  C22015427   5.065   4.110   8.760 -0.4428 -0.3532 -0.0076
  141SAPE  H20R15428   5.114   4.031   8.822 -0.1524  0.9872  1.5323
  141SAPE  H20S15429   5.147   4.162   8.707  0.2121 -2.9153 -1.6992
  141SAPE  H20T15430   4.988   4.063   8.696 -2.1110  0.6181  1.2098
  141SAPE   C3315431   5.696   4.655  10.254 -0.7431 -0.5957  0.0883
  141SAPE   H3X15432   5.728   4.550  10.268 -2.6316 -1.3345 -0.7954
  141SAPE   H3Y15433   5.775   4.712  10.308 -0.3515 -2.3010  1.3994
  141SAPE   C3415434   5.686   4.684  10.102  0.6991 -0.3847  0.1360
  141SAPE   H4X15435   5.783   4.652  10.058  1.7971 -0.0326  2.1750
  141SAPE   H4Y15436   5.671   4.792  10.083  1.8238 -0.1921  0.3005
  141SAPE   C3515437   5.573   4.599  10.039 -0.6325 -0.7856 -0.2534
  141SAPE   H5X15438   5.482   4.660  10.056 -0.0130 -0.0743  0.5647
  141SAPE   H5Y15439   5.570   4.504  10.097  0.6603 -0.6725  0.0131
  141SAPE   C3615440   5.585   4.564   9.889  0.1607  0.4234 -0.0600
  141SAPE   H6X15441   5.501   4.500   9.855  0.4750  0.0855 -0.2117
  141SAPE   H6Y15442   5.679   4.507   9.871  1.5899  2.7285 -0.3730
  141SAPE   C3715443   5.613   4.673   9.786  0.1442 -0.2380 -0.4409
  141SAPE   H7X15444   5.699   4.733   9.822  0.2256 -0.3317 -0.4783
  141SAPE   H7Y15445   5.527   4.743   9.777  0.0690 -0.4598 -1.5840
  141SAPE   C3815446   5.628   4.609   9.652  0.2590  0.4148  0.4877
  141SAPE   H8X15447   5.544   4.537   9.637 -0.2125  0.6959  1.6161
  141SAPE   H8Y15448   5.729   4.566   9.639  0.4895  1.3070 -0.9084
  141SAPE   C3915449   5.612   4.716   9.538 -0.5841  0.4042  0.8513
  141SAPE   H9X15450   5.674   4.802   9.572 -0.4331  0.1882  1.1291
  141SAPE   H9Y15451   5.506   4.746   9.524 -0.1982  2.0156  1.0972
  141SAPE  C31015452   5.655   4.666   9.398 -0.3281  0.6099  0.2176
  141SAPE  H10X15453   5.574   4.601   9.359 -1.5987  1.2282  1.7359
  141SAPE  H10Y15454   5.747   4.605   9.410 -1.4425 -0.6762  2.8742
  141SAPE  C31115455   5.673   4.771   9.291 -0.5356  0.8651 -0.1813
  141SAPE  H11X15456   5.729   4.862   9.322  0.6015 -0.0794  0.6019
  141SAPE  H11Y15457   5.570   4.809   9.272 -1.1986  0.8488  2.8261
  141SAPE  C31215458   5.723   4.709   9.151 -0.1454 -1.1869 -0.4065
  141SAPE  H12X15459   5.773   4.611   9.167 -0.1959 -0.9327  1.4983
  141SAPE  H12Y15460   5.779   4.789   9.098 -1.2136  0.7892  1.3438
  141SAPE  C31315461   5.602   4.683   9.060  0.1839  0.1277 -0.3338
  141SAPE  H13X15462   5.566   4.786   9.039 -0.2264  0.1931  0.6464
  141SAPE  H13Y15463   5.527   4.622   9.114  0.4249  0.8173  0.8185
  141SAPE  C31415464   5.638   4.616   8.928  0.1384  0.2859  0.1941
  141SAPE  H14X15465   5.672   4.516   8.963 -0.1914  0.8681  2.2654
  141SAPE  H14Y15466   5.726   4.669   8.884 -1.4572  0.8078 -2.5766
  141SAPE  C31515467   5.538   4.596   8.816  0.0682  0.3369  0.7990
  141SAPE  H15X15468   5.439   4.562   8.852 -0.4396  0.3292 -0.5537
  141SAPE  H15Y15469   5.575   4.505   8.764 -0.3294  0.7207 -0.1592
  141SAPE  C31615470   5.523   4.716   8.726 -0.4890 -0.3322  0.2479
  141SAPE  H16X15471   5.626   4.758   8.721 -0.7475  0.4542  1.1694
  141SAPE  H16Y15472   5.464   4.797   8.773 -0.5383  0.5118 -1.2171
  141SAPE  C31715473   5.466   4.669   8.590 -0.3881 -0.1699  0.7556
  141SAPE  H17X15474   5.487   4.560   8.577  0.3506 -0.0737  1.0908
  141SAPE  H17Y15475   5.530   4.715   8.512  0.0345 -0.6990  0.7847
  141SAPE  C31815476   5.319   4.708   8.558 -0.3528  0.3163  0.0877
  141SAPE  H18X15477   5.310   4.815   8.584  1.7953  0.2085  1.5157
  141SAPE  H18Y15478   5.247   4.643   8.612  2.8487 -0.3809  3.9619
  141SAPE  H18Z15479   5.310   4.686   8.449  1.3952  0.6721 -0.1452
  142SAPE     N15480   5.989   2.753  10.877 -0.2541  0.2633  0.0264
  142SAPE   HN115481   5.989   2.698  10.789 -0.2422 -0.2435  0.3333
  142SAPE   HN215482   6.079   2.736  10.926  0.2352  0.9425 -0.6273
  142SAPE   HN315483   5.925   2.716  10.951 -0.2062  2.4276  1.2455
  142SAPE   C1215484   5.984   2.905  10.868  0.2096  0.1930  0.3059
  142SAPE  H12A15485   5.900   2.937  10.802  2.1428  1.9698 -1.4255
  142SAPE  H12B15486   6.070   2.931  10.803  0.0515 -2.4300 -1.0639
  142SAPE   C1115487   5.973   2.966  11.006  0.1465 -0.0005  0.3776
  142SAPE  H11A15488   6.070   2.953  11.058 -0.1103  0.8426  1.0989
  142SAPE  H11B15489   5.894   2.903  11.053  1.2323 -1.4383  0.3404
  142SAPE     P15490   6.039   3.221  10.997  0.0281  0.4375  0.3568
  142SAPE   O1315491   5.979   3.339  11.067 -0.0777  0.0459  0.3720
  142SAPE   O1415492   6.170   3.179  11.052  0.2619 -0.5118  0.4890
  142SAPE   O1215493   5.937   3.106  11.012 -0.1913  0.7162  0.0004
  142SAPE   O1115494   6.038   3.241  10.846 -0.2294 -0.4900 -0.2316
  142SAPE    C115495   6.077   3.362  10.778 -0.4136  0.6247 -0.5121
  142SAPE    HA15496   6.130   3.439  10.837  0.7258 -0.9089  0.5636
  142SAPE    HB15497   6.139   3.330  10.692  1.8420  4.1077 -0.3323
  142SAPE    C215498   5.957   3.447  10.720  0.1015 -0.2670  0.3551
  142SAPE    HS15499   5.895   3.468  10.809  0.1589  0.7153  0.1740
  142SAPE   O2115500   5.894   3.378  10.609 -0.3267  0.2649 -0.3514
  142SAPE   C2115501   5.767   3.423  10.593 -0.7659  0.9350  0.5418
  142SAPE   O2215502   5.715   3.504  10.662  0.1542  0.5459  0.4174
  142SAPE   C2215503   5.711   3.364  10.460  0.0605 -0.0504  0.5872
  142SAPE   H2R15504   5.726   3.444  10.385 -0.8248 -2.3487 -2.2378
  142SAPE   H2S15505   5.780   3.288  10.417 -0.7835 -1.6944  2.0034
  142SAPE    C315506   6.009   3.590  10.677  0.5657  0.2787  0.2669
  142SAPE    HX15507   6.115   3.564  10.657  0.9683  0.7317  1.7002
  142SAPE    HY15508   6.016   3.652  10.768  0.6135  0.4529  0.1460
  142SAPE   O3115509   5.951   3.650  10.559  0.0263  0.2089  0.1260
  142SAPE   C3115510   6.023   3.761  10.537  0.2814 -0.1690  0.7275
  142SAPE   O3215511   6.111   3.807  10.608 -0.1389 -0.4451 -0.1348
  142SAPE   C3215512   5.969   3.830  10.407  0.7308  0.0332  0.4053
  142SAPE   H2X15513   6.002   3.937  10.413  0.9332 -0.0639  1.2365
  142SAPE   H2Y15514   5.859   3.825  10.416  0.7838 -0.2683  0.9418
  142SAPE   C2315515   5.567   3.317  10.476  0.3783 -0.3340 -0.6035
  142SAPE   H3R15516   5.499   3.404  10.491  0.1974 -0.0429 -2.7940
  142SAPE   H3S15517   5.550   3.251  10.563  2.2018 -0.2838 -0.1690
  142SAPE   C2415518   5.525   3.259  10.340 -0.3858 -0.7240  0.0065
  142SAPE   H4R15519   5.541   3.339  10.265  0.6731 -0.7582  0.1847
  142SAPE   H4S15520   5.416   3.238  10.344 -0.1922 -1.5316  1.7431
  142SAPE   C2515521   5.601   3.127  10.308  1.2405  0.0729  0.5232
  142SAPE   H5R15522   5.608   3.057  10.393 -1.9008  0.4873  1.2393
  142SAPE   C2615523   5.655   3.099  10.193  0.9664 -0.3098  0.0083
  142SAPE   H6R15524   5.716   3.008  10.191  0.5496 -0.6752  1.9076
  142SAPE   C2715525   5.655   3.190  10.075 -0.0963  0.1512 -0.0176
  142SAPE   H7R15526   5.565   3.252  10.056  1.5232  2.3997 -0.8206
  142SAPE   H7S15527   5.676   3.124   9.988  1.5013 -0.0082  0.4529
  142SAPE   C2815528   5.769   3.294  10.070 -0.6596  0.1331 -0.4443
  142SAPE   H8R15529   5.808   3.338  10.163  0.2999 -0.2359 -0.6500
  142SAPE   C2915530   5.833   3.326   9.959 -0.1993 -0.4624  0.0290
  142SAPE   H9R15531   5.916   3.397   9.970 -0.6332 -0.1772  1.9058
  142SAPE  C21015532   5.799   3.288   9.820  0.0125 -0.1430  0.3618
  142SAPE  H10R15533   5.689   3.275   9.806 -0.3605  2.6475  0.1654
  142SAPE  H10S15534   5.856   3.195   9.797 -0.1182  0.0815 -0.9834
  142SAPE  C21115535   5.817   3.394   9.713 -0.3410 -0.0010  0.1867
  142SAPE  H11R15536   5.883   3.477   9.740  0.5437 -1.2875  2.1674
  142SAPE  C21215537   5.754   3.398   9.590 -0.2027  0.0447 -0.2112
  142SAPE  H12R15538   5.787   3.476   9.519  0.9477  1.7433  2.0522
  142SAPE  C21315539   5.661   3.296   9.534 -1.0799 -0.0705  0.6758
  142SAPE  H13R15540   5.561   3.343   9.526 -0.4287  1.0868 -1.5551
  142SAPE  H13S15541   5.647   3.201   9.589 -0.9640 -1.0233 -0.8888
  142SAPE  C21415542   5.717   3.252   9.396  0.4169 -0.0331  0.5943
  142SAPE  H14R15543   5.797   3.178   9.414  0.1796 -0.0661  1.5636
  142SAPE  C21515544   5.673   3.279   9.277  0.1229 -0.5644  0.2632
  142SAPE  H15R15545   5.727   3.233   9.192  1.8869 -0.1077  1.0988
  142SAPE  C21615546   5.560   3.375   9.241  0.0981  0.0923 -0.2845
  142SAPE  H16R15547   5.533   3.456   9.312 -1.8113  0.9939 -1.9419
  142SAPE  H16S15548   5.469   3.312   9.230  0.9092 -1.2892  0.6398
  142SAPE  C21715549   5.585   3.437   9.100  0.0410 -0.5341  0.4540
  142SAPE  H17R15550   5.486   3.478   9.070  0.3754 -0.6539 -0.8769
  142SAPE  H17S15551   5.616   3.367   9.019 -1.4517 -1.2140  0.4458
  142SAPE  C21815552   5.689   3.553   9.107 -0.2089 -0.4421  0.6933
  142SAPE  H18R15553   5.782   3.530   9.163 -0.3323  1.2205  1.6445
  142SAPE  H18S15554   5.642   3.634   9.166  0.6794  0.7076 -0.1407
  142SAPE  C21915555   5.717   3.607   8.962  0.3862 -0.0736 -0.2960
  142SAPE  H19R15556   5.752   3.713   8.964  1.6903 -0.4926  0.0143
  142SAPE  H19S15557   5.624   3.602   8.902  0.6534 -1.0937 -0.6381
  142SAPE  C22015558   5.831   3.530   8.893  0.2314 -0.9738  0.1226
  142SAPE  H20R15559   5.853   3.588   8.801  1.8682  0.2584  1.2259
  142SAPE  H20S15560   5.811   3.422   8.882 -1.4606 -0.5416 -1.6740
  142SAPE  H20T15561   5.924   3.525   8.953  0.2043 -0.8895  0.1732
  142SAPE   C3315562   6.018   3.766  10.278 -0.2359  0.1784 -0.1423
  142SAPE   H3X15563   5.937   3.699  10.242  0.0974  0.7475 -2.1148
  142SAPE   H3Y15564   6.109   3.704  10.294 -0.9552 -0.7076  0.6415
  142SAPE   C3415565   6.044   3.872  10.169 -0.4714  0.5478 -0.1728
  142SAPE   H4X15566   6.123   3.939  10.209  0.1060 -0.8296  1.1024
  142SAPE   H4Y15567   5.946   3.925  10.165 -2.6719 -3.2430 -1.4198
  142SAPE   C3515568   6.087   3.806  10.042  0.2401 -0.6760  0.1297
  142SAPE   H5X15569   6.010   3.732  10.012 -1.1171  1.6508 -2.6042
  142SAPE   H5Y15570   6.182   3.751  10.062  0.4759  0.8036  3.7197
  142SAPE   C3615571   6.109   3.918   9.947  0.0611  0.2941  0.5965
  142SAPE   H6X15572   6.212   3.954   9.971  0.7990 -3.2400  3.6402
  142SAPE   H6Y15573   6.026   3.988   9.969 -0.0816  0.2548  0.1953
  142SAPE   C3715574   6.105   3.872   9.802 -0.1982 -0.4719  0.3992
  142SAPE   H7X15575   6.106   3.960   9.734  0.0658  0.2516  1.3250
  142SAPE   H7Y15576   6.006   3.822   9.799 -1.2736  1.5750  0.0718
  142SAPE   C3815577   6.218   3.781   9.754  0.2286  0.4812  0.1063
  142SAPE   H8X15578   6.206   3.683   9.805  0.3322 -0.4422 -1.5367
  142SAPE   H8Y15579   6.318   3.829   9.761  0.2980  0.6886 -1.6576
  142SAPE   C3915580   6.194   3.725   9.608 -0.1663  0.9209  0.2454
  142SAPE   H9X15581   6.277   3.658   9.577 -1.1445 -0.1862 -0.0482
  142SAPE   H9Y15582   6.206   3.805   9.531 -0.8870  1.7815  0.9990
  142SAPE  C31015583   6.059   3.656   9.582  0.7615 -0.2450  0.1833
  142SAPE  H10X15584   5.969   3.719   9.601  1.5652  1.0988 -0.2662
  142SAPE  H10Y15585   6.051   3.559   9.634  0.2088 -0.9882 -1.2236
  142SAPE  C31115586   6.050   3.634   9.428  0.2263  0.3388 -0.1214
  142SAPE  H11X15587   6.076   3.725   9.369 -0.1680  1.0940  0.8567
  142SAPE  H11Y15588   5.946   3.615   9.394  1.2918 -3.5579 -1.7635
  142SAPE  C31215589   6.128   3.513   9.364 -0.1035  0.0042 -0.3034
  142SAPE  H12X15590   6.066   3.477   9.280 -1.6048  1.7906 -0.0406
  142SAPE  H12Y15591   6.134   3.438   9.446 -0.0016  0.0272 -0.2893
  142SAPE  C31315592   6.270   3.549   9.309 -0.2354 -0.5002  0.2013
  142SAPE  H13X15593   6.315   3.614   9.387 -1.0065  0.4454 -0.1158
  142SAPE  H13Y15594   6.263   3.589   9.206 -0.4567 -3.3716 -0.9974
  142SAPE  C31415595   6.366   3.430   9.295  0.0174  0.8947 -1.2591
  142SAPE  H14X15596   6.387   3.391   9.397 -0.4275  2.0468 -0.7016
  142SAPE  H14Y15597   6.458   3.475   9.251 -0.2063  0.1305 -2.5580
  142SAPE  C31515598   6.312   3.317   9.196 -0.0239  0.7137  0.3258
  142SAPE  H15X15599   6.202   3.309   9.197 -0.2570  3.1240 -0.3825
  142SAPE  H15Y15600   6.339   3.212   9.224  0.0390  0.9178  1.0531
  142SAPE  C31615601   6.344   3.333   9.043 -0.3692 -0.6282  0.1135
  142SAPE  H16X15602   6.451   3.318   9.018 -0.5853  2.3194 -3.5054
  142SAPE  H16Y15603   6.338   3.440   9.011  1.9131 -0.6626 -0.6253
  142SAPE  C31715604   6.250   3.256   8.955 -0.7694  0.2858  0.0160
  142SAPE  H17X15605   6.186   3.188   9.015  1.4594 -1.7634  0.2122
  142SAPE  H17Y15606   6.301   3.179   8.894  1.0588 -0.2451  2.0906
  142SAPE  C31815607   6.164   3.340   8.864 -0.3473 -0.7671 -0.0250
  142SAPE  H18X15608   6.241   3.376   8.793  0.2244 -1.3952  0.2596
  142SAPE  H18Y15609   6.128   3.425   8.926  0.4489 -1.1621  1.0064
  142SAPE  H18Z15610   6.083   3.284   8.813  0.9056 -3.1352  0.4487
  143SAPE     N15611   0.686   3.204  10.854  0.1257 -0.5589  0.1124
  143SAPE   HN115612   0.785   3.221  10.829  0.2317  0.0519  0.9249
  143SAPE   HN215613   0.634   3.203  10.764  0.8846  2.0490 -0.4450
  143SAPE   HN315614   0.666   3.283  10.919 -0.2937 -0.5432 -0.0322
  143SAPE   C1215615   0.687   3.071  10.920 -0.5892 -0.2603  0.5811
  143SAPE  H12A15616   0.582   3.046  10.946  0.5545 -1.3420  5.0833
  143SAPE  H12B15617   0.744   3.075  11.016  1.0775 -0.2532 -0.3732
  143SAPE   C1115618   0.745   2.959  10.826  0.0717 -0.0923 -1.0225
  143SAPE  H11A15619   0.855   2.970  10.824  0.0740  0.4790  0.4478
  143SAPE  H11B15620   0.708   2.965  10.722  2.4126 -1.4285 -1.9873
  143SAPE     P15621   0.585   2.759  10.863  0.1319 -0.2050 -0.2592
  143SAPE   O1315622   0.608   2.621  10.902 -0.1107  0.4596 -0.7345
  143SAPE   O1415623   0.476   2.833  10.926  0.3948  0.3439  0.3726
  143SAPE   O1215624   0.718   2.839  10.892 -0.1724  0.0146 -0.3214
  143SAPE   O1115625   0.584   2.767  10.703  0.3208  0.1805 -0.4518
  143SAPE    C115626   0.659   2.662  10.632  0.3725  0.4454 -0.1770
  143SAPE    HA15627   0.757   2.646  10.683  0.8206  1.3218 -0.7227
  143SAPE    HB15628   0.602   2.567  10.634  1.0466 -0.0777 -2.6315
  143SAPE    C215629   0.687   2.709  10.487 -0.2439  0.0713 -0.3737
  143SAPE    HS15630   0.761   2.791  10.484 -0.1775  0.0354  0.1468
  143SAPE   O2115631   0.569   2.768  10.438  0.2852  0.1705 -0.4271
  143SAPE   C2115632   0.570   2.822  10.313 -0.1324  0.2925 -0.5104
  143SAPE   O2215633   0.668   2.869  10.264 -0.3242  0.2645 -0.4854
  143SAPE   C2215634   0.429   2.846  10.255  0.0025  0.3226  0.6570
  143SAPE   H2R15635   0.366   2.881  10.339  1.0188  0.5176  1.3680
  143SAPE   H2S15636   0.435   2.931  10.183 -3.2654  1.2569  1.3410
  143SAPE    C315637   0.734   2.596  10.393  0.4535  0.0891  0.0542
  143SAPE    HX15638   0.820   2.546  10.441 -0.8565 -1.7040  0.6144
  143SAPE    HY15639   0.777   2.660  10.312 -1.3589  1.9540  0.4921
  143SAPE   O3115640   0.621   2.516  10.347  0.1664 -0.0689 -0.1775
  143SAPE   C3115641   0.630   2.391  10.382  0.1736 -0.0138  0.4101
  143SAPE   O3215642   0.722   2.337  10.431 -0.0461  0.4232 -0.3702
  143SAPE   C3215643   0.507   2.320  10.334 -0.7200  0.2944  0.3121
  143SAPE   H2X15644   0.421   2.390  10.328 -0.8171  0.0959 -0.7810
  143SAPE   H2Y15645   0.487   2.230  10.395  2.0153 -0.3287  0.4359
  143SAPE   C2315646   0.367   2.720  10.187  0.3382 -0.2305  0.2862
  143SAPE   H3R15647   0.257   2.739  10.188  0.2532 -0.6461 -0.6149
  143SAPE   H3S15648   0.385   2.639  10.261 -0.7772 -0.7466  0.0118
  143SAPE   C2415649   0.433   2.663  10.056  0.0285 -0.1940 -0.1098
  143SAPE   H4R15650   0.375   2.569  10.044 -0.2600 -0.1861  1.0674
  143SAPE   H4S15651   0.538   2.645  10.090 -0.2895  0.6200  1.3807
  143SAPE   C2515652   0.433   2.748   9.932  0.0228 -0.9631  0.0831
  143SAPE   H5R15653   0.336   2.753   9.881 -1.1711  0.0626  2.3209
  143SAPE   C2615654   0.545   2.794   9.867 -0.1202  0.4163  0.5518
  143SAPE   H6R15655   0.523   2.866   9.786  1.4773  0.9129  0.5238
  143SAPE   C2715656   0.688   2.792   9.903  0.0848  0.0533  0.0198
  143SAPE   H7R15657   0.720   2.696   9.857  0.4189  0.2107 -0.0798
  143SAPE   H7S15658   0.705   2.781  10.012  0.4592  1.3754  0.1217
  143SAPE   C2815659   0.767   2.903   9.837 -0.6136 -0.3469  0.1819
  143SAPE   H8R15660   0.727   3.006   9.842  0.9210  0.4388 -2.0085
  143SAPE   C2915661   0.875   2.880   9.760  0.6103 -0.9163  0.5061
  143SAPE   H9R15662   0.933   2.970   9.733  0.0625 -1.0194 -1.0539
  143SAPE  C21015663   0.938   2.749   9.732  0.0474 -0.9292 -0.1969
  143SAPE  H10R15664   0.915   2.671   9.808  2.5677 -0.5277  1.1039
  143SAPE  H10S15665   1.048   2.764   9.744  0.1388 -1.7188  0.0123
  143SAPE  C21115666   0.907   2.687   9.593 -0.6916 -0.5212 -0.4920
  143SAPE  H11R15667   0.801   2.666   9.574 -0.8266 -0.4492  0.1459
  143SAPE  C21215668   0.991   2.692   9.492  0.0016  0.1131 -0.2246
  143SAPE  H12R15669   0.954   2.646   9.399 -0.6234 -0.4537  0.2855
  143SAPE  C21315670   1.132   2.748   9.484 -0.0485  0.6420  0.0750
  143SAPE  H13R15671   1.198   2.698   9.558 -0.8636 -0.2772  0.2073
  143SAPE  H13S15672   1.129   2.853   9.521  2.5817  0.3923  1.1969
  143SAPE  C21415673   1.200   2.755   9.347  0.6548 -0.3646  0.2070
  143SAPE  H14R15674   1.293   2.697   9.345  0.1527 -1.1664 -0.1047
  143SAPE  C21515675   1.159   2.831   9.242  0.3215 -0.8806  0.5479
  143SAPE  H15R15676   1.228   2.825   9.157  0.2328 -0.5572  0.4513
  143SAPE  C21615677   1.043   2.928   9.242  0.7567  0.4360 -0.5520
  143SAPE  H16R15678   1.022   2.951   9.349 -0.7571 -1.5942 -0.3471
  143SAPE  H16S15679   0.960   2.886   9.183 -0.1270  0.1948  0.8084
  143SAPE  C21715680   1.080   3.045   9.158 -0.3262 -0.0087 -0.1941
  143SAPE  H17R15681   1.161   3.112   9.194  0.7732 -1.7534  0.7661
  143SAPE  H17S15682   0.997   3.118   9.165  1.3967  2.0734 -0.5501
  143SAPE  C21815683   1.101   3.002   9.012 -0.3604  0.7158  0.0749
  143SAPE  H18R15684   1.037   2.920   8.975  0.9641 -0.6996  0.8129
  143SAPE  H18S15685   1.203   2.964   8.990 -0.2474  1.2548 -0.3680
  143SAPE  C21915686   1.099   3.118   8.911 -0.0755  0.0732  0.1887
  143SAPE  H19R15687   1.189   3.183   8.924  0.5093 -0.8612  1.0285
  143SAPE  H19S15688   1.005   3.176   8.922 -1.8620 -2.2311 -1.8433
  143SAPE  C22015689   1.087   3.061   8.766 -0.7715 -0.4296 -0.4061
  143SAPE  H20R15690   1.165   2.986   8.738  0.7850  1.3579 -1.0895
  143SAPE  H20S15691   1.115   3.145   8.699 -1.3518 -0.2637 -0.4427
  143SAPE  H20T15692   0.984   3.029   8.740  0.3294 -1.6391 -3.8811
  143SAPE   C3315693   0.530   2.290  10.183  0.3042  0.2953  0.9257
  143SAPE   H3X15694   0.629   2.247  10.158  0.7580  2.3633 -1.0461
  143SAPE   H3Y15695   0.536   2.389  10.135  0.8547  0.2479  0.8898
  143SAPE   C3415696   0.419   2.206  10.113 -0.4932 -0.0421 -0.1419
  143SAPE   H4X15697   0.318   2.245  10.139 -0.5752  0.5939 -1.3708
  143SAPE   H4Y15698   0.428   2.104  10.158  1.8704 -0.2536 -0.9338
  143SAPE   C3515699   0.426   2.206   9.958 -0.0315  0.3429 -0.6799
  143SAPE   H5X15700   0.529   2.192   9.921 -0.4614  0.0960 -1.8459
  143SAPE   H5Y15701   0.408   2.314   9.936  0.5731  0.9366  1.5597
  143SAPE   C3615702   0.320   2.112   9.889  0.2853  0.6605 -0.2235
  143SAPE   H6X15703   0.218   2.132   9.929  0.4345  1.9061 -0.4357
  143SAPE   H6Y15704   0.316   2.005   9.920 -2.2680  0.7683  0.0769
  143SAPE   C3715705   0.316   2.117   9.740 -0.3514  0.2078  0.1076
  143SAPE   H7X15706   0.256   2.035   9.694  0.0421 -0.1356  0.2025
  143SAPE   H7Y15707   0.417   2.104   9.696 -0.7174  0.9615 -0.9850
  143SAPE   C3815708   0.267   2.248   9.684  0.5007  0.3341  1.0368
  143SAPE   H8X15709   0.348   2.322   9.702  1.6134 -0.8627  1.1248
  143SAPE   H8Y15710   0.190   2.294   9.749 -0.7740  1.4163 -1.1183
  143SAPE   C3915711   0.239   2.233   9.537 -0.2325  0.0093  0.5978
  143SAPE   H9X15712   0.309   2.167   9.481 -1.6707 -1.7031  0.7115
  143SAPE   H9Y15713   0.256   2.339   9.512 -2.7017  0.8553  2.1599
  143SAPE  C31015714   0.095   2.189   9.512 -0.1575  0.8336 -0.0806
  143SAPE  H10X15715   0.010   2.245   9.557  0.3382  1.1910  0.4289
  143SAPE  H10Y15716   0.076   2.085   9.546  0.4890  0.5739 -0.5024
  143SAPE  C31115717   0.088   2.184   9.355  0.9814  0.2132  0.0464
  143SAPE  H11X15718   0.156   2.111   9.304  0.4333 -0.9409  0.9126
  143SAPE  H11Y15719   0.117   2.288   9.330 -0.1543  0.2642 -1.1627
  143SAPE  C31215720  -0.058   2.160   9.308 -0.1864  0.0203  0.1113
  143SAPE  H12X15721  -0.099   2.239   9.242 -1.2258 -1.7222 -1.4384
  143SAPE  H12Y15722  -0.129   2.153   9.393  1.0398 -2.3026  1.0606
  143SAPE  C31315723  -0.068   2.023   9.245  0.3620  0.1291  0.0966
  143SAPE  H13X15724  -0.013   1.942   9.298 -0.6213  0.9485  2.4858
  143SAPE  H13Y15725  -0.029   2.028   9.141  0.4303  2.1045  0.1914
  143SAPE  C31415726  -0.218   1.984   9.230 -0.0491  0.1220  0.8164
  143SAPE  H14X15727  -0.274   2.067   9.181  0.8044  0.9096  1.1553
  143SAPE  H14Y15728  -0.263   1.953   9.326  1.7977 -1.4572  1.2199
  143SAPE  C31515729  -0.244   1.849   9.155  0.4382 -0.0201  0.5390
  143SAPE  H15X15730  -0.342   1.801   9.177 -1.1317  2.9788  0.5349
  143SAPE  H15Y15731  -0.173   1.774   9.197  0.9869  0.0731 -0.1970
  143SAPE  C31615732  -0.222   1.858   9.003 -0.0549 -0.3246  0.0297
  143SAPE  H16X15733  -0.119   1.897   8.988  0.3304 -0.9564  0.9583
  143SAPE  H16Y15734  -0.296   1.931   8.964  2.2433  1.7475 -0.7131
  143SAPE  C31715735  -0.225   1.719   8.927 -0.1019 -0.6206  0.1790
  143SAPE  H17X15736  -0.141   1.652   8.954  1.6903  0.3597 -2.5315
  143SAPE  H17Y15737  -0.214   1.742   8.819  0.3274  0.9414  0.5282
  143SAPE  C31815738  -0.354   1.633   8.955 -0.1018 -0.4412  0.4453
  143SAPE  H18X15739  -0.347   1.537   8.899  0.3298 -0.6975  0.9260
  143SAPE  H18Y15740  -0.445   1.680   8.914  1.7478  2.8676 -0.2202
  143SAPE  H18Z15741  -0.357   1.609   9.064  0.8260  1.6917  0.9821
  144SAPE     N15742   3.354   2.591  10.912  0.2996  0.1908 -0.0161
  144SAPE   HN115743   3.429   2.554  10.974 -1.4101 -1.4903  1.1577
  144SAPE   HN215744   3.265   2.555  10.952 -1.1024  1.6953 -1.6175
  144SAPE   HN315745   3.355   2.540  10.821 -3.9501 -1.3159  0.5444
  144SAPE   C1215746   3.359   2.741  10.909  0.7085  0.1741 -0.3613
  144SAPE  H12A15747   3.331   2.776  11.011 -1.0227  1.5302 -1.2514
  144SAPE  H12B15748   3.277   2.768  10.840  0.8335 -0.7413 -0.8884
  144SAPE   C1115749   3.495   2.780  10.865 -0.5990 -0.2403 -0.2515
  144SAPE  H11A15750   3.483   2.885  10.830 -0.2942 -0.4937 -1.1285
  144SAPE  H11B15751   3.532   2.721  10.779  1.4989  1.0937 -0.3453
  144SAPE     P15752   3.677   2.654  11.017 -0.4010  0.1007  0.1716
  144SAPE   O1315753   3.785   2.702  11.104  0.5824  0.0210  0.2237
  144SAPE   O1415754   3.582   2.554  11.072  0.1996  0.0271  0.2365
  144SAPE   O1215755   3.591   2.777  10.978  0.5198 -0.0614  0.8414
  144SAPE   O1115756   3.725   2.600  10.881  0.1097 -0.4955  0.5269
  144SAPE    C115757   3.856   2.614  10.823 -0.0273 -0.0659  0.3177
  144SAPE    HA15758   3.905   2.708  10.856 -0.6783 -0.0368  1.2500
  144SAPE    HB15759   3.912   2.522  10.849  0.0194 -0.1253  0.0088
  144SAPE    C215760   3.844   2.630  10.665 -0.9775  0.4012 -0.3505
  144SAPE    HS15761   3.942   2.612  10.616 -1.4749 -3.7060 -0.1918
  144SAPE   O2115762   3.781   2.754  10.628  0.2386 -0.0513  0.1403
  144SAPE   C2115763   3.868   2.854  10.644  0.4922 -0.4411 -0.2963
  144SAPE   O2215764   3.986   2.849  10.671 -0.2159  0.1506  0.0991
  144SAPE   C2215765   3.781   2.982  10.619 -0.1600  0.4004 -0.2642
  144SAPE   H2R15766   3.752   2.981  10.512 -2.9542 -1.1956  0.4006
  144SAPE   H2S15767   3.681   2.974  10.667 -0.1557  2.2147  0.1399
  144SAPE    C315768   3.758   2.518  10.615  0.5067 -0.2850  0.7867
  144SAPE    HX15769   3.651   2.535  10.637  0.0116 -2.0938 -0.0404
  144SAPE    HY15770   3.786   2.419  10.656  0.8874 -1.2869 -1.7391
  144SAPE   O3115771   3.779   2.501  10.472 -0.2762  0.2330 -0.0229
  144SAPE   C3115772   3.883   2.426  10.438 -0.3466  0.4463  0.2507
  144SAPE   O3215773   3.973   2.385  10.511  0.4522  0.2611 -0.4481
  144SAPE   C3215774   3.877   2.413  10.282  0.2801  0.7986  0.0693
  144SAPE   H2X15775   3.959   2.470  10.234  1.0635 -0.7663 -0.4967
  144SAPE   H2Y15776   3.781   2.459  10.250  0.8904  1.0268 -1.5042
  144SAPE   C2315777   3.835   3.119  10.668  0.6393 -0.3568  0.2289
  144SAPE   H3R15778   3.768   3.194  10.622  1.9153 -0.0420 -1.2071
  144SAPE   H3S15779   3.939   3.124  10.629  0.8202 -1.6760  0.4908
  144SAPE   C2415780   3.850   3.127  10.819  0.3669  0.1082 -0.7029
  144SAPE   H4R15781   3.921   3.205  10.855 -0.8057  0.6619  0.4796
  144SAPE   H4S15782   3.903   3.034  10.850 -1.7234 -1.7173 -2.2772
  144SAPE   C2515783   3.714   3.139  10.886 -0.0052 -0.1225 -0.2761
  144SAPE   H5R15784   3.670   3.042  10.912 -0.6929  0.4339  0.7035
  144SAPE   C2615785   3.653   3.248  10.928  0.6126 -0.2654  0.9376
  144SAPE   H6R15786   3.552   3.240  10.969 -0.7147  0.2436 -1.9927
  144SAPE   C2715787   3.717   3.383  10.911 -0.2089  0.8698 -0.1428
  144SAPE   H7R15788   3.782   3.400  10.823 -0.1196  1.2582 -0.0040
  144SAPE   H7S15789   3.789   3.401  10.993 -0.4068 -0.0617  0.2548
  144SAPE   C2815790   3.613   3.490  10.908  0.3958  0.1929 -0.9068
  144SAPE   H8R15791   3.614   3.550  11.000  1.2451 -0.2838 -0.5997
  144SAPE   C2915792   3.539   3.531  10.807 -0.1634  0.3998  0.0798
  144SAPE   H9R15793   3.465   3.611  10.824 -1.1740 -0.4460 -0.2177
  144SAPE  C21015794   3.540   3.476  10.669  0.2707 -0.1249  0.3735
  144SAPE  H10R15795   3.613   3.393  10.670  1.6087  0.9974  2.2128
  144SAPE  H10S15796   3.589   3.553  10.606 -0.3728 -1.2955 -1.6549
  144SAPE  C21115797   3.409   3.436  10.606 -0.2715 -0.0200  0.4861
  144SAPE  H11R15798   3.332   3.514  10.614 -1.3113 -0.9026 -0.6387
  144SAPE  C21215799   3.375   3.316  10.563  0.4725 -0.1352 -0.2969
  144SAPE  H12R15800   3.269   3.310  10.536 -0.6864  1.2930  3.2934
  144SAPE  C21315801   3.465   3.194  10.576  0.2961  0.2681  0.1879
  144SAPE  H13R15802   3.521   3.211  10.670 -1.4710 -2.0033  1.7268
  144SAPE  H13S15803   3.545   3.181  10.500  1.3030 -0.2493  1.3243
  144SAPE  C21415804   3.393   3.067  10.615 -0.0995  0.5237 -0.4177
  144SAPE  H14R15805   3.346   3.070  10.714 -1.5425 -0.8082 -1.0136
  144SAPE  C21515806   3.377   2.960  10.541  0.7223  0.0138  0.2361
  144SAPE  H15R15807   3.330   2.873  10.590  1.5698 -0.5028  0.1408
  144SAPE  C21615808   3.421   2.942  10.399  0.1257  0.5440  0.3340
  144SAPE  H16R15809   3.465   3.034  10.355  0.9946  0.6624  1.4195
  144SAPE  H16S15810   3.333   2.945  10.331  1.9127  0.8280 -2.0889
  144SAPE  C21715811   3.513   2.824  10.384 -0.0755 -0.5531  0.2960
  144SAPE  H17R15812   3.446   2.736  10.389  0.5420 -1.0795 -0.4433
  144SAPE  H17S15813   3.577   2.826  10.475 -0.6351 -1.8528  0.7478
  144SAPE  C21815814   3.590   2.843  10.250 -0.2016 -0.1160  0.3282
  144SAPE  H18R15815   3.619   2.949  10.236 -0.7211  0.4145  2.8731
  144SAPE  H18S15816   3.517   2.822  10.169 -1.0251  1.2401  0.6832
  144SAPE  C21915817   3.709   2.747  10.248  0.1850  0.3858 -0.1727
  144SAPE  H19R15818   3.668   2.643  10.240  2.0981 -0.4505  0.4459
  144SAPE  H19S15819   3.768   2.752  10.341  1.4564 -0.5704 -0.8960
  144SAPE  C22015820   3.818   2.768  10.139  0.4651  0.1875  0.2085
  144SAPE  H20R15821   3.771   2.791  10.041  1.7931 -0.9779 -0.7310
  144SAPE  H20S15822   3.877   2.674  10.129 -1.2925 -1.0417  0.8207
  144SAPE  H20T15823   3.882   2.852  10.171 -1.3958  1.8002 -0.0820
  144SAPE   C3315824   3.880   2.264  10.232 -0.7221  0.9997  0.1263
  144SAPE   H3X15825   3.837   2.194  10.307  2.8706 -1.4277  0.1808
  144SAPE   H3Y15826   3.982   2.220  10.221 -2.3196 -2.6155 -1.8138
  144SAPE   C3415827   3.801   2.246  10.098 -0.1062 -0.0709  0.0383
  144SAPE   H4X15828   3.692   2.259  10.115 -0.2835  0.7464 -1.6043
  144SAPE   H4Y15829   3.813   2.141  10.063 -2.5930 -0.1183 -0.8963
  144SAPE   C3515830   3.857   2.342   9.991  0.1693 -0.8432 -0.2706
  144SAPE   H5X15831   3.965   2.324   9.971 -0.2152 -0.8741 -2.5453
  144SAPE   H5Y15832   3.854   2.445  10.033 -3.0141 -0.7332 -0.5296
  144SAPE   C3615833   3.774   2.340   9.864 -0.6315 -0.0114 -0.9891
  144SAPE   H6X15834   3.667   2.332   9.893 -0.1468 -0.6234  0.7408
  144SAPE   H6Y15835   3.804   2.239   9.827 -1.9765 -1.3899  1.4405
  144SAPE   C3715836   3.806   2.444   9.762 -0.1106  0.3294  0.7710
  144SAPE   H7X15837   3.915   2.462   9.760 -0.2439  1.1939  0.9561
  144SAPE   H7Y15838   3.757   2.538   9.795 -1.8406 -0.2954  0.0987
  144SAPE   C3815839   3.746   2.410   9.626  0.3493  0.0777  0.5167
  144SAPE   H8X15840   3.637   2.429   9.618  0.4536  0.6289  0.3565
  144SAPE   H8Y15841   3.753   2.301   9.609 -2.7862 -0.0051 -1.0250
  144SAPE   C3915842   3.816   2.488   9.512 -0.7236  0.3951 -1.1121
  144SAPE   H9X15843   3.926   2.471   9.510 -0.4909  1.7821 -1.2427
  144SAPE   H9Y15844   3.794   2.597   9.525 -0.9701  0.0927  1.7588
  144SAPE  C31015845   3.781   2.426   9.374  0.6416 -0.3168  0.3912
  144SAPE  H10X15846   3.813   2.319   9.374  2.0584  0.0902 -0.0506
  144SAPE  H10Y15847   3.850   2.475   9.303  1.8262 -0.0316  1.7052
  144SAPE  C31115848   3.642   2.452   9.315  0.0358 -0.2772 -0.7883
  144SAPE  H11X15849   3.624   2.560   9.297 -1.4715 -0.3605  0.0770
  144SAPE  H11Y15850   3.561   2.418   9.382 -0.5645  0.6342 -1.0245
  144SAPE  C31215851   3.630   2.377   9.184  0.2538 -0.0369  0.0056
  144SAPE  H12X15852   3.524   2.371   9.151  0.1788 -0.4677  0.3163
  144SAPE  H12Y15853   3.667   2.275   9.209  0.7746 -0.3510 -1.8747
  144SAPE  C31315854   3.710   2.427   9.064  0.0733  0.2259  0.1632
  144SAPE  H13X15855   3.816   2.399   9.082 -0.1435 -0.0783  1.0006
  144SAPE  H13Y15856   3.696   2.536   9.053 -0.7440  0.2100  0.9337
  144SAPE  C31415857   3.668   2.372   8.928  0.9354  0.0622  0.6097
  144SAPE  H14X15858   3.571   2.423   8.907 -1.0155 -2.4799  2.6124
  144SAPE  H14Y15859   3.645   2.263   8.933 -0.1243  0.2802  0.7414
  144SAPE  C31515860   3.768   2.395   8.810  0.3609 -0.0068  0.0853
  144SAPE  H15X15861   3.792   2.503   8.813  1.8731 -0.3444  1.9524
  144SAPE  H15Y15862   3.704   2.383   8.720 -0.7937  1.4372  0.6822
  144SAPE  C31615863   3.889   2.296   8.811 -0.2735  0.5161 -0.0980
  144SAPE  H16X15864   3.841   2.196   8.811  1.3791 -0.3123 -0.7248
  144SAPE  H16Y15865   3.945   2.298   8.907 -1.1025  0.2770  0.3987
  144SAPE  C31715866   3.987   2.319   8.695  0.0940  0.5352  0.2015
  144SAPE  H17X15867   4.067   2.242   8.693  0.0745  0.4609  1.5042
  144SAPE  H17Y15868   4.046   2.412   8.709  2.1917 -1.0128  2.4413
  144SAPE  C31815869   3.929   2.337   8.549  0.1195 -0.7055 -0.0875
  144SAPE  H18X15870   3.871   2.254   8.504  0.3864 -1.3643  0.7559
  144SAPE  H18Y15871   4.010   2.367   8.478  0.0213 -1.2959 -0.4529
  144SAPE  H18Z15872   3.861   2.425   8.553 -0.8131 -1.3700 -1.0040
  145SAPE     N15873   0.092   0.087  11.517  0.5431 -0.7271  0.4161
  145SAPE   HN115874   0.112   0.024  11.597  1.1696 -0.5474  0.4027
  145SAPE   HN215875   0.171   0.154  11.507 -1.8396  1.9352 -3.8552
  145SAPE   HN315876   0.001   0.135  11.533  0.9836  0.0174  0.7500
  145SAPE   C1215877   0.090   0.012  11.390  0.5798  0.1473 -0.8894
  145SAPE  H12A15878   0.034  -0.084  11.400 -0.3009  0.5035 -2.1815
  145SAPE  H12B15879   0.191  -0.023  11.361 -0.0806 -1.6344 -1.1564
  145SAPE   C1115880   0.029   0.094  11.274  0.6464 -0.4994  0.1317
  145SAPE  H11A15881   0.048   0.034  11.182  0.9740 -1.9010  1.0760
  145SAPE  H11B15882   0.088   0.188  11.267  0.2492 -0.1180  1.4984
  145SAPE     P15883  -0.213   0.024  11.232 -0.0164 -0.3336 -0.0439
  145SAPE   O1315884  -0.165  -0.110  11.265 -0.5508  0.1792  0.0016
  145SAPE   O1415885  -0.351   0.059  11.277  0.2802 -0.2240  0.4795
  145SAPE   O1215886  -0.107   0.126  11.296 -0.7735  0.8983  0.8031
  145SAPE   O1115887  -0.204   0.047  11.085  0.8109 -0.0046 -0.1189
  145SAPE    C115888  -0.214   0.172  11.015  0.4654  0.3139  0.3334
  145SAPE    HA15889  -0.317   0.179  10.973  0.9165  0.0122 -0.8855
  145SAPE    HB15890  -0.209   0.256  11.086 -0.4849  0.0770  0.6889
  145SAPE    C215891  -0.116   0.183  10.895 -0.0925 -0.2435 -0.3567
  145SAPE    HS15892  -0.015   0.215  10.929  0.9683 -2.1562 -1.5822
  145SAPE   O2115893  -0.178   0.272  10.803  0.1512 -0.2869  0.8626
  145SAPE   C2115894  -0.175   0.410  10.835 -0.5571 -0.0293  0.5101
  145SAPE   O2215895  -0.121   0.461  10.928 -0.4387  0.3703  0.2000
  145SAPE   C2215896  -0.268   0.486  10.735 -0.1569 -0.2110  0.3272
  145SAPE   H2R15897  -0.306   0.417  10.657 -0.5802  0.6699 -0.2663
  145SAPE   H2S15898  -0.356   0.523  10.791  0.0884  1.4319 -0.3026
  145SAPE    C315899  -0.086   0.046  10.823  0.2208  0.1778  0.0684
  145SAPE    HX15900  -0.190   0.013  10.802  0.8188 -1.2163 -0.8668
  145SAPE    HY15901  -0.042  -0.015  10.904 -0.8298  1.8319  1.9645
  145SAPE   O3115902  -0.007   0.070  10.705 -0.5610 -0.0314 -0.3891
  145SAPE   C3115903   0.039  -0.045  10.655 -0.4793 -0.1086 -0.8400
  145SAPE   O3215904   0.008  -0.153  10.700  0.3153 -0.1645 -0.8234
  145SAPE   C3215905   0.139  -0.018  10.541  0.1227  0.1154  0.1967
  145SAPE   H2X15906   0.143  -0.112  10.481  0.2431  0.8990 -1.0737
  145SAPE   H2Y15907   0.239  -0.005  10.588  1.2096 -0.2390 -1.8837
  145SAPE   C2315908  -0.189   0.592  10.657  0.5593 -0.0699 -0.1243
  145SAPE   H3R15909  -0.129   0.654  10.727  1.3509  0.0117 -0.8621
  145SAPE   H3S15910  -0.253   0.668  10.607  1.0645  0.2365 -0.3166
  145SAPE   C2415911  -0.107   0.518  10.542  1.1840  0.0878 -0.2943
  145SAPE   H4R15912  -0.186   0.488  10.469 -0.1171  2.0773  0.2305
  145SAPE   H4S15913  -0.068   0.426  10.591 -0.2014 -0.7142 -0.6520
  145SAPE   C2515914   0.004   0.600  10.490 -0.3672  0.0550 -0.1836
  145SAPE   H5R15915   0.067   0.640  10.571 -0.2637  0.2573 -0.3644
  145SAPE   C2615916   0.017   0.640  10.361  0.5269 -0.1834 -0.9586
  145SAPE   H6R15917   0.100   0.709  10.338 -0.6631  0.7193 -2.8013
  145SAPE   C2715918  -0.083   0.619  10.248 -0.2229  0.3425 -0.1001
  145SAPE   H7R15919  -0.157   0.537  10.267  0.7967 -0.6845 -0.4693
  145SAPE   H7S15920  -0.020   0.580  10.166  0.5849  0.0818  0.6320
  145SAPE   C2815921  -0.161   0.743  10.236 -0.4913 -0.3576  0.2060
  145SAPE   H8R15922  -0.206   0.777  10.331  1.1120  0.4100  0.7143
  145SAPE   C2915923  -0.168   0.822  10.126 -0.4066  0.1734 -0.0987
  145SAPE   H9R15924  -0.221   0.915  10.148  0.5872  0.2539  2.2086
  145SAPE  C21015925  -0.083   0.800   9.998  0.0978 -0.3300 -0.0461
  145SAPE  H10R15926  -0.082   0.694   9.966  2.1247 -1.0740  2.1929
  145SAPE  H10S15927   0.022   0.824  10.025  0.4722 -2.1575  0.2556
  145SAPE  C21115928  -0.130   0.890   9.889 -0.0357 -0.4533 -0.2907
  145SAPE  H11R15929  -0.219   0.850   9.838  1.9224 -1.9193 -2.7446
  145SAPE  C21215930  -0.080   1.013   9.852  0.2441  0.0969 -0.0588
  145SAPE  H12R15931  -0.123   1.050   9.758 -0.8865 -0.7115  0.1236
  145SAPE  C21315932   0.041   1.087   9.912  0.8841 -0.2672  0.3362
  145SAPE  H13R15933   0.134   1.026   9.900 -0.1567 -1.8833  0.1853
  145SAPE  H13S15934   0.023   1.086  10.022  0.9461 -0.4052  0.3456
  145SAPE  C21415935   0.052   1.219   9.844  0.0271  0.1738 -0.5519
  145SAPE  H14R15936   0.089   1.206   9.741 -1.8227 -3.2206 -0.9281
  145SAPE  C21515937   0.027   1.338   9.899 -0.1228 -0.0347  0.2157
  145SAPE  H15R15938   0.055   1.430   9.846  1.3548 -1.2469 -1.2152
  145SAPE  C21615939  -0.016   1.359  10.043 -0.2016 -0.4760  0.1854
  145SAPE  H16R15940  -0.016   1.268  10.106 -0.9129 -2.0557 -2.0162
  145SAPE  H16S15941  -0.116   1.406  10.044 -0.7698 -1.6622  1.1602
  145SAPE  C21715942   0.072   1.461  10.118 -0.1462  0.3325 -0.4622
  145SAPE  H17R15943   0.069   1.558  10.063  1.0758  0.0198 -1.1320
  145SAPE  H17S15944   0.175   1.421  10.102 -0.2116 -0.5102  1.0805
  145SAPE  C21815945   0.031   1.500  10.266 -0.0498 -0.0716 -0.5076
  145SAPE  H18R15946   0.102   1.573  10.310 -1.4442  0.6781  0.5636
  145SAPE  H18S15947   0.050   1.406  10.321 -1.1394  0.7974  1.4568
  145SAPE  C21915948  -0.111   1.551  10.291 -0.0916 -0.0070 -0.2232
  145SAPE  H19R15949  -0.175   1.472  10.246 -0.1043 -0.3719  0.4243
  145SAPE  H19S15950  -0.133   1.650  10.245 -1.9154 -0.1050  0.3529
  145SAPE  C22015951  -0.136   1.553  10.445  0.1297  0.7373  0.1256
  145SAPE  H20R15952  -0.227   1.609  10.472 -0.5752 -1.0391  1.6659
  145SAPE  H20S15953  -0.056   1.611  10.497  0.6746  0.5629 -0.5079
  145SAPE  H20T15954  -0.136   1.449  10.485  2.8551  0.5934 -0.0515
  145SAPE   C3315955   0.107   0.101  10.449 -0.1554  0.3114 -0.1755
  145SAPE   H3X15956   0.104   0.187  10.520  0.1541 -0.7983  1.2336
  145SAPE   H3Y15957   0.008   0.086  10.400  0.2753  0.3228 -1.0525
  145SAPE   C3415958   0.194   0.120  10.322 -0.0840 -0.1492 -0.2280
  145SAPE   H4X15959   0.205   0.020  10.275 -2.5763 -0.6111 -0.0056
  145SAPE   H4Y15960   0.289   0.159  10.363  0.3743  1.1193 -2.3285
  145SAPE   C3515961   0.146   0.233  10.233 -0.3362 -0.6791 -0.5525
  145SAPE   H5X15962   0.121   0.320  10.297  0.2675 -2.4280  2.2098
  145SAPE   H5Y15963   0.053   0.197  10.184  0.0190  1.2164 -2.7972
  145SAPE   C3615964   0.231   0.265  10.116 -0.2516 -0.3988  0.2934
  145SAPE   H6X15965   0.242   0.180  10.045 -1.2986  1.0853 -1.7522
  145SAPE   H6Y15966   0.332   0.288  10.156  0.5951 -3.8199  0.3996
  145SAPE   C3715967   0.179   0.390  10.035  0.4773 -0.0278 -0.0704
  145SAPE   H7X15968   0.254   0.415   9.956  0.3556 -2.2392 -0.9709
  145SAPE   H7Y15969   0.169   0.477  10.103 -0.9068  1.2742 -1.8710
  145SAPE   C3815970   0.044   0.373   9.970  0.8230  0.4135 -0.0966
  145SAPE   H8X15971   0.005   0.461   9.915  0.6058 -0.0222 -0.6585
  145SAPE   H8Y15972  -0.030   0.353  10.050 -0.0107 -0.4019 -1.0401
  145SAPE   C3915973   0.024   0.249   9.879 -0.2573  0.1851  0.3170
  145SAPE   H9X15974  -0.084   0.238   9.856  0.0482 -1.2096 -0.6443
  145SAPE   H9Y15975   0.050   0.155   9.933 -2.3585  0.2441  1.5581
  145SAPE  C31015976   0.109   0.242   9.754 -0.3355  0.2173  0.2974
  145SAPE  H10X15977   0.095   0.146   9.700 -1.8083  0.8569 -0.5210
  145SAPE  H10Y15978   0.213   0.254   9.792 -0.1125 -2.1387  0.5902
  145SAPE  C31115979   0.075   0.351   9.650 -0.0237  0.2213 -0.3535
  145SAPE  H11X15980   0.084   0.443   9.712  0.8354 -0.0497 -0.0463
  145SAPE  H11Y15981  -0.033   0.342   9.628  0.0100 -0.3317 -0.2978
  145SAPE  C31215982   0.163   0.345   9.528 -0.0492 -0.9095 -0.0070
  145SAPE  H12X15983   0.144   0.244   9.484 -1.0155 -1.2630  1.1711
  145SAPE  H12Y15984   0.271   0.351   9.556  0.1670 -3.6171  0.0819
  145SAPE  C31315985   0.140   0.466   9.428  0.9618 -0.0140 -0.2486
  145SAPE  H13X15986   0.180   0.553   9.485  0.4301 -0.2010  0.4311
  145SAPE  H13Y15987   0.030   0.467   9.413  0.8725  1.6091  0.2903
  145SAPE  C31415988   0.229   0.451   9.302  0.0853  0.8862 -0.1509
  145SAPE  H14X15989   0.307   0.374   9.322 -2.1498 -1.6549 -0.6790
  145SAPE  H14Y15990   0.275   0.552   9.294  0.5993  1.0545  3.1975
  145SAPE  C31515991   0.158   0.405   9.175  0.1972 -0.0377  0.5088
  145SAPE  H15X15992   0.124   0.303   9.202 -1.8090  0.2996 -0.5817
  145SAPE  H15Y15993   0.229   0.393   9.091  1.3294  1.1141  1.2714
  145SAPE  C31615994   0.055   0.507   9.125  0.3494 -0.1918  0.1649
  145SAPE  H16X15995   0.103   0.607   9.114 -0.7984  0.3046 -0.4992
  145SAPE  H16Y15996  -0.025   0.516   9.202 -1.2088 -0.9325 -1.2994
  145SAPE  C31715997  -0.020   0.487   8.989 -0.3880  0.0662 -0.0084
  145SAPE  H17X15998  -0.093   0.567   8.963  0.9732  1.4211  0.2271
  145SAPE  H17Y15999  -0.089   0.403   9.012 -1.4399  1.2158  1.1482
  145SAPE  C31816000   0.071   0.458   8.873  0.0271  0.8830 -0.4149
  145SAPE  H18X16001   0.142   0.375   8.891  1.1601  1.6703 -1.1678
  145SAPE  H18Y16002   0.126   0.552   8.852  0.7375  0.6480  0.3223
  145SAPE  H18Z16003   0.011   0.434   8.783 -0.2385 -0.2741  0.0532
  146SAPE     N16004   5.447   1.385  10.665  0.2342 -0.3871 -0.2979
  146SAPE   HN116005   5.452   1.320  10.746 -2.2811  2.6945  2.6376
  146SAPE   HN216006   5.345   1.405  10.653 -0.4167 -1.8579  2.0357
  146SAPE   HN316007   5.473   1.341  10.574  1.5381 -0.7639  0.2349
  146SAPE   C1216008   5.530   1.506  10.703  0.4825 -0.4628  0.1458
  146SAPE  H12A16009   5.509   1.580  10.623 -1.7113 -1.1167  0.0454
  146SAPE  H12B16010   5.639   1.487  10.693  0.3831  0.1312 -2.7150
  146SAPE   C1116011   5.511   1.551  10.852  0.1753  0.3661  0.1110
  146SAPE  H11A16012   5.403   1.558  10.878 -0.1032  0.9516 -1.1139
  146SAPE  H11B16013   5.547   1.656  10.858 -2.6976  1.3769  3.4950
  146SAPE     P16014   5.602   1.511  11.095  0.2151  0.0095 -0.0889
  146SAPE   O1316015   5.499   1.607  11.141 -0.3460  0.2699  0.0606
  146SAPE   O1416016   5.627   1.396  11.186  0.1354  0.3013 -0.0353
  146SAPE   O1216017   5.567   1.464  10.949 -0.2109 -0.3027 -0.2780
  146SAPE   O1116018   5.741   1.595  11.096  0.3243  0.2564 -0.7073
  146SAPE    C116019   5.833   1.605  10.985  0.1806 -0.1352  0.5662
  146SAPE    HA16020   5.926   1.551  11.011 -0.9407 -2.4356  0.0895
  146SAPE    HB16021   5.801   1.555  10.891 -2.5073  1.0732  0.7506
  146SAPE    C216022   5.857   1.755  10.959 -0.4787  0.0131  0.2216
  146SAPE    HS16023   5.872   1.803  11.058 -0.7621  0.8101 -0.1158
  146SAPE   O2116024   5.733   1.800  10.891 -0.0241 -0.2487 -0.1796
  146SAPE   C2116025   5.686   1.915  10.928 -0.0196 -0.3038 -0.1636
  146SAPE   O2216026   5.735   1.994  11.005 -0.3317  0.3518 -0.0067
  146SAPE   C2216027   5.554   1.948  10.856  0.7177  0.7852 -0.1891
  146SAPE   H2R16028   5.478   1.889  10.912  0.5234  1.0646 -0.1592
  146SAPE   H2S16029   5.530   2.052  10.887  1.0089  0.3293  1.6810
  146SAPE    C316030   5.980   1.775  10.862  0.2257 -0.1380  0.0457
  146SAPE    HX16031   5.959   1.710  10.774  2.7989 -1.0794  0.0562
  146SAPE    HY16032   6.073   1.745  10.915 -0.8137  0.4725  2.3199
  146SAPE   O3116033   5.992   1.915  10.827  0.1111 -0.5902  0.6068
  146SAPE   C3116034   5.961   1.944  10.704 -0.0882  0.7490  0.5006
  146SAPE   O3216035   5.918   1.865  10.617  0.0407 -0.3995 -0.4431
  146SAPE   C3216036   5.979   2.096  10.678  0.0948 -0.3998  0.0985
  146SAPE   H2X16037   6.066   2.143  10.729 -0.5903  0.8464  0.1658
  146SAPE   H2Y16038   5.884   2.144  10.712  0.0582 -2.0827  2.6817
  146SAPE   C2316039   5.546   1.940  10.695  0.4886  0.8755  0.5129
  146SAPE   H3R16040   5.583   1.848  10.645  0.1218  0.1549  1.5300
  146SAPE   H3S16041   5.610   2.021  10.653  1.2611 -0.3026 -0.6529
  146SAPE   C2416042   5.407   1.967  10.628  0.2425  0.0386  0.1282
  146SAPE   H4R16043   5.418   1.916  10.530  0.6375  0.3187  0.0274
  146SAPE   H4S16044   5.384   2.074  10.606 -0.1850  0.1173  0.9389
  146SAPE   C2516045   5.295   1.900  10.706  0.4416 -0.0602  0.0607
  146SAPE   H5R16046   5.268   1.960  10.794  3.4741  1.0383  0.3463
  146SAPE   C2616047   5.226   1.786  10.685 -0.6147 -0.3146 -0.1345
  146SAPE   H6R16048   5.135   1.760  10.741 -2.4349  2.7885 -1.3699
  146SAPE   C2716049   5.252   1.691  10.570 -0.2656 -0.0516 -0.1500
  146SAPE   H7R16050   5.251   1.590  10.615 -0.9164 -1.2130 -2.5569
  146SAPE   H7S16051   5.352   1.703  10.522 -0.1656  1.1827  0.3305
  146SAPE   C2816052   5.138   1.692  10.475 -0.5887 -0.3020  0.0505
  146SAPE   H8R16053   5.040   1.663  10.516 -0.7447  0.9992  0.6589
  146SAPE   C2916054   5.155   1.710  10.341  0.0222  0.0399 -0.0395
  146SAPE   H9R16055   5.067   1.696  10.277  0.3233  1.9471 -0.9451
  146SAPE  C21016056   5.277   1.741  10.256 -0.1514  0.2931 -0.6314
  146SAPE  H10R16057   5.267   1.695  10.155 -1.5363 -1.6999  0.3575
  146SAPE  H10S16058   5.366   1.692  10.301 -0.6169  1.3030  1.5238
  146SAPE  C21116059   5.307   1.892  10.262  0.4410 -0.0030 -0.2519
  146SAPE  H11R16060   5.313   1.923  10.367 -0.2643 -0.4309 -0.0744
  146SAPE  C21216061   5.302   1.980  10.159 -0.1246 -0.8523 -0.3754
  146SAPE  H12R16062   5.309   2.088  10.174 -1.8285 -0.7950  0.2740
  146SAPE  C21316063   5.265   1.952  10.019  0.6801  0.1814 -0.4904
  146SAPE  H13R16064   5.330   1.873   9.977  2.3475  0.8963  0.6629
  146SAPE  H13S16065   5.299   2.030   9.947  0.9403  0.5211 -0.0033
  146SAPE  C21416066   5.117   1.921   9.999  0.0966  0.5870 -0.2023
  146SAPE  H14R16067   5.069   1.857  10.074  1.4103  1.8023  1.7882
  146SAPE  C21516068   5.035   1.980   9.903  0.5026  1.5134  0.1791
  146SAPE  H15R16069   4.926   1.965   9.896  0.8928 -2.0477 -0.1842
  146SAPE  C21616070   5.081   2.070   9.791  0.7545  0.7141 -0.0125
  146SAPE  H16R16071   5.187   2.106   9.791  0.8443  0.4698  1.0980
  146SAPE  H16S16072   5.007   2.153   9.787 -0.3700 -0.1713  1.7304
  146SAPE  C21716073   5.061   1.983   9.659 -0.3329  0.8774 -0.3001
  146SAPE  H17R16074   4.962   1.932   9.657 -0.1940  0.3607  2.1878
  146SAPE  H17S16075   5.141   1.906   9.656 -0.9049  0.2371  0.4032
  146SAPE  C21816076   5.088   2.062   9.529  0.4333 -0.1005  0.1076
  146SAPE  H18R16077   5.193   2.089   9.507  0.8204 -0.1461  1.7220
  146SAPE  H18S16078   5.040   2.160   9.547 -2.0928 -1.5500  1.8184
  146SAPE  C21916079   5.022   1.999   9.412  0.2076  1.1804  0.0063
  146SAPE  H19R16080   4.930   1.951   9.450  0.6170  0.0189 -0.4295
  146SAPE  H19S16081   5.086   1.914   9.383 -0.9535 -0.3344  1.6818
  146SAPE  C22016082   4.992   2.092   9.292 -0.4042  0.5012 -0.4023
  146SAPE  H20R16083   5.080   2.120   9.231  0.6175  0.5299  1.0363
  146SAPE  H20S16084   4.945   2.182   9.337 -2.5447 -0.9907  0.5181
  146SAPE  H20T16085   4.911   2.051   9.228  1.1915 -1.3048 -1.3636
  146SAPE   C3316086   6.012   2.115  10.532  0.1526 -0.1826 -0.4329
  146SAPE   H3X16087   5.979   2.216  10.500 -0.3425 -0.9326 -2.4517
  146SAPE   H3Y16088   5.935   2.059  10.474 -0.9811 -0.7104  1.5084
  146SAPE   C3416089   6.150   2.100  10.475 -0.0111  0.4112  0.3155
  146SAPE   H4X16090   6.195   2.011  10.525  0.2451 -0.3652 -1.2319
  146SAPE   H4Y16091   6.204   2.191  10.509  0.2627  0.3614  0.0195
  146SAPE   C3516092   6.166   2.073  10.325  0.2722 -0.2050 -0.4645
  146SAPE   H5X16093   6.156   1.963  10.313  0.4296 -0.3612  0.7860
  146SAPE   H5Y16094   6.268   2.095  10.286  1.2936 -2.5231  0.7047
  146SAPE   C3616095   6.055   2.130  10.230  0.2964 -0.0271 -0.9514
  146SAPE   H6X16096   6.050   2.238  10.253  5.6018  0.8631 -2.5601
  146SAPE   H6Y16097   5.961   2.075  10.253 -0.4825  1.8777  0.7040
  146SAPE   C3716098   6.095   2.099  10.085 -0.2208 -0.9581 -0.5745
  146SAPE   H7X16099   6.108   1.989  10.091 -0.7374 -0.9464  2.3408
  146SAPE   H7Y16100   6.187   2.152  10.052 -0.3513  0.6776  1.4831
  146SAPE   C3816101   5.970   2.125   9.994  0.2367  0.8100  0.8543
  146SAPE   H8X16102   5.940   2.232   9.996  0.0792  0.8035 -0.5130
  146SAPE   H8Y16103   5.885   2.059  10.023  0.4558 -0.5945 -1.4309
  146SAPE   C3916104   5.994   2.088   9.845 -0.4209  0.5695 -0.4033
  146SAPE   H9X16105   6.018   1.980   9.831 -1.4030 -0.1093  2.5009
  146SAPE   H9Y16106   6.085   2.140   9.808 -1.8195  2.6019 -1.1838
  146SAPE  C31016107   5.882   2.116   9.752  0.0089  0.0236 -0.8010
  146SAPE  H10X16108   5.865   2.226   9.750 -1.0929 -0.0887  0.8545
  146SAPE  H10Y16109   5.786   2.076   9.791  1.7746 -0.5330  3.4438
  146SAPE  C31116110   5.915   2.062   9.616 -0.6189 -0.0849  0.5124
  146SAPE  H11X16111   5.900   1.953   9.625 -0.2948 -0.0527  1.6816
  146SAPE  H11Y16112   6.022   2.083   9.597 -1.0779  3.5217  1.1519
  146SAPE  C31216113   5.836   2.124   9.502 -0.3620 -0.1000 -0.4931
  146SAPE  H12X16114   5.869   2.229   9.493  2.4302 -0.5645  2.5366
  146SAPE  H12Y16115   5.729   2.128   9.531 -0.0991  0.9568  0.3921
  146SAPE  C31316116   5.849   2.062   9.366  0.4942  0.3122 -0.4540
  146SAPE  H13X16117   5.847   1.951   9.366 -0.8085  0.3281 -0.5928
  146SAPE  H13Y16118   5.952   2.085   9.330  1.0642 -0.5317  0.5852
  146SAPE  C31416119   5.761   2.105   9.248  0.4354  0.0757 -0.5481
  146SAPE  H14X16120   5.789   2.212   9.233 -0.3305  0.2808 -0.5562
  146SAPE  H14Y16121   5.655   2.099   9.278  0.5268 -0.9071 -0.3762
  146SAPE  C31516122   5.784   2.031   9.121 -0.6534 -0.3961 -0.1964
  146SAPE  H15X16123   5.773   1.921   9.130  1.6053 -0.8304 -1.8849
  146SAPE  H15Y16124   5.886   2.060   9.089 -0.5019 -0.4720  0.2120
  146SAPE  C31616125   5.677   2.082   9.022  0.5378 -0.4767 -0.4827
  146SAPE  H16X16126   5.651   2.190   9.015  1.0551 -0.3245 -0.1161
  146SAPE  H16Y16127   5.582   2.029   9.046 -0.1100  1.0630  0.5163
  146SAPE  C31716128   5.701   2.046   8.872 -0.0030 -0.2920 -0.9232
  146SAPE  H17X16129   5.804   2.008   8.851  0.2960  0.4549 -0.8592
  146SAPE  H17Y16130   5.701   2.141   8.814 -0.8249  1.0696  1.1791
  146SAPE  C31816131   5.600   1.936   8.818  0.3739 -0.1540 -0.1238
  146SAPE  H18X16132   5.500   1.984   8.821  0.6266  0.3939 -0.4077
  146SAPE  H18Y16133   5.604   1.848   8.886  1.9582  2.0980  2.9505
  146SAPE  H18Z16134   5.630   1.909   8.715  2.4298  2.1597 -0.2392
  147SAPE     N16135   2.430   5.537   6.378 -0.3331  0.1417 -0.5956
  147SAPE   HN116136   2.342   5.589   6.398 -0.5302  0.3238 -1.8338
  147SAPE   HN216137   2.446   5.460   6.445  1.8951  0.3745 -0.7754
  147SAPE   HN316138   2.510   5.604   6.383 -0.6430  0.4515  0.2808
  147SAPE   C1216139   2.412   5.465   6.250 -0.6802  0.7965  0.1302
  147SAPE  H12A16140   2.499   5.488   6.186  0.8996 -0.8216  1.6099
  147SAPE  H12B16141   2.314   5.493   6.205 -1.0028 -0.1747  0.2113
  147SAPE   C1116142   2.396   5.307   6.271 -0.2773  0.1869  0.4084
  147SAPE  H11A16143   2.493   5.273   6.315  0.4894 -0.3295 -1.5659
  147SAPE  H11B16144   2.385   5.256   6.173  3.4729 -1.2514  0.5700
  147SAPE     P16145   2.304   5.227   6.503  0.0020 -0.0536  0.0379
  147SAPE   O1316146   2.359   5.087   6.513  0.3925 -0.6251  0.0108
  147SAPE   O1416147   2.386   5.331   6.565 -0.0326 -0.4393  0.1357
  147SAPE   O1216148   2.286   5.273   6.351 -0.5932  0.1692 -0.1786
  147SAPE   O1116149   2.152   5.233   6.555 -0.1068 -0.7411  0.4279
  147SAPE    C116150   2.086   5.358   6.593 -0.1967 -0.7584  0.4126
  147SAPE    HA16151   2.158   5.438   6.565 -2.3686  0.1183 -3.3866
  147SAPE    HB16152   1.995   5.383   6.535 -1.0505  0.0626  2.0734
  147SAPE    C216153   2.047   5.362   6.740  0.1299  0.2247  0.1483
  147SAPE    HS16154   2.032   5.469   6.769 -0.5503 -0.0421  0.8108
  147SAPE   O2116155   2.147   5.308   6.829  0.4337  0.5099 -0.0905
  147SAPE   C2116156   2.250   5.386   6.844 -1.1746  0.4075 -0.7113
  147SAPE   O2216157   2.265   5.490   6.782 -0.6253  0.4161  0.1204
  147SAPE   C2216158   2.332   5.332   6.953 -0.0732  0.7718  0.7259
  147SAPE   H2R16159   2.419   5.401   6.957 -0.4599  1.5528 -2.0308
  147SAPE   H2S16160   2.280   5.334   7.051 -0.3409  0.1545  0.6016
  147SAPE    C316161   1.916   5.274   6.760 -0.4211  0.0338  0.4537
  147SAPE    HX16162   1.952   5.182   6.708  1.2989  0.2931  1.1240
  147SAPE    HY16163   1.830   5.317   6.705  0.0220 -1.5847 -1.6499
  147SAPE   O3116164   1.870   5.249   6.896  0.3359 -0.3780 -0.0659
  147SAPE   C3116165   1.906   5.130   6.942 -0.0361  0.0432 -1.6100
  147SAPE   O3216166   1.909   5.029   6.875  0.3815 -0.0517  0.0229
  147SAPE   C3216167   1.917   5.154   7.096 -0.0733  0.6833 -0.3858
  147SAPE   H2X16168   1.816   5.169   7.139  0.1032  0.3204  0.1664
  147SAPE   H2Y16169   1.968   5.252   7.098  1.8885 -0.2917 -0.2053
  147SAPE   C2316170   2.372   5.181   6.932  0.0257 -0.9372 -0.3994
  147SAPE   H3R16171   2.389   5.174   6.823  1.1234 -0.0604 -0.3091
  147SAPE   H3S16172   2.286   5.117   6.960  0.9826 -2.5425 -1.0038
  147SAPE   C2416173   2.498   5.143   7.013  0.7433 -0.3872 -0.5359
  147SAPE   H4R16174   2.586   5.203   6.981  0.8090 -0.2996 -0.1948
  147SAPE   H4S16175   2.510   5.037   6.981  0.3631 -0.7002  0.3276
  147SAPE   C2516176   2.482   5.155   7.167 -0.5217  0.8570 -0.3786
  147SAPE   H5R16177   2.430   5.068   7.211 -1.6326  0.2118 -2.7977
  147SAPE   C2616178   2.528   5.258   7.234 -0.2612 -0.4233 -0.0788
  147SAPE   H6R16179   2.529   5.251   7.344 -1.2988 -1.3595 -0.1188
  147SAPE   C2716180   2.607   5.386   7.191  0.3055  0.8921 -0.5647
  147SAPE   H7R16181   2.547   5.477   7.214  0.5291  1.2693 -1.4487
  147SAPE   H7S16182   2.623   5.402   7.082 -2.2326 -4.0964 -1.9434
  147SAPE   C2816183   2.732   5.407   7.270 -0.2459  0.1151  0.5806
  147SAPE   H8R16184   2.819   5.419   7.205 -1.4719  1.6744 -0.8637
  147SAPE   C2916185   2.753   5.420   7.406  0.5537  0.5046 -0.1128
  147SAPE   H9R16186   2.855   5.432   7.446  0.3795  0.9593  0.2108
  147SAPE  C21016187   2.644   5.428   7.505 -0.0371  0.0384 -0.2149
  147SAPE  H10R16188   2.544   5.422   7.456 -0.1985  0.4465  0.0601
  147SAPE  H10S16189   2.651   5.531   7.546 -0.4982 -0.4556  1.1478
  147SAPE  C21116190   2.639   5.322   7.607 -0.2387 -0.0254  0.1792
  147SAPE  H11R16191   2.677   5.227   7.566  0.2845  1.1604 -2.2587
  147SAPE  C21216192   2.620   5.335   7.740 -0.6036  0.5827  0.5372
  147SAPE  H12R16193   2.635   5.243   7.800  0.5274  0.6342  0.3367
  147SAPE  C21316194   2.611   5.465   7.817  0.5206  0.1112 -0.5070
  147SAPE  H13R16195   2.530   5.536   7.790  0.4233  0.1080 -0.2269
  147SAPE  H13S16196   2.696   5.529   7.784 -2.3619  3.9492 -1.1487
  147SAPE  C21416197   2.610   5.460   7.968  0.8533  0.0692  0.1976
  147SAPE  H14R16198   2.524   5.518   8.007  1.3269  1.1452 -0.2992
  147SAPE  C21516199   2.708   5.419   8.051 -0.1246 -0.6544  0.1443
  147SAPE  H15R16200   2.696   5.435   8.159  1.5670  0.6787  0.1772
  147SAPE  C21616201   2.845   5.383   8.006  0.0907  0.1152 -0.2843
  147SAPE  H16R16202   2.846   5.364   7.896  1.5253 -2.3259  0.0942
  147SAPE  H16S16203   2.873   5.282   8.042  1.1804  0.0833 -1.1772
  147SAPE  C21716204   2.943   5.491   8.060  0.0811  0.6199  0.1409
  147SAPE  H17R16205   2.925   5.526   8.164  0.4748  1.0654  0.0619
  147SAPE  H17S16206   2.932   5.591   8.013 -0.4563  1.5243  2.1006
  147SAPE  C21816207   3.080   5.446   8.029  0.3551  0.7754 -0.1891
  147SAPE  H18R16208   3.076   5.392   7.932 -0.5672 -1.7606  1.1611
  147SAPE  H18S16209   3.106   5.362   8.097 -0.3302 -0.9208 -1.9339
  147SAPE  C21916210   3.188   5.556   8.024  0.4484 -0.6983 -0.4220
  147SAPE  H19R16211   3.182   5.618   7.932  2.6885  2.5504  1.4225
  147SAPE  H19S16212   3.292   5.518   8.020  1.7612  2.5373 -0.5446
  147SAPE  C22016213   3.183   5.652   8.147  0.3389 -0.0752 -0.6346
  147SAPE  H20R16214   3.271   5.719   8.143  0.3390  0.0163  0.4982
  147SAPE  H20S16215   3.170   5.603   8.246 -0.6472  2.7324  0.7288
  147SAPE  H20T16216   3.085   5.700   8.123 -0.7271 -1.9595 -0.2741
  147SAPE   C3316217   2.010   5.052   7.179  0.1092 -0.4251  0.4696
  147SAPE   H3X16218   2.094   5.028   7.110 -2.0841 -1.9839 -1.8555
  147SAPE   H3Y16219   1.958   4.962   7.218 -0.2634  0.2703  1.5931
  147SAPE   C3416220   2.073   5.122   7.297  0.4444 -0.5436 -0.2964
  147SAPE   H4X16221   1.995   5.188   7.339  1.6838  1.4879 -1.0074
  147SAPE   H4Y16222   2.145   5.189   7.246 -0.2984 -1.1416 -2.2150
  147SAPE   C3516223   2.136   5.033   7.400 -0.2091  0.3545  0.3092
  147SAPE   H5X16224   2.227   4.986   7.359  1.0021  0.7091  2.3965
  147SAPE   H5Y16225   2.068   4.956   7.442 -0.4812 -0.9776 -2.3725
  147SAPE   C3616226   2.193   5.113   7.526  0.2847 -0.5061  0.6706
  147SAPE   H6X16227   2.115   5.173   7.576  0.4917 -2.2696  3.2967
  147SAPE   H6Y16228   2.265   5.183   7.479  0.2096 -2.5248 -2.8141
  147SAPE   C3716229   2.261   5.019   7.631  0.6712 -0.0521 -0.0136
  147SAPE   H7X16230   2.327   4.951   7.573  0.3039 -1.2636  0.9525
  147SAPE   H7Y16231   2.183   4.957   7.680  0.4385  1.2437  1.3362
  147SAPE   C3816232   2.349   5.081   7.740 -0.1265  0.0965  0.4020
  147SAPE   H8X16233   2.418   5.157   7.697 -0.8233  0.8894  0.6608
  147SAPE   H8Y16234   2.404   5.002   7.795  1.8323  1.5577  0.6832
  147SAPE   C3916235   2.261   5.156   7.843 -0.9187  0.3031 -0.2994
  147SAPE   H9X16236   2.173   5.093   7.869 -0.1165 -1.0563 -0.7745
  147SAPE   H9Y16237   2.213   5.241   7.790 -0.8003 -0.3588 -1.4967
  147SAPE  C31016238   2.336   5.189   7.964 -0.6128  0.3429  0.5894
  147SAPE  H10X16239   2.413   5.264   7.936 -1.0403  0.0328 -1.6987
  147SAPE  H10Y16240   2.390   5.098   7.996 -3.0152 -0.9121  1.3134
  147SAPE  C31116241   2.259   5.244   8.086  0.7837 -0.0523 -0.8350
  147SAPE  H11X16242   2.188   5.165   8.117  3.3166 -1.8547  0.6821
  147SAPE  H11Y16243   2.201   5.337   8.064 -0.1663 -0.5810 -0.6056
  147SAPE  C31216244   2.345   5.259   8.215  0.6403 -0.3890  0.6777
  147SAPE  H12X16245   2.426   5.333   8.194  0.7062 -0.4760  0.6247
  147SAPE  H12Y16246   2.396   5.163   8.235  1.5633 -0.0806 -0.1160
  147SAPE  C31316247   2.268   5.311   8.334  0.3180 -0.2760 -0.3413
  147SAPE  H13X16248   2.331   5.321   8.425  0.0555 -1.8475  0.0426
  147SAPE  H13Y16249   2.200   5.231   8.370  1.6179  0.3297  3.9492
  147SAPE  C31416250   2.193   5.436   8.308 -0.0395  0.5899 -0.6096
  147SAPE  H14X16251   2.105   5.410   8.244  0.3324 -0.5552 -0.6849
  147SAPE  H14Y16252   2.244   5.514   8.248 -0.5442 -0.2823 -2.2254
  147SAPE  C31516253   2.130   5.501   8.436 -0.8547  0.8896 -0.1551
  147SAPE  H15X16254   2.207   5.540   8.505 -1.1944  0.3945  0.5191
  147SAPE  H15Y16255   2.072   5.423   8.491  0.3490 -1.0892 -1.5631
  147SAPE  C31616256   2.033   5.611   8.406  0.1442  0.4898 -0.3381
  147SAPE  H16X16257   1.962   5.576   8.328  1.2044 -1.8568 -0.3346
  147SAPE  H16Y16258   2.084   5.701   8.366  0.0146  0.8205  0.2299
  147SAPE  C31716259   1.949   5.653   8.529  0.6637  0.5377  0.3782
  147SAPE  H17X16260   2.013   5.705   8.604  0.6202  0.7795  0.2471
  147SAPE  H17Y16261   1.897   5.567   8.577 -0.1465  0.8348  0.0588
  147SAPE  C31816262   1.823   5.740   8.486  0.3040 -0.9547  0.5141
  147SAPE  H18X16263   1.762   5.785   8.566  1.2523 -1.5697  1.6080
  147SAPE  H18Y16264   1.751   5.672   8.436 -1.2405  0.9539  0.0036
  147SAPE  H18Z16265   1.861   5.821   8.419  0.0240 -0.3317  1.0909
  148SAPE     N16266   0.614   3.619   6.532  0.4535 -0.4365  0.2895
  148SAPE   HN116267   0.685   3.662   6.470 -0.8577  2.8249  0.8334
  148SAPE   HN216268   0.620   3.515   6.530  0.4467 -0.4207 -1.2546
  148SAPE   HN316269   0.517   3.644   6.503  0.0338 -0.1465  1.8531
  148SAPE   C1216270   0.638   3.652   6.671  0.5609  0.3493  0.4885
  148SAPE  H12A16271   0.741   3.691   6.676  0.6603  0.6415 -2.0705
  148SAPE  H12B16272   0.647   3.556   6.726  3.0902 -2.0669 -3.5736
  148SAPE   C1116273   0.539   3.755   6.734  0.2153 -0.3191  0.8411
  148SAPE  H11A16274   0.576   3.793   6.832  1.4197 -1.5252  0.8769
  148SAPE  H11B16275   0.440   3.707   6.749 -0.7254  1.0902 -0.4866
  148SAPE     P16276   0.579   4.002   6.659  0.0089 -0.2591  0.0486
  148SAPE   O1316277   0.532   4.076   6.540 -0.0168 -0.0735 -0.1418
  148SAPE   O1416278   0.550   4.063   6.789 -0.6022 -0.3388  0.4021
  148SAPE   O1216279   0.517   3.862   6.647  0.3548  0.1674  0.0954
  148SAPE   O1116280   0.727   3.971   6.641 -0.3042 -0.3381 -0.2578
  148SAPE    C116281   0.829   4.022   6.730  0.2866 -0.2803 -0.1494
  148SAPE    HA16282   0.888   4.103   6.683 -0.7753  1.5615  1.5077
  148SAPE    HB16283   0.792   4.073   6.822  0.6643 -1.2642  0.5676
  148SAPE    C216284   0.926   3.913   6.772  0.1037 -0.4825  0.5597
  148SAPE    HS16285   0.949   3.857   6.678 -0.8282  1.6959 -1.0491
  148SAPE   O2116286   0.853   3.825   6.859 -1.0560  0.2898 -0.0377
  148SAPE   C2116287   0.920   3.720   6.900  0.6043  0.2797 -0.1115
  148SAPE   O2216288   1.028   3.681   6.862 -0.3627 -0.2380 -0.1387
  148SAPE   C2216289   0.854   3.671   7.027  0.1828  0.5212 -0.9130
  148SAPE   H2R16290   0.743   3.663   7.029  0.2360 -2.2294  3.0674
  148SAPE   H2S16291   0.888   3.569   7.051 -1.7048  0.3387  1.4413
  148SAPE    C316292   1.057   3.974   6.829 -0.3029  0.0545  0.8860
  148SAPE    HX16293   1.096   4.033   6.743  0.3454 -1.7470 -0.1173
  148SAPE    HY16294   1.129   3.894   6.855 -0.6171 -0.6960 -0.4694
  148SAPE   O3116295   1.034   4.066   6.938 -0.3932  0.0022  0.0315
  148SAPE   C3116296   1.032   4.198   6.916  0.4280  0.1829  1.0341
  148SAPE   O3216297   1.053   4.250   6.806 -0.0564 -0.5774 -0.4454
  148SAPE   C3216298   1.012   4.284   7.034  0.1071  0.6288  0.2530
  148SAPE   H2X16299   0.993   4.214   7.118  1.0598 -2.0173 -1.5698
  148SAPE   H2Y16300   0.922   4.346   7.019 -0.5185 -0.5147 -0.9857
  148SAPE   C2316301   0.898   3.761   7.146 -0.5650 -0.3921 -1.0315
  148SAPE   H3R16302   0.841   3.722   7.234 -2.9072  2.5100 -1.0927
  148SAPE   H3S16303   0.862   3.865   7.130  0.7906  0.4008  0.6677
  148SAPE   C2416304   1.050   3.756   7.187  0.2358 -0.4282 -0.5447
  148SAPE   H4R16305   1.106   3.804   7.104  0.2608 -0.0052 -0.2845
  148SAPE   H4S16306   1.090   3.653   7.200 -0.2452 -0.4875  0.5330
  148SAPE   C2516307   1.070   3.850   7.305 -0.8042  0.0862  0.5953
  148SAPE   H5R16308   1.020   3.946   7.288 -2.0923 -0.5487  0.6790
  148SAPE   C2616309   1.136   3.828   7.420 -0.1205  0.0189 -0.0323
  148SAPE   H6R16310   1.134   3.903   7.500 -1.2600 -2.9006  2.8818
  148SAPE   C2716311   1.217   3.700   7.444  0.7014 -0.3665  0.5827
  148SAPE   H7R16312   1.316   3.729   7.486  1.8395 -0.0055 -2.1600
  148SAPE   H7S16313   1.242   3.658   7.345  1.1084 -1.4531  1.1306
  148SAPE   C2816314   1.137   3.601   7.527 -0.3140  1.1771  0.0893
  148SAPE   H8R16315   1.075   3.532   7.468  2.7622 -1.5886 -0.2591
  148SAPE   C2916316   1.146   3.571   7.656  0.1537 -0.3968 -0.5332
  148SAPE   H9R16317   1.084   3.488   7.695  1.2682 -1.1345 -0.2959
  148SAPE  C21016318   1.236   3.628   7.766  0.5783  0.4884  0.1941
  148SAPE  H10R16319   1.338   3.655   7.732  2.3265 -0.7721  3.9148
  148SAPE  H10S16320   1.253   3.542   7.835 -0.2730 -1.1996 -1.5877
  148SAPE  C21116321   1.184   3.752   7.837  0.9225 -0.2520 -0.2852
  148SAPE  H11R16322   1.205   3.852   7.797  1.0365 -0.2729 -0.2786
  148SAPE  C21216323   1.120   3.754   7.956 -0.3299  0.0095  0.5801
  148SAPE  H12R16324   1.097   3.849   8.005  3.3441  1.3245  0.0962
  148SAPE  C21316325   1.091   3.635   8.042  0.7132 -0.0816 -0.2169
  148SAPE  H13R16326   1.056   3.553   7.976 -0.3345 -0.3624  0.6659
  148SAPE  H13S16327   0.998   3.652   8.099  0.1743 -1.9845 -0.4633
  148SAPE  C21416328   1.201   3.597   8.139 -0.2726 -0.5597  0.5789
  148SAPE  H14R16329   1.298   3.610   8.089 -0.5816  1.0759  0.3649
  148SAPE  C21516330   1.191   3.551   8.263 -0.0758 -0.0023 -0.4697
  148SAPE  H15R16331   1.284   3.544   8.321 -0.4066 -1.2297 -0.0430
  148SAPE  C21616332   1.070   3.534   8.347 -0.0550 -0.4543 -0.0592
  148SAPE  H16R16333   1.012   3.454   8.295  0.7880 -0.0504 -1.6879
  148SAPE  H16S16334   1.004   3.623   8.340  1.9604  0.9823 -2.7328
  148SAPE  C21716335   1.099   3.484   8.493  0.4375  0.2802 -0.2616
  148SAPE  H17R16336   1.155   3.566   8.542 -1.9817  1.6642  0.3664
  148SAPE  H17S16337   1.166   3.397   8.477  2.0863  1.5878 -0.7345
  148SAPE  C21816338   0.970   3.443   8.559 -0.3856  0.1275 -0.4915
  148SAPE  H18R16339   1.000   3.386   8.650  0.0064  1.9431  0.5652
  148SAPE  H18S16340   0.905   3.384   8.491 -1.3535  0.2967  0.2697
  148SAPE  C21916341   0.880   3.556   8.608  0.0001 -0.1915  0.0526
  148SAPE  H19R16342   0.865   3.616   8.516 -0.5156 -1.0800 -0.4589
  148SAPE  H19S16343   0.930   3.613   8.689  1.0775 -2.0138  0.7350
  148SAPE  C22016344   0.745   3.501   8.669  0.0900 -0.3981 -0.5039
  148SAPE  H20R16345   0.710   3.423   8.598 -1.1146 -1.3063  1.0111
  148SAPE  H20S16346   0.672   3.585   8.677 -0.0867 -0.4852 -1.1726
  148SAPE  H20T16347   0.765   3.470   8.774  4.1276 -0.6386 -1.2075
  148SAPE   C3316348   1.133   4.378   7.047 -0.6282 -0.0473  0.2446
  148SAPE   H3X16349   1.143   4.431   6.950 -0.1125 -0.8187 -0.1278
  148SAPE   H3Y16350   1.224   4.326   7.083  0.0001 -0.2738 -1.5436
  148SAPE   C3416351   1.113   4.493   7.153 -0.2663  0.0786  0.4181
  148SAPE   H4X16352   1.052   4.562   7.090 -2.2661 -1.2873  0.7609
  148SAPE   H4Y16353   1.211   4.545   7.154 -0.0895  0.0441 -2.7793
  148SAPE   C3516354   1.053   4.460   7.283  0.6536  0.3963 -0.8354
  148SAPE   H5X16355   1.111   4.385   7.340 -2.4423 -0.6431  1.1940
  148SAPE   H5Y16356   0.947   4.426   7.281  0.7294  0.1043 -0.1062
  148SAPE   C3616357   1.048   4.587   7.375 -0.5910  0.0011 -1.0225
  148SAPE   H6X16358   0.990   4.666   7.323  1.1555  1.2362 -1.1887
  148SAPE   H6Y16359   1.150   4.631   7.382 -1.1691  1.1695  0.3848
  148SAPE   C3716360   0.999   4.560   7.514  0.0589  0.6686 -0.6896
  148SAPE   H7X16361   1.067   4.493   7.570 -1.0115 -1.1354 -1.4657
  148SAPE   H7Y16362   0.904   4.502   7.512  0.7276 -0.4924  0.5040
  148SAPE   C3816363   0.981   4.687   7.593 -0.0912 -0.6075  0.5001
  148SAPE   H8X16364   0.904   4.744   7.536 -1.0592  0.9708  3.2024
  148SAPE   H8Y16365   1.074   4.747   7.586 -1.3208  1.3538 -0.0332
  148SAPE   C3916366   0.938   4.661   7.738 -0.7915  0.5331  0.5895
  148SAPE   H9X16367   1.010   4.590   7.784 -2.1978 -1.4963 -0.2318
  148SAPE   H9Y16368   0.839   4.611   7.734  0.2765 -1.6208 -0.8861
  148SAPE  C31016369   0.941   4.786   7.822  0.5058 -0.6532 -0.1175
  148SAPE  H10X16370   0.860   4.852   7.783 -0.0305 -1.5879 -0.6251
  148SAPE  H10Y16371   1.044   4.826   7.826  0.8175 -1.4434  0.0017
  148SAPE  C31116372   0.892   4.759   7.969 -0.3159  0.0929  0.0837
  148SAPE  H11X16373   0.979   4.708   8.015  0.6465  0.7511 -0.9476
  148SAPE  H11Y16374   0.805   4.690   7.974  1.2813 -1.9245  3.0345
  148SAPE  C31216375   0.858   4.878   8.060 -0.3448  0.7405  0.5755
  148SAPE  H12X16376   0.770   4.927   8.015 -0.3137 -0.5983 -1.0155
  148SAPE  H12Y16377   0.952   4.935   8.080  0.0998 -0.1287  1.0076
  148SAPE  C31316378   0.805   4.823   8.196 -0.1461  0.1286  0.6161
  148SAPE  H13X16379   0.885   4.760   8.242  0.3667 -0.6373 -1.2310
  148SAPE  H13Y16380   0.711   4.765   8.181 -1.0764  1.4781  1.0592
  148SAPE  C31416381   0.787   4.932   8.301  0.0667  0.1428 -0.2735
  148SAPE  H14X16382   0.693   4.987   8.279  0.7405  1.5689  0.3014
  148SAPE  H14Y16383   0.869   5.006   8.310 -0.5277  0.6430  1.3671
  148SAPE  C31516384   0.755   4.878   8.445  0.0901  0.1928 -0.6838
  148SAPE  H15X16385   0.822   4.790   8.455 -0.3447 -0.0620  0.0709
  148SAPE  H15Y16386   0.650   4.841   8.450  0.0929  0.3263  1.3719
  148SAPE  C31616387   0.776   4.972   8.558  0.1381  0.0652  0.3900
  148SAPE  H16X16388   0.703   5.056   8.556 -0.5319 -0.4694  1.5973
  148SAPE  H16Y16389   0.879   5.013   8.565  0.0826  0.2935 -0.0711
  148SAPE  C31716390   0.740   4.907   8.688 -0.6613 -0.2476  0.4118
  148SAPE  H17X16391   0.778   4.803   8.693  2.1805  0.7054  0.7913
  148SAPE  H17Y16392   0.631   4.902   8.707 -0.7586  2.4821  0.9953
  148SAPE  C31816393   0.793   4.986   8.816  0.1947  0.4153 -0.0587
  148SAPE  H18X16394   0.752   5.089   8.801 -1.5813 -0.3432 -0.6704
  148SAPE  H18Y16395   0.903   4.975   8.827  0.0623 -0.1631  0.7647
  148SAPE  H18Z16396   0.738   4.953   8.906  0.4790 -0.5958 -0.2461
  149SAPE     N16397   1.420   4.852   6.383 -0.7095 -0.6349 -0.4468
  149SAPE   HN116398   1.429   4.925   6.310  2.0646 -0.7377 -0.3093
  149SAPE   HN216399   1.424   4.761   6.332 -3.3546 -0.4447 -1.1212
  149SAPE   HN316400   1.331   4.878   6.429 -0.5864  0.0804 -0.6056
  149SAPE   C1216401   1.538   4.863   6.480  0.5351 -0.1182 -0.5587
  149SAPE  H12A16402   1.628   4.814   6.438 -0.4481 -2.8609  0.2725
  149SAPE  H12B16403   1.508   4.796   6.564 -2.1954 -2.4154 -3.1427
  149SAPE   C1116404   1.559   5.011   6.519 -0.3583  0.4887  0.2478
  149SAPE  H11A16405   1.646   5.013   6.589 -0.4315 -1.8874  0.4882
  149SAPE  H11B16406   1.471   5.044   6.579  0.1054 -0.1802  1.3327
  149SAPE     P16407   1.585   5.248   6.411  0.4188  0.2776  0.2842
  149SAPE   O1316408   1.726   5.276   6.441 -0.1563  0.3115 -0.0382
  149SAPE   O1416409   1.530   5.304   6.283  0.8625 -0.4442 -0.0987
  149SAPE   O1216410   1.578   5.084   6.395  0.7740 -0.3423  0.2810
  149SAPE   O1116411   1.493   5.292   6.527 -0.6687  0.5981  0.1993
  149SAPE    C116412   1.438   5.422   6.548 -0.5007  0.3894 -0.5597
  149SAPE    HA16413   1.524   5.490   6.569 -0.4362 -0.2186  1.4004
  149SAPE    HB16414   1.391   5.461   6.456 -0.7411  1.4624  0.0083
  149SAPE    C216415   1.326   5.437   6.649 -0.4125 -0.0757 -0.0331
  149SAPE    HS16416   1.281   5.539   6.646 -0.1807  0.0129 -0.9063
  149SAPE   O2116417   1.367   5.399   6.778 -0.0903 -0.7026  0.0262
  149SAPE   C2116418   1.460   5.478   6.833  0.5814  0.4457  0.9698
  149SAPE   O2216419   1.483   5.587   6.785 -0.1654 -0.4681 -0.1048
  149SAPE   C2216420   1.540   5.411   6.944 -0.2171 -0.1077 -0.1999
  149SAPE   H2R16421   1.469   5.335   6.984 -1.1752  0.3303 -1.0337
  149SAPE   H2S16422   1.627   5.373   6.887  2.0283  1.6615  1.8380
  149SAPE    C316423   1.203   5.352   6.604  0.3515  0.7728 -0.3306
  149SAPE    HX16424   1.243   5.255   6.567  0.2220  0.8125 -0.5780
  149SAPE    HY16425   1.149   5.392   6.516  1.6048  1.3066 -0.8724
  149SAPE   O3116426   1.097   5.341   6.704 -0.1233 -0.3469  0.5376
  149SAPE   C3116427   1.089   5.229   6.782  0.5094  0.0227  0.8963
  149SAPE   O3216428   1.147   5.126   6.752 -0.3106  0.2586  0.2303
  149SAPE   C3216429   0.979   5.245   6.895  0.7904  0.3078 -0.3299
  149SAPE   H2X16430   0.991   5.156   6.961  1.5789  0.1149 -0.7200
  149SAPE   H2Y16431   0.882   5.223   6.847 -1.5822  2.9309  2.7992
  149SAPE   C2316432   1.580   5.519   7.051 -0.0331 -0.6067  0.3394
  149SAPE   H3R16433   1.494   5.575   7.095  0.0472 -1.5726  1.7940
  149SAPE   H3S16434   1.644   5.592   6.997 -0.1474 -1.0619 -0.4228
  149SAPE   C2416435   1.657   5.455   7.156  0.2670  0.2788 -0.0516
  149SAPE   H4R16436   1.730   5.525   7.201  2.5188 -1.5310 -0.7145
  149SAPE   H4S16437   1.728   5.382   7.111  0.3486  0.3405 -0.0236
  149SAPE   C2516438   1.564   5.384   7.258  0.0792 -0.1165 -0.0451
  149SAPE   H5R16439   1.485   5.321   7.216 -2.1244  1.4245  1.5094
  149SAPE   C2616440   1.570   5.391   7.394 -0.9086 -0.0632  0.7294
  149SAPE   H6R16441   1.487   5.347   7.451 -2.8633  2.1156 -0.2600
  149SAPE   C2716442   1.683   5.474   7.462  0.1965  0.5565 -0.3188
  149SAPE   H7R16443   1.636   5.516   7.554 -0.3092  0.6876 -0.6365
  149SAPE   H7S16444   1.712   5.568   7.409 -0.7698 -0.0220 -1.9170
  149SAPE   C2816445   1.807   5.393   7.492  0.1279 -0.3420 -0.6284
  149SAPE   H8R16446   1.857   5.371   7.396 -0.5333 -0.8333 -0.8727
  149SAPE   C2916447   1.834   5.332   7.609  0.2135 -0.2718 -0.6636
  149SAPE   H9R16448   1.926   5.274   7.622  0.2634  0.1740  1.3006
  149SAPE  C21016449   1.760   5.347   7.744 -0.2483  0.7993 -0.1992
  149SAPE  H10R16450   1.711   5.250   7.768  2.6965 -1.6849 -3.1655
  149SAPE  H10S16451   1.678   5.420   7.733 -0.9300 -0.1042 -1.3131
  149SAPE  C21116452   1.849   5.391   7.857 -0.5496  0.7647  0.0193
  149SAPE  H11R16453   1.884   5.496   7.858  0.4836  0.4579  2.0096
  149SAPE  C21216454   1.884   5.332   7.976  0.3066  0.4108  0.5278
  149SAPE  H12R16455   1.945   5.390   8.046  2.0617  1.2274 -1.5620
  149SAPE  C21316456   1.833   5.202   8.026 -0.8458  0.6180  0.7551
  149SAPE  H13R16457   1.915   5.142   8.072  0.1657  0.2827 -1.3701
  149SAPE  H13S16458   1.788   5.142   7.944 -0.3899 -0.1635  1.0610
  149SAPE  C21416459   1.739   5.235   8.141 -0.2095 -0.6274 -0.1713
  149SAPE  H14R16460   1.672   5.319   8.118  0.7927  0.0996 -0.4994
  149SAPE  C21516461   1.722   5.163   8.251  0.0866 -0.0374 -0.4523
  149SAPE  H15R16462   1.637   5.189   8.317  0.0463  0.7964 -0.8308
  149SAPE  C21616463   1.801   5.037   8.293 -0.0335 -0.3704 -0.0949
  149SAPE  H16R16464   1.850   4.987   8.206  1.6916 -0.6001  0.9604
  149SAPE  H16S16465   1.721   4.971   8.333  0.1266 -0.4256  0.1338
  149SAPE  C21716466   1.899   5.059   8.407  0.5062 -0.2850 -0.1590
  149SAPE  H17R16467   2.002   5.087   8.379  0.1300 -0.4374 -1.7763
  149SAPE  H17S16468   1.909   4.961   8.459  0.3583 -0.8024 -1.0710
  149SAPE  C21816469   1.843   5.159   8.516 -0.4708 -0.1681  0.6526
  149SAPE  H18R16470   1.820   5.260   8.474  0.2500 -0.6021 -0.8728
  149SAPE  H18S16471   1.914   5.177   8.599  0.1088  1.8896 -0.2191
  149SAPE  C21916472   1.715   5.111   8.584 -0.3780 -0.0345 -0.1322
  149SAPE  H19R16473   1.631   5.096   8.512 -0.7773  1.8900 -0.1278
  149SAPE  H19S16474   1.674   5.198   8.638 -0.2163  1.1165 -1.7786
  149SAPE  C22016475   1.733   4.986   8.677 -0.0630 -0.4971  0.0364
  149SAPE  H20R16476   1.739   4.884   8.633  1.6778 -0.3301 -0.2034
  149SAPE  H20S16477   1.645   4.983   8.744  0.4472 -0.4450  0.7261
  149SAPE  H20T16478   1.815   5.007   8.750  0.0826 -0.5226 -0.1191
  149SAPE   C3316479   0.978   5.383   6.975  0.2759  0.5667  1.0791
  149SAPE   H3X16480   0.878   5.398   7.021 -0.2383 -2.2207  1.0982
  149SAPE   H3Y16481   0.991   5.474   6.913  0.6294  0.6113  1.2173
  149SAPE   C3416482   1.082   5.396   7.078  0.2707 -0.2508 -0.7816
  149SAPE   H4X16483   1.177   5.437   7.035 -0.2601  1.8298 -0.1052
  149SAPE   H4Y16484   1.110   5.304   7.133  0.5389  1.4361  2.0706
  149SAPE   C3516485   1.052   5.498   7.197  0.0006 -0.2584  0.0104
  149SAPE   H5X16486   0.961   5.482   7.259 -0.3904  2.9948  0.4187
  149SAPE   H5Y16487   1.051   5.601   7.157  0.1417 -0.7642 -1.3403
  149SAPE   C3616488   1.177   5.502   7.286  0.2386  0.1374 -0.9557
  149SAPE   H6X16489   1.259   5.530   7.217 -0.4825  0.6450 -1.6354
  149SAPE   H6Y16490   1.197   5.401   7.327  2.4500  0.5255 -0.9393
  149SAPE   C3716491   1.163   5.593   7.405 -0.1455 -0.5641  0.2786
  149SAPE   H7X16492   1.073   5.570   7.466 -0.8238  2.8141  0.7241
  149SAPE   H7Y16493   1.142   5.697   7.373  2.2977 -0.2199 -0.4599
  149SAPE   C3816494   1.299   5.586   7.484  0.2568 -0.3431  0.5984
  149SAPE   H8X16495   1.371   5.627   7.411  0.9499 -1.7406  0.4592
  149SAPE   H8Y16496   1.321   5.479   7.502 -0.1459 -0.6390 -0.5966
  149SAPE   C3916497   1.295   5.656   7.619  0.3344  0.7095  0.1351
  149SAPE   H9X16498   1.201   5.616   7.663  0.8972  0.7422  1.4051
  149SAPE   H9Y16499   1.292   5.765   7.600 -1.4066  0.9574  1.5323
  149SAPE  C31016500   1.410   5.622   7.715  0.5716  0.0992  0.1763
  149SAPE  H10X16501   1.495   5.663   7.655  0.4214  2.6616  1.5847
  149SAPE  H10Y16502   1.430   5.514   7.732  0.4808 -0.0092 -0.3805
  149SAPE  C31116503   1.387   5.686   7.844 -0.7819  0.3209  0.8343
  149SAPE  H11X16504   1.352   5.789   7.824  0.7808  0.8043  0.5092
  149SAPE  H11Y16505   1.473   5.683   7.914 -1.0101  1.3247  1.1805
  149SAPE  C31216506   1.283   5.604   7.923 -0.2972  0.0537 -0.4819
  149SAPE  H12X16507   1.304   5.495   7.911  2.4500  0.5736 -0.9706
  149SAPE  H12Y16508   1.186   5.636   7.878 -0.6254 -1.7537 -1.1428
  149SAPE  C31316509   1.276   5.637   8.080  0.2309 -0.3460  0.4261
  149SAPE  H13X16510   1.177   5.626   8.127 -0.1753 -1.3809 -0.6241
  149SAPE  H13Y16511   1.302   5.746   8.081  1.6596 -0.5802 -1.8840
  149SAPE  C31416512   1.381   5.551   8.153  0.5982  0.0208  0.1184
  149SAPE  H14X16513   1.467   5.534   8.084 -0.2194  0.9858 -1.1865
  149SAPE  H14Y16514   1.338   5.449   8.156 -2.2885  1.0969 -1.4079
  149SAPE  C31516515   1.398   5.582   8.303  0.0616 -0.1953 -0.3601
  149SAPE  H15X16516   1.298   5.578   8.350  1.6582 -0.3504  3.3197
  149SAPE  H15Y16517   1.444   5.683   8.313  0.7548 -0.6839  2.1072
  149SAPE  C31616518   1.473   5.466   8.370 -0.3615 -0.5813 -0.0434
  149SAPE  H16X16519   1.579   5.465   8.336 -0.5700 -1.6837 -0.7208
  149SAPE  H16Y16520   1.425   5.370   8.344 -0.7227 -0.4493  0.1321
  149SAPE  C31716521   1.484   5.489   8.523 -0.0755  0.4810 -0.6171
  149SAPE  H17X16522   1.539   5.584   8.537 -0.5559  0.5114  1.3210
  149SAPE  H17Y16523   1.550   5.414   8.572  0.4045  1.6574  0.6090
  149SAPE  C31816524   1.348   5.488   8.599  0.2968 -0.2918  0.8981
  149SAPE  H18X16525   1.273   5.564   8.569  0.3363 -1.0918 -1.4657
  149SAPE  H18Y16526   1.373   5.522   8.702  0.1010  0.9314  0.5580
  149SAPE  H18Z16527   1.302   5.387   8.601 -1.0130  0.1398 -1.9808
  150SAPE     N16528   0.366   5.907   6.120  0.6566 -0.5428 -0.2977
  150SAPE   HN116529   0.348   5.925   6.019 -1.9838 -1.2023 -0.0144
  150SAPE   HN216530   0.405   5.988   6.172 -1.2732 -0.7025  1.4991
  150SAPE   HN316531   0.425   5.823   6.132 -0.6074 -1.2658  1.1895
  150SAPE   C1216532   0.222   5.876   6.172 -0.0325  0.0831  0.3252
  150SAPE  H12A16533   0.146   5.950   6.142  0.1373  0.0823 -0.1146
  150SAPE  H12B16534   0.235   5.875   6.282  3.0166  0.5093  0.0623
  150SAPE   C1116535   0.185   5.732   6.128 -0.0502 -0.0047  0.6961
  150SAPE  H11A16536   0.171   5.724   6.018 -0.1424 -1.3979  0.7943
  150SAPE  H11B16537   0.088   5.704   6.174  0.7966 -1.9645  1.4164
  150SAPE     P16538   0.310   5.575   6.314  0.1717 -0.0679  0.2015
  150SAPE   O1316539   0.192   5.488   6.345  0.5315 -0.1077  0.4088
  150SAPE   O1416540   0.449   5.519   6.319 -0.0198 -0.6551  0.3914
  150SAPE   O1216541   0.287   5.638   6.169  0.3503  0.8325 -0.1398
  150SAPE   O1116542   0.301   5.700   6.409  0.6043 -0.2356 -0.2058
  150SAPE    C116543   0.410   5.722   6.507  0.1876 -0.1519  0.0051
  150SAPE    HA16544   0.513   5.698   6.474  0.0961 -1.3847  0.5640
  150SAPE    HB16545   0.416   5.831   6.523  1.1724 -0.3791  1.3520
  150SAPE    C216546   0.395   5.651   6.644  0.0561 -0.0580 -0.0950
  150SAPE    HS16547   0.390   5.542   6.620 -3.3219 -0.0904  0.2895
  150SAPE   O2116548   0.274   5.687   6.712  0.4945  0.1100 -0.0718
  150SAPE   C2116549   0.174   5.602   6.725  0.0930  0.5898  0.4533
  150SAPE   O2216550   0.180   5.485   6.693  0.2505  0.5262 -0.1936
  150SAPE   C2216551   0.061   5.668   6.804  0.2828  0.3293 -0.5125
  150SAPE   H2R16552   0.111   5.724   6.886 -0.6217 -0.9869  1.0000
  150SAPE   H2S16553   0.018   5.731   6.724  3.2218 -0.0388 -2.5471
  150SAPE    C316554   0.507   5.678   6.744  0.4413  0.6264  0.6401
  150SAPE    HX16555   0.602   5.643   6.698 -0.9035  0.0448 -1.8706
  150SAPE    HY16556   0.488   5.616   6.834 -0.7144  0.0444  0.0138
  150SAPE   O3116557   0.514   5.814   6.797  0.1826 -0.3999 -0.2600
  150SAPE   C3116558   0.607   5.888   6.744  0.0551 -0.4535 -0.6540
  150SAPE   O3216559   0.681   5.859   6.652  0.0814 -0.1628 -0.5236
  150SAPE   C3216560   0.589   6.030   6.804 -0.4058  0.2969 -0.1897
  150SAPE   H2X16561   0.544   6.015   6.904  1.7774  0.5263  0.8786
  150SAPE   H2Y16562   0.520   6.077   6.730 -1.6789 -1.5665 -0.2376
  150SAPE   C2316563  -0.037   5.560   6.861 -1.1254 -0.6098  0.9294
  150SAPE   H3R16564   0.017   5.500   6.937 -0.5285 -0.8995  0.2883
  150SAPE   H3S16565  -0.069   5.491   6.780 -1.1629 -0.6945  1.0157
  150SAPE   C2416566  -0.165   5.621   6.918  0.0512  0.3706  0.1219
  150SAPE   H4R16567  -0.216   5.687   6.845 -1.4358  0.8246  1.4838
  150SAPE   H4S16568  -0.146   5.692   7.001  0.1861 -0.2533  0.6343
  150SAPE   C2516569  -0.261   5.515   6.964 -0.5294 -0.9285  0.1281
  150SAPE   H5R16570  -0.318   5.460   6.888 -2.9455 -1.4657  2.2097
  150SAPE   C2616571  -0.294   5.489   7.095 -0.3489  0.7968 -1.0122
  150SAPE   H6R16572  -0.363   5.404   7.109 -0.3301  0.8014 -0.8927
  150SAPE   C2716573  -0.245   5.550   7.222 -0.3216 -0.0867 -0.3211
  150SAPE   H7R16574  -0.324   5.616   7.263  0.4489 -0.0570  1.1670
  150SAPE   H7S16575  -0.163   5.622   7.205  1.0501 -0.7778  2.7660
  150SAPE   C2816576  -0.180   5.440   7.311 -0.3378 -0.1931  0.0117
  150SAPE   H8R16577  -0.091   5.388   7.273  0.1047  0.0068  0.7580
  150SAPE   C2916578  -0.209   5.424   7.439  0.1423  0.7501 -0.3171
  150SAPE   H9R16579  -0.152   5.349   7.496 -2.1047 -1.3410 -0.6583
  150SAPE  C21016580  -0.309   5.506   7.521  0.6228 -0.2210 -0.2886
  150SAPE  H10R16581  -0.415   5.492   7.490  0.6852  2.4642 -2.0275
  150SAPE  H10S16582  -0.294   5.616   7.512  2.1882 -0.3094  0.8843
  150SAPE  C21116583  -0.306   5.451   7.662 -0.3734  0.2778  0.0061
  150SAPE  H11R16584  -0.323   5.344   7.679  2.0112  0.0063  1.0445
  150SAPE  C21216585  -0.280   5.523   7.773  0.3695 -0.2767  0.2205
  150SAPE  H12R16586  -0.292   5.471   7.869  0.8744 -0.7716  0.0181
  150SAPE  C21316587  -0.246   5.671   7.774  0.7134  0.2246  0.3947
  150SAPE  H13R16588  -0.335   5.734   7.795  0.6458  0.2431  0.0477
  150SAPE  H13S16589  -0.209   5.710   7.677 -2.4397  1.7865 -0.3072
  150SAPE  C21416590  -0.146   5.700   7.881  0.4222 -0.1353  0.1956
  150SAPE  H14R16591  -0.043   5.718   7.845  0.7085  1.7010  1.7299
  150SAPE  C21516592  -0.167   5.738   8.011 -0.4021 -0.9903 -0.3502
  150SAPE  H15R16593  -0.082   5.749   8.079  0.6868 -1.3936 -1.6049
  150SAPE  C21616594  -0.303   5.751   8.078  0.2024  0.2471  0.0810
  150SAPE  H16R16595  -0.305   5.672   8.156  1.1473  0.6459  0.5353
  150SAPE  H16S16596  -0.385   5.714   8.013  2.1521 -1.9049 -1.3027
  150SAPE  C21716597  -0.344   5.877   8.155 -0.6145 -0.1074  0.4004
  150SAPE  H17R16598  -0.345   5.958   8.080  2.3323 -0.9153 -0.6556
  150SAPE  H17S16599  -0.271   5.908   8.233 -2.3581  1.0524  1.6392
  150SAPE  C21816600  -0.485   5.863   8.224  0.6414  0.5583 -0.0933
  150SAPE  H18R16601  -0.481   5.779   8.296 -0.9447 -0.0516 -0.6741
  150SAPE  H18S16602  -0.567   5.820   8.162  1.4037 -1.5949  0.3237
  150SAPE  C21916603  -0.533   5.986   8.301 -0.1818  0.1384 -0.0799
  150SAPE  H19R16604  -0.627   5.959   8.354  2.0124 -1.2942  3.4176
  150SAPE  H19S16605  -0.558   6.063   8.224  1.5577  0.3444 -0.4656
  150SAPE  C22016606  -0.434   6.047   8.401  0.3786 -0.5458  0.5414
  150SAPE  H20R16607  -0.401   5.961   8.463 -0.6250 -0.1838  1.6078
  150SAPE  H20S16608  -0.477   6.132   8.458  0.4853  0.5779 -0.9701
  150SAPE  H20T16609  -0.354   6.089   8.337 -1.9371 -1.0783 -3.0188
  150SAPE   C3316610   0.719   6.107   6.818 -0.1148  0.2651  0.6616
  150SAPE   H3X16611   0.755   6.104   6.713 -0.5799  0.6281  0.4913
  150SAPE   H3Y16612   0.805   6.068   6.877  0.9647  0.0567 -0.9890
  150SAPE   C3416613   0.694   6.252   6.842 -0.2420  0.2417 -0.4709
  150SAPE   H4X16614   0.624   6.283   6.762  0.3737  1.3901 -0.5861
  150SAPE   H4Y16615   0.785   6.312   6.820  1.2268 -0.8121  2.2663
  150SAPE   C3516616   0.634   6.272   6.982 -0.9728  0.3698  0.2074
  150SAPE   H5X16617   0.537   6.219   6.994 -0.0732 -2.0019 -2.0288
  150SAPE   H5Y16618   0.615   6.380   6.997  1.0242  0.7749  0.0415
  150SAPE   C3616619   0.739   6.237   7.086  0.3330 -0.1026 -0.0150
  150SAPE   H6X16620   0.838   6.270   7.047 -0.4508  0.4792 -1.6317
  150SAPE   H6Y16621   0.729   6.127   7.095 -1.5124 -0.3621 -3.4589
  150SAPE   C3716622   0.726   6.296   7.224  0.8098  0.3870  0.1265
  150SAPE   H7X16623   0.756   6.403   7.227  0.1887  0.6082 -1.0790
  150SAPE   H7Y16624   0.804   6.243   7.282 -0.1085 -2.5227 -1.1128
  150SAPE   C3816625   0.581   6.282   7.278 -0.0194  0.1316 -0.6362
  150SAPE   H8X16626   0.559   6.175   7.293 -1.8141  0.5987  0.3868
  150SAPE   H8Y16627   0.514   6.330   7.203 -0.0040  1.6744  0.2974
  150SAPE   C3916628   0.562   6.353   7.415  0.4096 -0.0428  0.0330
  150SAPE   H9X16629   0.461   6.327   7.452  0.4774 -2.8504 -1.4614
  150SAPE   H9Y16630   0.559   6.464   7.416 -0.0823 -0.0391 -0.7083
  150SAPE  C31016631   0.664   6.314   7.529 -0.7100  0.7817  0.1757
  150SAPE  H10X16632   0.765   6.323   7.482 -1.5119 -2.3402 -2.5414
  150SAPE  H10Y16633   0.651   6.206   7.548  0.6346  0.2027 -1.8021
  150SAPE  C31116634   0.650   6.385   7.664 -0.0011 -0.8552 -0.0029
  150SAPE  H11X16635   0.584   6.474   7.654  0.0874 -0.7285  0.5313
  150SAPE  H11Y16636   0.756   6.419   7.670  0.2044 -0.9135 -2.3724
  150SAPE  C31216637   0.624   6.288   7.777 -0.1781  0.0620 -0.0650
  150SAPE  H12X16638   0.706   6.214   7.785  0.8938  1.2958  0.6924
  150SAPE  H12Y16639   0.539   6.219   7.759  0.3768 -0.6923  0.1611
  150SAPE  C31316640   0.597   6.366   7.911  0.3614  0.2317 -0.4104
  150SAPE  H13X16641   0.524   6.448   7.896 -0.6748  0.0816  3.0827
  150SAPE  H13Y16642   0.692   6.413   7.944  1.1306 -1.1974 -0.5107
  150SAPE  C31416643   0.552   6.279   8.030  0.1830  0.3913  0.3671
  150SAPE  H14X16644   0.630   6.203   8.051  1.5957  1.5057 -0.6920
  150SAPE  H14Y16645   0.461   6.230   7.988 -0.5834  2.8778 -1.1136
  150SAPE  C31516646   0.525   6.365   8.156  0.3574  0.5184  0.3440
  150SAPE  H15X16647   0.453   6.446   8.134  0.0932  0.3796  0.6839
  150SAPE  H15Y16648   0.621   6.418   8.171  0.5876 -0.0515  0.9360
  150SAPE  C31616649   0.488   6.283   8.277  0.0858 -0.6728  0.2151
  150SAPE  H16X16650   0.389   6.235   8.260  0.0026 -0.0554 -1.1260
  150SAPE  H16Y16651   0.477   6.351   8.364  1.7370  1.1521 -0.9360
  150SAPE  C31716652   0.591   6.167   8.320 -0.0097 -0.3470  1.0775
  150SAPE  H17X16653   0.693   6.209   8.335  0.7616 -1.8717  0.3133
  150SAPE  H17Y16654   0.592   6.088   8.243 -1.8211 -0.7464  1.4154
  150SAPE  C31816655   0.542   6.101   8.451 -0.3369 -0.0748  0.6767
  150SAPE  H18X16656   0.459   6.029   8.431  0.9725 -1.7456  1.0130
  150SAPE  H18Y16657   0.508   6.171   8.530  0.7682 -1.2888  2.3037
  150SAPE  H18Z16658   0.621   6.043   8.504 -0.6283  0.9661  2.3162
  151SAPE     N16659   2.521   4.877   6.514 -0.2819 -0.4056 -0.0386
  151SAPE   HN116660   2.473   4.785   6.513  0.0663 -0.6845 -3.8546
  151SAPE   HN216661   2.452   4.954   6.509 -0.1988 -0.1470  1.9798
  151SAPE   HN316662   2.587   4.891   6.434 -1.3881  0.2077 -0.8710
  151SAPE   C1216663   2.606   4.905   6.636  0.8487 -0.2668  0.1714
  151SAPE  H12A16664   2.525   4.899   6.712  0.0819  0.8874 -0.5143
  151SAPE  H12B16665   2.640   5.006   6.603  1.6758 -0.5701  0.0648
  151SAPE   C1116666   2.708   4.792   6.655 -0.4299 -0.3329 -0.2320
  151SAPE  H11A16667   2.651   4.697   6.655  0.1970 -0.7264  0.4746
  151SAPE  H11B16668   2.758   4.796   6.755 -0.9090 -0.3823  0.0120
  151SAPE     P16669   2.909   4.886   6.514  0.0296 -0.1233  0.0078
  151SAPE   O1316670   3.000   4.822   6.417 -0.5037  0.1321  0.3048
  151SAPE   O1416671   2.843   5.011   6.472  0.0409 -1.0694  0.3922
  151SAPE   O1216672   2.798   4.785   6.542  0.4092  0.1715 -0.5659
  151SAPE   O1116673   2.980   4.904   6.656  0.1968  0.3261  0.2441
  151SAPE    C116674   3.035   4.793   6.718 -0.2010  0.5762  0.3330
  151SAPE    HA16675   2.951   4.729   6.751  2.3637 -2.3749  1.7130
  151SAPE    HB16676   3.095   4.734   6.645  0.1258  0.4480  0.6987
  151SAPE    C216677   3.120   4.817   6.846  0.3565 -0.4364  0.9106
  151SAPE    HS16678   3.135   4.724   6.906  0.9962 -1.1630 -0.3171
  151SAPE   O2116679   3.072   4.934   6.919 -0.1210  0.2524 -1.1297
  151SAPE   C2116680   2.954   4.912   6.980  0.2712  0.0586  0.2075
  151SAPE   O2216681   2.888   4.811   6.980  0.0564 -0.1868 -0.2282
  151SAPE   C2216682   2.911   5.037   7.054 -0.8568 -0.3838  0.2176
  151SAPE   H2R16683   2.962   5.122   7.003 -0.8637 -1.4183 -1.6155
  151SAPE   H2S16684   2.801   5.034   7.038 -0.3814 -1.6765 -3.8887
  151SAPE    C316685   3.265   4.860   6.792 -0.6516 -0.9148  1.0302
  151SAPE    HX16686   3.248   4.933   6.710  2.6419  1.4449  2.2653
  151SAPE    HY16687   3.305   4.774   6.733  0.3874  0.8163 -0.9263
  151SAPE   O3116688   3.352   4.925   6.886 -0.0005  0.1451 -0.8735
  151SAPE   C3116689   3.429   4.851   6.955 -0.1192  0.0063 -0.7010
  151SAPE   O3216690   3.448   4.732   6.936 -0.0449  0.5740  0.4647
  151SAPE   C3216691   3.504   4.932   7.064 -0.1718 -0.5760 -0.2584
  151SAPE   H2X16692   3.430   5.002   7.108 -0.1897 -0.7833  0.0424
  151SAPE   H2Y16693   3.589   4.986   7.015  0.5323 -0.7695  0.7145
  151SAPE   C2316694   2.947   5.034   7.206 -0.2126 -0.2689  0.0598
  151SAPE   H3R16695   2.921   4.935   7.250  0.6232 -0.6229 -0.2253
  151SAPE   H3S16696   2.892   5.117   7.255 -0.4742 -0.6868  0.4827
  151SAPE   C2416697   3.105   5.049   7.229 -0.6659 -0.5078  0.4144
  151SAPE   H4R16698   3.174   4.970   7.192 -0.2213  0.3447 -0.6322
  151SAPE   H4S16699   3.105   5.041   7.340  0.0424  0.7270  0.5247
  151SAPE   C2516700   3.166   5.190   7.196 -0.0929  0.2962 -0.4455
  151SAPE   H5R16701   3.159   5.211   7.088  0.2762  1.3433 -0.2745
  151SAPE   C2616702   3.243   5.268   7.275 -0.0509 -0.5809 -0.4969
  151SAPE   H6R16703   3.279   5.369   7.251  1.3511 -0.8116  0.5088
  151SAPE   C2716704   3.286   5.229   7.413 -0.0176 -0.8458 -0.1009
  151SAPE   H7R16705   3.384   5.274   7.438 -0.3288 -0.1333 -0.1404
  151SAPE   H7S16706   3.307   5.120   7.422  1.4192 -0.7670 -1.9393
  151SAPE   C2816707   3.184   5.269   7.523 -0.0327  0.2384  0.5715
  151SAPE   H8R16708   3.115   5.347   7.488 -0.6469 -1.3403 -1.9954
  151SAPE   C2916709   3.184   5.205   7.640  0.5945  0.0813 -0.3256
  151SAPE   H9R16710   3.109   5.249   7.707 -2.0153 -1.0222 -2.3545
  151SAPE  C21016711   3.272   5.094   7.693  0.4658  0.1949 -0.8221
  151SAPE  H10R16712   3.329   5.126   7.783 -1.2420  1.1253 -0.0157
  151SAPE  H10S16713   3.354   5.071   7.622  2.0850  0.2837  0.9318
  151SAPE  C21116714   3.211   4.956   7.724  0.3929 -0.7265 -0.1637
  151SAPE  H11R16715   3.207   4.889   7.637 -0.6586 -0.1828 -0.5443
  151SAPE  C21216716   3.172   4.913   7.849 -0.7761  1.0213  0.6599
  151SAPE  H12R16717   3.115   4.820   7.861 -0.6594  0.7642 -0.6499
  151SAPE  C21316718   3.168   4.983   7.982  0.4865 -0.4505  0.6119
  151SAPE  H13R16719   3.067   4.956   8.019  0.0247  0.5639  0.1313
  151SAPE  H13S16720   3.176   5.094   7.975  1.1128 -0.6124 -2.7304
  151SAPE  C21416721   3.280   4.927   8.069 -0.5550 -0.6432  0.2988
  151SAPE  H14R16722   3.367   4.895   8.010  0.1449  1.6784 -0.0093
  151SAPE  C21516723   3.287   4.924   8.203 -0.3115 -0.3896  0.5229
  151SAPE  H15R16724   3.380   4.881   8.245  0.5893 -0.5827 -1.5259
  151SAPE  C21616725   3.180   4.973   8.297  0.6972 -0.6359  0.5682
  151SAPE  H16R16726   3.198   4.915   8.390  2.6572 -1.8833 -0.5138
  151SAPE  H16S16727   3.082   4.955   8.249  1.4628 -1.0578 -0.9031
  151SAPE  C21716728   3.189   5.127   8.335  0.1373 -0.9036  1.6741
  151SAPE  H17R16729   3.091   5.159   8.376 -1.0111  1.6248 -2.4031
  151SAPE  H17S16730   3.201   5.190   8.244  0.2073  0.8245  2.8520
  151SAPE  C21816731   3.301   5.154   8.433 -0.2773  0.1244  0.5378
  151SAPE  H18R16732   3.394   5.096   8.412 -0.3206  0.3388 -0.2805
  151SAPE  H18S16733   3.270   5.131   8.537 -4.4259 -0.7000 -0.7096
  151SAPE  C21916734   3.343   5.299   8.435 -0.1019 -0.1312 -0.2759
  151SAPE  H19R16735   3.403   5.327   8.525 -1.2077 -0.2460  0.5181
  151SAPE  H19S16736   3.249   5.358   8.443  1.1957  1.7866  2.5860
  151SAPE  C22016737   3.420   5.333   8.309  0.1154 -1.2042  1.1388
  151SAPE  H20R16738   3.364   5.296   8.220  0.3629  1.4191 -0.2015
  151SAPE  H20S16739   3.419   5.442   8.290 -2.5021 -1.0936  1.5491
  151SAPE  H20T16740   3.521   5.287   8.305  0.2718 -0.8302  0.7583
  151SAPE   C3316741   3.560   4.847   7.176  0.3279 -0.1672  0.6319
  151SAPE   H3X16742   3.619   4.912   7.245 -0.3479 -0.0321  1.1079
  151SAPE   H3Y16743   3.630   4.773   7.132 -1.9741 -2.1367  0.0756
  151SAPE   C3416744   3.443   4.795   7.263  0.4880  0.0133  0.0459
  151SAPE   H4X16745   3.391   4.721   7.198  1.4075 -0.1206 -0.5538
  151SAPE   H4Y16746   3.367   4.867   7.299 -0.2612 -0.6389 -0.1943
  151SAPE   C3516747   3.497   4.730   7.395 -0.1928  0.2449  0.2253
  151SAPE   H5X16748   3.575   4.796   7.439  1.8576 -1.7674 -0.2357
  151SAPE   H5Y16749   3.544   4.633   7.369  0.9116  1.1033 -1.0632
  151SAPE   C3616750   3.375   4.732   7.491  0.7318 -0.4096 -0.5402
  151SAPE   H6X16751   3.290   4.692   7.432  0.2108  0.2118 -0.2140
  151SAPE   H6Y16752   3.349   4.838   7.511  2.1879 -0.3859  1.6020
  151SAPE   C3716753   3.389   4.655   7.619 -0.6279  0.9474  0.1116
  151SAPE   H7X16754   3.388   4.547   7.594  0.1562  0.9685 -0.0515
  151SAPE   H7Y16755   3.304   4.661   7.690 -0.1959 -2.5429  1.0752
  151SAPE   C3816756   3.513   4.695   7.698  0.3791 -0.3691  0.0533
  151SAPE   H8X16757   3.507   4.795   7.746 -1.8159 -0.7401  0.6432
  151SAPE   H8Y16758   3.591   4.705   7.620 -0.1801  1.8764 -0.2666
  151SAPE   C3916759   3.549   4.578   7.789  0.2716 -0.1487 -0.1340
  151SAPE   H9X16760   3.557   4.487   7.725 -2.8281 -1.4362  1.1072
  151SAPE   H9Y16761   3.468   4.560   7.863  0.5213 -1.1861 -0.0966
  151SAPE  C31016762   3.686   4.602   7.859 -0.7762 -0.4273 -0.2635
  151SAPE  H10X16763   3.745   4.675   7.800  1.0472 -0.7649  1.0557
  151SAPE  H10Y16764   3.751   4.512   7.850  0.1644 -0.1768  2.8272
  151SAPE  C31116765   3.678   4.654   8.003  0.0133  0.2452 -0.3923
  151SAPE  H11X16766   3.600   4.731   8.016  0.0260  0.0908  0.7427
  151SAPE  H11Y16767   3.775   4.703   8.022 -0.2853  0.7235 -0.0908
  151SAPE  C31216768   3.651   4.541   8.110 -0.2168  0.0017  0.4875
  151SAPE  H12X16769   3.744   4.514   8.163  0.4607  2.5724  0.7482
  151SAPE  H12Y16770   3.612   4.454   8.053 -0.7785  1.9711 -2.3260
  151SAPE  C31316771   3.531   4.566   8.214 -0.2658  0.0104 -0.7107
  151SAPE  H13X16772   3.432   4.583   8.168 -0.3931  1.3438  0.0030
  151SAPE  H13Y16773   3.563   4.641   8.290  0.9951 -1.4539  0.2956
  151SAPE  C31416774   3.507   4.440   8.297 -0.1879 -0.2128  1.2173
  151SAPE  H14X16775   3.601   4.409   8.347  0.6759 -0.1110 -0.2833
  151SAPE  H14Y16776   3.462   4.357   8.237 -1.2951 -1.1343  3.2077
  151SAPE  C31516777   3.414   4.471   8.419  0.2692  0.4431  0.4317
  151SAPE  H15X16778   3.314   4.484   8.373  0.3670 -2.5821 -0.8779
  151SAPE  H15Y16779   3.452   4.555   8.480  0.3333 -0.6919  2.0259
  151SAPE  C31616780   3.407   4.346   8.503  0.0422 -0.5448 -0.3822
  151SAPE  H16X16781   3.515   4.340   8.529  0.1950  1.8220 -0.2944
  151SAPE  H16Y16782   3.372   4.264   8.437 -1.0215 -0.5313  0.1407
  151SAPE  C31716783   3.302   4.362   8.614  0.5791 -0.0244 -0.8437
  151SAPE  H17X16784   3.275   4.262   8.654  0.3693  0.3997  0.1291
  151SAPE  H17Y16785   3.202   4.379   8.569  0.3582  1.3020  0.0755
  151SAPE  C31816786   3.313   4.463   8.733 -0.0891 -0.2860  0.3344
  151SAPE  H18X16787   3.254   4.436   8.824 -0.1600  1.3950  0.8193
  151SAPE  H18Y16788   3.281   4.561   8.691 -0.6612 -0.4777  0.3033
  151SAPE  H18Z16789   3.421   4.464   8.757  0.0960 -1.5354 -0.3570
  152SAPE     N16790   0.198   6.669   6.064 -0.2445 -0.3639 -0.3653
  152SAPE   HN116791   0.302   6.667   6.072 -0.0800  1.9670 -1.3345
  152SAPE   HN216792   0.186   6.771   6.049  2.4010 -0.2656 -2.4295
  152SAPE   HN316793   0.165   6.649   6.161  0.1469  0.2420 -0.1063
  152SAPE   C1216794   0.129   6.596   5.952  0.1624  0.2422  1.0600
  152SAPE  H12A16795   0.165   6.653   5.863  0.1737  0.9923  1.5369
  152SAPE  H12B16796   0.023   6.626   5.966 -0.1349 -0.9174  1.3868
  152SAPE   C1116797   0.153   6.448   5.955 -0.1583 -0.9513  0.7918
  152SAPE  H11A16798   0.260   6.432   5.930  0.5180  0.1125  2.8180
  152SAPE  H11B16799   0.091   6.395   5.879 -0.9922  0.0309  0.7588
  152SAPE     P16800   0.154   6.234   6.097  0.0912  0.9274  0.1885
  152SAPE   O1316801   0.021   6.169   6.105 -0.4922 -0.1966 -0.4270
  152SAPE   O1416802   0.263   6.186   6.008 -0.7870  0.4971  0.0787
  152SAPE   O1216803   0.121   6.384   6.077  0.0512 -0.0828  0.2845
  152SAPE   O1116804   0.209   6.248   6.251 -0.6763  0.1817 -0.3006
  152SAPE    C116805   0.272   6.369   6.295 -0.1351  0.1178  0.0752
  152SAPE    HA16806   0.352   6.397   6.223 -0.4821 -0.8126 -0.6925
  152SAPE    HB16807   0.196   6.449   6.295  0.8561  1.0936  0.3351
  152SAPE    C216808   0.333   6.360   6.439 -1.1244  0.3100  0.0365
  152SAPE    HS16809   0.420   6.292   6.445 -1.4204  0.0512  1.6050
  152SAPE   O2116810   0.233   6.312   6.526  0.8122  0.2875  0.4969
  152SAPE   C2116811   0.255   6.191   6.577  0.1892 -0.3929 -0.6259
  152SAPE   O2216812   0.348   6.114   6.558 -0.0426  0.0071  0.4352
  152SAPE   C2216813   0.130   6.157   6.664  0.4454  0.5465  0.1578
  152SAPE   H2R16814   0.103   6.240   6.732  0.7089  0.8369 -0.0899
  152SAPE   H2S16815   0.051   6.135   6.589  1.0392  2.5562 -1.1450
  152SAPE    C316816   0.376   6.505   6.490  0.1626  0.3759  0.0567
  152SAPE    HX16817   0.282   6.563   6.483  0.1336  0.6372  2.1587
  152SAPE    HY16818   0.448   6.543   6.414 -1.3878  1.4673 -0.9112
  152SAPE   O3116819   0.430   6.507   6.627  0.3968 -0.1199  0.5368
  152SAPE   C3116820   0.345   6.554   6.720 -0.0588 -0.4956 -0.2805
  152SAPE   O3216821   0.232   6.575   6.696 -0.2218  0.0469  0.1549
  152SAPE   C3216822   0.403   6.550   6.860 -0.2172  0.1914 -0.7038
  152SAPE   H2X16823   0.505   6.506   6.854  0.4821  1.5836  0.2881
  152SAPE   H2Y16824   0.339   6.478   6.916  1.3130 -1.9495 -1.5833
  152SAPE   C2316825   0.165   6.035   6.756  0.2384  0.1512 -0.0390
  152SAPE   H3R16826   0.223   5.960   6.698 -1.1636 -0.3343 -0.8643
  152SAPE   H3S16827   0.070   5.978   6.763 -0.8462  1.4695 -2.7172
  152SAPE   C2416828   0.224   6.057   6.905  0.7785 -0.6934 -0.1373
  152SAPE   H4R16829   0.129   6.089   6.953 -0.5793  0.2191 -3.1535
  152SAPE   H4S16830   0.303   6.136   6.907  0.5377 -0.4683  1.2208
  152SAPE   C2516831   0.272   5.943   6.977 -0.1611  0.1426 -0.4146
  152SAPE   H5R16832   0.353   5.892   6.923  1.9345  1.1617  1.6266
  152SAPE   C2616833   0.228   5.878   7.089  0.0354 -0.0942 -0.7037
  152SAPE   H6R16834   0.285   5.793   7.128 -0.0274 -0.0624 -0.5432
  152SAPE   C2716835   0.108   5.910   7.177  0.0166 -0.1154  0.2384
  152SAPE   H7R16836   0.031   5.936   7.101  1.0573  1.3694 -0.3494
  152SAPE   H7S16837   0.135   6.009   7.219 -2.1282  1.4271 -1.7223
  152SAPE   C2816838   0.033   5.824   7.271 -0.0716  0.4854 -0.5441
  152SAPE   H8R16839  -0.051   5.768   7.228 -0.7975 -0.0053  1.3818
  152SAPE   C2916840   0.052   5.819   7.407  0.3717 -0.2766  0.4764
  152SAPE   H9R16841  -0.020   5.754   7.458  0.3061 -2.4056 -2.1261
  152SAPE  C21016842   0.147   5.882   7.511 -0.0030  0.2473  0.3375
  152SAPE  H10R16843   0.191   5.976   7.473  2.2637 -1.3284 -1.2294
  152SAPE  H10S16844   0.235   5.815   7.524  1.7980  1.6380 -3.2435
  152SAPE  C21116845   0.069   5.909   7.643  0.3155  0.0275  0.3472
  152SAPE  H11R16846  -0.035   5.945   7.636  0.2540 -0.3290 -0.7995
  152SAPE  C21216847   0.128   5.890   7.767  0.3184  0.0366 -0.3139
  152SAPE  H12R16848   0.071   5.911   7.859  0.7931  1.9087 -0.4094
  152SAPE  C21316849   0.266   5.837   7.793  0.4230 -0.6051  0.1517
  152SAPE  H13R16850   0.339   5.850   7.710  1.2872  3.1690  1.2860
  152SAPE  H13S16851   0.253   5.735   7.834  0.9062 -0.8791 -0.3667
  152SAPE  C21416852   0.325   5.931   7.897 -0.1231  0.4427  0.5138
  152SAPE  H14R16853   0.301   6.038   7.900 -0.7019  0.3583 -0.8306
  152SAPE  C21516854   0.404   5.891   8.004  0.4442  0.3343  0.0366
  152SAPE  H15R16855   0.454   5.963   8.070  1.7824  0.4547 -1.0736
  152SAPE  C21616856   0.455   5.753   8.030  0.7173  0.0892  0.3250
  152SAPE  H16R16857   0.565   5.757   8.016  0.6190 -1.2196 -1.1157
  152SAPE  H16S16858   0.419   5.674   7.960  1.5892  0.3504 -0.4389
  152SAPE  C21716859   0.405   5.706   8.165 -0.6104 -0.3668 -0.6439
  152SAPE  H17R16860   0.421   5.791   8.235 -4.9904  1.1779 -1.1874
  152SAPE  H17S16861   0.480   5.635   8.207 -0.4810 -1.0548 -1.9908
  152SAPE  C21816862   0.265   5.658   8.169  0.3830  0.0995 -0.1183
  152SAPE  H18R16863   0.252   5.572   8.099 -0.7739 -0.4379  0.7246
  152SAPE  H18S16864   0.195   5.732   8.126 -0.5532 -1.2779 -1.0685
  152SAPE  C21916865   0.227   5.630   8.311  0.2474  0.0748 -0.6954
  152SAPE  H19R16866   0.240   5.718   8.378  0.2563 -1.7722  1.8768
  152SAPE  H19S16867   0.302   5.557   8.348  0.3276 -0.3356 -1.6316
  152SAPE  C22016868   0.081   5.577   8.319 -0.3080  0.3507 -0.4907
  152SAPE  H20R16869   0.066   5.553   8.426 -3.3832  0.1705 -0.8457
  152SAPE  H20S16870   0.060   5.491   8.252 -0.8867 -0.4109  0.6275
  152SAPE  H20T16871   0.001   5.649   8.290 -0.3517  1.2211  1.6486
  152SAPE   C3316872   0.385   6.677   6.937  0.0819  0.0247 -0.3786
  152SAPE   H3X16873   0.278   6.705   6.944 -0.1741 -1.2276  1.9109
  152SAPE   H3Y16874   0.435   6.758   6.881  0.5026  0.7501  1.0005
  152SAPE   C3416875   0.438   6.667   7.079 -0.1113  0.3890  0.3064
  152SAPE   H4X16876   0.438   6.563   7.119  3.0427  0.8839  1.9604
  152SAPE   H4Y16877   0.368   6.730   7.137 -0.7901  2.9544 -3.0232
  152SAPE   C3516878   0.580   6.726   7.082  0.1617 -0.2363 -0.3325
  152SAPE   H5X16879   0.579   6.837   7.080 -0.8023 -0.2127  0.4945
  152SAPE   H5Y16880   0.647   6.685   7.003 -0.5751 -0.6983 -0.7248
  152SAPE   C3616881   0.649   6.697   7.219  0.3553 -0.8097  0.6049
  152SAPE   H6X16882   0.755   6.729   7.209  0.5491 -1.6160 -0.1273
  152SAPE   H6Y16883   0.646   6.587   7.237  0.5241 -0.8528  0.3796
  152SAPE   C3716884   0.576   6.758   7.341  0.1202 -0.2369  0.3062
  152SAPE   H7X16885   0.471   6.725   7.349  0.5662 -1.8567 -0.0680
  152SAPE   H7Y16886   0.584   6.868   7.329 -0.4412 -0.2248  0.0339
  152SAPE   C3816887   0.646   6.740   7.482 -0.2013 -0.6735  0.4970
  152SAPE   H8X16888   0.732   6.809   7.498  1.6230 -2.7621  0.2111
  152SAPE   H8Y16889   0.684   6.636   7.485  1.0296 -0.3118 -1.2279
  152SAPE   C3916890   0.536   6.749   7.589  0.2375 -0.2413  0.7067
  152SAPE   H9X16891   0.470   6.660   7.587  1.8520 -1.4690  0.0055
  152SAPE   H9Y16892   0.473   6.835   7.559  0.8520 -0.5271 -1.6200
  152SAPE  C31016893   0.597   6.755   7.733  0.1174  0.4243 -0.5865
  152SAPE  H10X16894   0.673   6.835   7.744  0.2357  0.0972  1.1622
  152SAPE  H10Y16895   0.651   6.660   7.751  2.0183  1.8488  1.8864
  152SAPE  C31116896   0.497   6.762   7.851  0.4922 -0.2581  0.2122
  152SAPE  H11X16897   0.417   6.685   7.845  0.5321 -0.4071  1.3952
  152SAPE  H11Y16898   0.435   6.850   7.827 -0.3121 -1.5533 -3.0857
  152SAPE  C31216899   0.567   6.760   7.985 -0.0896 -0.3945  0.1707
  152SAPE  H12X16900   0.611   6.861   8.002  0.7317 -0.6716 -0.2504
  152SAPE  H12Y16901   0.644   6.683   8.005 -0.6003 -0.3506  2.6600
  152SAPE  C31316902   0.461   6.743   8.095  0.1877 -0.3044  0.1942
  152SAPE  H13X16903   0.400   6.652   8.081  1.0828 -1.3426  2.4549
  152SAPE  H13Y16904   0.388   6.827   8.098 -2.7118 -2.6690 -0.5297
  152SAPE  C31416905   0.538   6.733   8.223 -0.3482  0.1340 -0.1576
  152SAPE  H14X16906   0.590   6.829   8.242  0.7605 -0.1275 -1.7310
  152SAPE  H14Y16907   0.610   6.648   8.219 -1.1605 -0.6230  0.5651
  152SAPE  C31516908   0.427   6.714   8.332 -0.6381 -0.2703  0.0292
  152SAPE  H15X16909   0.377   6.618   8.307 -1.2136  0.1979 -0.6442
  152SAPE  H15Y16910   0.359   6.800   8.319  0.9931  1.0479 -0.1644
  152SAPE  C31616911   0.485   6.730   8.472 -0.1634  0.6193 -1.1581
  152SAPE  H16X16912   0.400   6.711   8.541  1.0366  0.8124  0.4185
  152SAPE  H16Y16913   0.515   6.837   8.486 -2.2214  1.1037 -0.0078
  152SAPE  C31716914   0.602   6.631   8.513 -0.6069  0.0202 -0.6086
  152SAPE  H17X16915   0.691   6.673   8.462  0.3515  2.2454  2.6057
  152SAPE  H17Y16916   0.577   6.529   8.477  0.8936 -0.4288 -0.4411
  152SAPE  C31816917   0.631   6.629   8.660  0.1002 -0.6002 -0.1154
  152SAPE  H18X16918   0.714   6.563   8.693 -0.4119  0.3750  3.6263
  152SAPE  H18Y16919   0.543   6.579   8.705 -0.6077  1.0035  0.3594
  152SAPE  H18Z16920   0.650   6.729   8.704  0.4293 -0.4257 -0.6448
  153SAPE     N16921   2.796   0.604   5.996  0.0911  0.1137  0.1964
  153SAPE   HN116922   2.804   0.534   5.920  1.4051  1.1201 -0.6436
  153SAPE   HN216923   2.714   0.668   5.996  0.6202  0.8617  2.1489
  153SAPE   HN316924   2.883   0.656   5.971 -0.6538  2.1213  1.4972
  153SAPE   C1216925   2.792   0.527   6.129  0.3871 -0.2743 -0.9443
  153SAPE  H12A16926   2.874   0.452   6.130 -0.4409 -1.1805 -0.6920
  153SAPE  H12B16927   2.690   0.485   6.139  0.5346 -0.9175 -1.9908
  153SAPE   C1116928   2.822   0.626   6.243 -0.0523  0.5983 -0.2070
  153SAPE  H11A16929   2.817   0.572   6.340 -1.6968  2.5298  0.8567
  153SAPE  H11B16930   2.737   0.698   6.246 -0.6332 -0.0968  0.5050
  153SAPE     P16931   3.078   0.667   6.297 -0.0973 -0.0144 -0.1784
  153SAPE   O1316932   3.118   0.527   6.278  0.3429  0.3258 -0.2334
  153SAPE   O1416933   3.176   0.768   6.250 -0.5711  0.4840 -0.4685
  153SAPE   O1216934   2.942   0.690   6.213  0.0526  0.0450 -0.0080
  153SAPE   O1116935   3.032   0.703   6.445 -0.0062  0.5456 -0.1014
  153SAPE    C116936   3.010   0.841   6.480  0.3210 -0.2849  0.0348
  153SAPE    HA16937   3.092   0.905   6.441 -0.7983  0.3590 -1.3449
  153SAPE    HB16938   2.929   0.877   6.413  0.0616 -0.9496 -0.0153
  153SAPE    C216939   2.987   0.862   6.632 -0.0163  0.0516 -0.3793
  153SAPE    HS16940   3.007   0.968   6.658  1.3618 -0.1397 -0.5526
  153SAPE   O2116941   3.067   0.779   6.717 -0.1252  0.5222  0.1489
  153SAPE   C2116942   3.192   0.789   6.688 -0.7883 -0.7283 -0.1231
  153SAPE   O2216943   3.253   0.875   6.620  0.3568 -0.1948 -0.1454
  153SAPE   C2216944   3.268   0.676   6.749 -0.4594  0.2119  0.1756
  153SAPE   H2R16945   3.361   0.724   6.785 -0.5784  0.2547  0.4339
  153SAPE   H2S16946   3.212   0.643   6.840 -1.2333 -0.0745 -0.3869
  153SAPE    C316947   2.840   0.832   6.678  0.4847 -0.5767  0.5427
  153SAPE    HX16948   2.815   0.725   6.661  2.9094 -0.7578 -3.1266
  153SAPE    HY16949   2.770   0.893   6.618  2.3655  0.2655 -0.9075
  153SAPE   O3116950   2.821   0.848   6.817 -1.0127  0.1428  0.0928
  153SAPE   C3116951   2.805   0.979   6.854  0.3537 -0.5506  0.3034
  153SAPE   O3216952   2.794   1.076   6.775 -0.2891 -0.4448 -0.2900
  153SAPE   C3216953   2.806   1.000   7.005 -0.6499  0.6311  0.3667
  153SAPE   H2X16954   2.910   0.979   7.037 -0.6358 -1.0990 -0.7114
  153SAPE   H2Y16955   2.741   0.920   7.046 -2.2027  2.2319  1.1745
  153SAPE   C2316956   3.287   0.574   6.633 -0.6333  0.3918  0.3347
  153SAPE   H3R16957   3.393   0.540   6.622 -0.2090  1.6791  0.2871
  153SAPE   H3S16958   3.254   0.616   6.536  1.2987  0.0057 -0.5394
  153SAPE   C2416959   3.196   0.452   6.672 -0.5661 -0.0965 -0.3347
  153SAPE   H4R16960   3.089   0.481   6.678  0.0941  2.2503  1.5359
  153SAPE   H4S16961   3.234   0.427   6.774  1.7184  1.1245 -0.8151
  153SAPE   C2516962   3.200   0.321   6.596 -0.5020 -0.5722 -0.5958
  153SAPE   H5R16963   3.195   0.330   6.487 -0.3887  0.9617 -0.4961
  153SAPE   C2616964   3.189   0.193   6.638  0.0345 -0.1613  0.2194
  153SAPE   H6R16965   3.196   0.112   6.565 -2.0933  0.2536 -0.5320
  153SAPE   C2716966   3.186   0.149   6.784 -0.1138  0.5265  0.7445
  153SAPE   H7R16967   3.246   0.222   6.842  1.8031  2.2669 -3.0239
  153SAPE   H7S16968   3.242   0.053   6.789 -1.4216 -0.3559 -0.7685
  153SAPE   C2816969   3.043   0.123   6.827  0.1000 -0.1251  0.6666
  153SAPE   H8R16970   2.979   0.212   6.823  0.3496  0.0193 -0.1618
  153SAPE   C2916971   2.989   0.011   6.885 -0.8108  0.4276  0.1716
  153SAPE   H9R16972   2.881   0.006   6.902 -0.7878 -1.3418 -0.0601
  153SAPE  C21016973   3.070  -0.117   6.916  0.0569 -0.2875  0.1669
  153SAPE  H10R16974   3.129  -0.130   6.823  2.5125  1.3381  1.3830
  153SAPE  H10S16975   3.011  -0.211   6.914  2.3828 -1.8180 -1.3941
  153SAPE  C21116976   3.169  -0.118   7.027 -0.0956 -1.4491 -0.7300
  153SAPE  H11R16977   3.275  -0.093   7.008  0.1549 -0.9304  1.1008
  153SAPE  C21216978   3.128  -0.109   7.155 -0.9485  0.2971  0.2847
  153SAPE  H12R16979   3.204  -0.108   7.235 -0.6583 -0.8089  0.0311
  153SAPE  C21316980   2.991  -0.110   7.211 -0.3942 -0.2637 -0.1837
  153SAPE  H13R16981   3.000  -0.171   7.303 -1.3520 -0.4040 -0.1695
  153SAPE  H13S16982   2.914  -0.154   7.145 -0.1063 -0.3577 -0.4609
  153SAPE  C21416983   2.949   0.032   7.235  0.0801 -0.0766  0.0334
  153SAPE  H14R16984   2.926   0.092   7.146 -0.2140 -0.6778 -0.2989
  153SAPE  C21516985   2.915   0.075   7.356  0.1815  0.0966 -0.6735
  153SAPE  H15R16986   2.862   0.171   7.363 -0.4941 -0.3489  0.5087
  153SAPE  C21616987   2.920  -0.006   7.483  0.5231 -0.3496  0.4960
  153SAPE  H16R16988   2.903  -0.113   7.458  1.4974 -0.5037  0.4462
  153SAPE  H16S16989   2.840   0.025   7.553 -1.1757 -2.9358 -0.1774
  153SAPE  C21716990   3.064   0.007   7.546  0.9704  1.0377  0.0398
  153SAPE  H17R16991   3.143  -0.031   7.478  0.6281  0.3093  0.0383
  153SAPE  H17S16992   3.059  -0.054   7.639  0.4022  0.0321 -0.6345
  153SAPE  C21816993   3.102   0.150   7.590 -0.0208 -0.4461 -0.0655
  153SAPE  H18R16994   3.058   0.170   7.690  0.8548 -2.3593  0.7594
  153SAPE  H18S16995   3.066   0.221   7.513  1.5632 -0.9887 -1.3720
  153SAPE  C21916996   3.247   0.167   7.613 -0.4243 -0.2202 -0.4493
  153SAPE  H19R16997   3.268   0.274   7.634 -0.8200 -0.5401  1.7194
  153SAPE  H19S16998   3.299   0.151   7.515 -1.7084  2.0618 -1.5830
  153SAPE  C22016999   3.330   0.079   7.716 -0.7804 -0.5471 -0.5639
  153SAPE  H20R17000   3.301   0.095   7.822  0.9537 -0.8907 -0.0036
  153SAPE  H20S17001   3.434   0.118   7.705 -1.2565  0.3739 -2.1410
  153SAPE  H20T17002   3.321  -0.030   7.696 -2.8602 -0.8734  1.7545
  153SAPE   C3317003   2.779   1.143   7.047  0.6371 -0.2287 -0.1181
  153SAPE   H3X17004   2.678   1.159   7.005  0.9275 -0.5897 -0.9774
  153SAPE   H3Y17005   2.853   1.212   7.001  0.4203  0.1996  0.1705
  153SAPE   C3417006   2.780   1.151   7.199 -0.2620  0.1424 -0.0864
  153SAPE   H4X17007   2.886   1.136   7.229  0.4469  2.1900 -1.3513
  153SAPE   H4Y17008   2.725   1.066   7.246  1.5570 -0.7854  0.4471
  153SAPE   C3517009   2.725   1.277   7.260  0.4142 -0.5995 -0.3374
  153SAPE   H5X17010   2.614   1.280   7.263  0.4346 -0.6142  1.4435
  153SAPE   H5Y17011   2.760   1.370   7.210  1.3221  0.9170  2.8158
  153SAPE   C3617012   2.767   1.307   7.409 -0.6246  0.0467  0.1805
  153SAPE   H6X17013   2.760   1.408   7.455  3.3746  0.4380  0.3466
  153SAPE   H6Y17014   2.877   1.292   7.414 -0.2573  1.6006 -1.8944
  153SAPE   C3717015   2.701   1.213   7.509  0.2869 -0.6302  0.5677
  153SAPE   H7X17016   2.696   1.115   7.457  0.1880 -0.4632  0.2642
  153SAPE   H7Y17017   2.597   1.243   7.535  1.3692  2.4766  1.8005
  153SAPE   C3817018   2.784   1.194   7.630  0.4164 -0.3463 -0.5719
  153SAPE   H8X17019   2.814   1.297   7.660  0.2164 -0.8666  1.5806
  153SAPE   H8Y17020   2.871   1.130   7.605 -0.3997 -1.0474 -1.7472
  153SAPE   C3917021   2.713   1.132   7.748  0.1026 -0.3795  0.4548
  153SAPE   H9X17022   2.681   1.027   7.728 -0.4368 -0.8143  3.1704
  153SAPE   H9Y17023   2.628   1.203   7.761  1.2236  1.0636  0.1327
  153SAPE  C31017024   2.797   1.142   7.877  0.3823 -0.1667 -0.4724
  153SAPE  H10X17025   2.726   1.126   7.961  0.8324 -2.5684 -0.4891
  153SAPE  H10Y17026   2.859   1.234   7.891 -2.6517  2.0160 -0.3049
  153SAPE  C31117027   2.906   1.028   7.885  0.0112  0.3407 -0.2463
  153SAPE  H11X17028   2.960   1.012   7.789  1.8470  0.0484  0.7753
  153SAPE  H11Y17029   2.856   0.931   7.904  1.1201 -0.3299 -0.6199
  153SAPE  C31217030   3.001   1.030   8.007 -0.1963 -0.6079  0.1595
  153SAPE  H12X17031   3.049   1.130   8.006  2.9472 -1.9248 -3.0434
  153SAPE  H12Y17032   3.092   0.966   7.996 -0.0634 -0.8066  2.0267
  153SAPE  C31317033   2.946   0.978   8.142 -0.2780  0.1695 -0.5335
  153SAPE  H13X17034   2.891   0.882   8.136  1.4345 -0.9153  0.5681
  153SAPE  H13Y17035   2.870   1.046   8.187 -0.1723 -1.6718  2.6812
  153SAPE  C31417036   3.062   0.960   8.244  0.2772 -0.2926  0.1930
  153SAPE  H14X17037   3.095   1.060   8.281 -1.0868  0.1006  0.3884
  153SAPE  H14Y17038   3.149   0.903   8.203  0.1713  0.2640 -0.8672
  153SAPE  C31517039   3.027   0.870   8.364 -0.2788 -0.0154  0.3042
  153SAPE  H15X17040   3.118   0.856   8.425  1.4868  1.7613 -1.7316
  153SAPE  H15Y17041   2.989   0.771   8.332  0.1531 -0.5002  1.2509
  153SAPE  C31617042   2.913   0.930   8.447  1.0270 -0.0201 -0.7188
  153SAPE  H16X17043   2.822   0.950   8.386  0.3825 -0.4400  0.0946
  153SAPE  H16Y17044   2.942   1.026   8.494  2.3182 -1.2438  1.0788
  153SAPE  C31717045   2.885   0.821   8.555  0.1592 -0.7600  0.1431
  153SAPE  H17X17046   2.977   0.786   8.606 -0.4158 -2.3244  0.1664
  153SAPE  H17Y17047   2.832   0.739   8.501 -1.1466 -0.0826  0.3626
  153SAPE  C31817048   2.790   0.869   8.661 -0.1930  1.3878 -0.6182
  153SAPE  H18X17049   2.784   0.796   8.745  1.5533  0.3715 -1.3274
  153SAPE  H18Y17050   2.687   0.876   8.621 -1.0070  0.2891  1.1383
  153SAPE  H18Z17051   2.821   0.967   8.703 -0.6652  2.5599 -2.8852
  154SAPE     N17052   1.442   1.525   6.415 -0.0354 -0.7390 -0.3767
  154SAPE   HN117053   1.414   1.496   6.319 -0.6397  0.3593 -0.5452
  154SAPE   HN217054   1.375   1.597   6.447 -0.1856 -0.4486 -1.3279
  154SAPE   HN317055   1.536   1.570   6.411 -0.4787  0.3586  1.0459
  154SAPE   C1217056   1.455   1.407   6.509  0.0874 -0.0187 -0.2331
  154SAPE  H12A17057   1.358   1.353   6.509  1.5844 -2.8920 -0.3442
  154SAPE  H12B17058   1.472   1.445   6.611  1.5363 -1.6981  0.1898
  154SAPE   C1117059   1.562   1.310   6.455  0.2117 -0.1205 -0.3124
  154SAPE  H11A17060   1.586   1.229   6.527 -0.4751 -2.5910 -2.6813
  154SAPE  H11B17061   1.663   1.355   6.447 -0.6439  1.6645 -2.0126
  154SAPE     P17062   1.501   1.136   6.257  0.0483  0.2353 -0.3346
  154SAPE   O1317063   1.408   1.164   6.144 -0.4956  0.4559 -0.0731
  154SAPE   O1417064   1.624   1.062   6.217 -0.6204  0.1640  0.2624
  154SAPE   O1217065   1.531   1.272   6.326 -0.3662  0.7911  1.1919
  154SAPE   O1117066   1.418   1.049   6.361 -0.2598 -0.9818  0.4192
  154SAPE    C117067   1.443   0.909   6.374  0.1794  0.1096  0.4472
  154SAPE    HA17068   1.395   0.856   6.289 -1.3966  0.4490  1.0959
  154SAPE    HB17069   1.552   0.884   6.370  0.0615 -0.3338 -3.1212
  154SAPE    C217070   1.397   0.846   6.515 -0.2326 -0.2152  0.9076
  154SAPE    HS17071   1.287   0.826   6.516  0.1633 -2.9955 -0.5302
  154SAPE   O2117072   1.446   0.920   6.626 -0.5048  0.2298  0.0503
  154SAPE   C2117073   1.384   1.034   6.651 -0.3065 -0.2674  0.5303
  154SAPE   O2217074   1.276   1.068   6.597 -0.5424  0.0177 -0.3638
  154SAPE   C2217075   1.451   1.105   6.773 -0.6279  0.0829  0.8302
  154SAPE   H2R17076   1.509   1.032   6.832 -1.2334 -1.4005 -0.3458
  154SAPE   H2S17077   1.528   1.169   6.724  0.8601 -0.7498  2.0092
  154SAPE    C317078   1.444   0.696   6.513  0.6431 -0.4127 -0.2282
  154SAPE    HX17079   1.554   0.706   6.505  0.4447  1.6215 -0.9095
  154SAPE    HY17080   1.402   0.670   6.413 -1.2666  0.8390  0.1866
  154SAPE   O3117081   1.404   0.626   6.630 -0.1226  0.6889  0.6048
  154SAPE   C3117082   1.367   0.502   6.598  0.1817 -0.2538 -0.6509
  154SAPE   O3217083   1.414   0.443   6.506 -0.6059  0.4351  0.3073
  154SAPE   C3217084   1.282   0.446   6.710  0.5956  0.0794 -0.3429
  154SAPE   H2X17085   1.228   0.353   6.685  2.1192 -0.3958 -2.1110
  154SAPE   H2Y17086   1.215   0.523   6.755 -0.1950 -0.7282 -0.1101
  154SAPE   C2317087   1.378   1.194   6.866  0.2841  0.2602 -0.0030
  154SAPE   H3R17088   1.284   1.218   6.811  0.6620  0.2252 -0.6746
  154SAPE   H3S17089   1.443   1.282   6.887 -0.6411  1.1020 -0.6107
  154SAPE   C2417090   1.348   1.135   7.007  0.4621 -0.6172 -0.1399
  154SAPE   H4R17091   1.284   1.045   6.996 -0.6635  0.4115 -3.5992
  154SAPE   H4S17092   1.279   1.215   7.041  0.3271 -1.0006  0.4893
  154SAPE   C2517093   1.471   1.114   7.094  0.0950 -0.0503 -0.9338
  154SAPE   H5R17094   1.553   1.046   7.067 -0.1957 -0.3662 -1.0305
  154SAPE   C2617095   1.506   1.205   7.191  0.3007 -0.5719 -0.9970
  154SAPE   H6R17096   1.598   1.190   7.250  0.2569  2.0001 -0.1714
  154SAPE   C2717097   1.440   1.333   7.231  0.8165  0.2349 -0.8188
  154SAPE   H7R17098   1.332   1.324   7.257  1.2541 -1.6758  0.6146
  154SAPE   H7S17099   1.434   1.399   7.142  1.3399  0.7535 -0.4737
  154SAPE   C2817100   1.514   1.411   7.335 -0.1638  0.4579 -0.3652
  154SAPE   H8R17101   1.563   1.504   7.302  0.9589  0.6955  1.7793
  154SAPE   C2917102   1.526   1.384   7.467 -0.5212  0.3772  0.1539
  154SAPE   H9R17103   1.597   1.449   7.520 -1.9470  1.3413  0.9210
  154SAPE  C21017104   1.476   1.257   7.531  0.1655  0.9510 -0.2434
  154SAPE  H10R17105   1.422   1.192   7.459 -1.7098  0.7307  1.2928
  154SAPE  H10S17106   1.399   1.292   7.603  1.2068  1.6047  0.5903
  154SAPE  C21117107   1.582   1.178   7.611  0.1532 -0.1953 -1.0111
  154SAPE  H11R17108   1.664   1.238   7.653  0.1844 -0.2241 -1.0308
  154SAPE  C21217109   1.571   1.048   7.649  0.4625 -0.2448  0.0036
  154SAPE  H12R17110   1.647   1.006   7.716  0.3351 -0.7845 -0.1860
  154SAPE  C21317111   1.460   0.951   7.612 -0.0051 -0.3538  1.2145
  154SAPE  H13R17112   1.404   0.978   7.520  0.1516 -1.4139  0.7924
  154SAPE  H13S17113   1.375   0.962   7.684 -1.6903  0.1928 -0.7797
  154SAPE  C21417114   1.510   0.806   7.610 -0.5567  0.0557  0.3906
  154SAPE  H14R17115   1.553   0.774   7.514  2.0709 -1.0624  1.8282
  154SAPE  C21517116   1.510   0.729   7.715 -0.0788 -0.3165  0.9763
  154SAPE  H15R17117   1.546   0.625   7.705  1.3657  0.3250 -1.3024
  154SAPE  C21617118   1.468   0.744   7.857  0.2621 -0.5024 -0.0661
  154SAPE  H16R17119   1.402   0.663   7.894 -1.5409  0.0181 -1.9286
  154SAPE  H16S17120   1.416   0.842   7.871  0.5879 -0.4938  1.2030
  154SAPE  C21717121   1.593   0.749   7.943  0.0344 -0.0349 -0.5949
  154SAPE  H17R17122   1.662   0.829   7.908  0.5037  0.2930  1.0098
  154SAPE  H17S17123   1.632   0.646   7.930 -0.8286 -0.4497 -0.0145
  154SAPE  C21817124   1.564   0.756   8.093  0.5688 -0.2446 -0.4195
  154SAPE  H18R17125   1.656   0.759   8.155 -0.7644  0.3667  1.6528
  154SAPE  H18S17126   1.487   0.689   8.137 -0.9577  2.4527  1.3203
  154SAPE  C21917127   1.487   0.892   8.126 -1.0526 -0.2176  1.1084
  154SAPE  H19R17128   1.393   0.896   8.066 -1.3072  2.1918  1.6025
  154SAPE  H19S17129   1.554   0.978   8.110 -0.9053 -0.4706  0.2731
  154SAPE  C22017130   1.439   0.907   8.268  0.3354  0.0278  0.2934
  154SAPE  H20R17131   1.398   1.010   8.274  0.2885 -0.0568  1.5709
  154SAPE  H20S17132   1.517   0.893   8.345 -0.1992  0.6020  0.9472
  154SAPE  H20T17133   1.351   0.840   8.278 -0.5174  0.8150 -1.4126
  154SAPE   C3317134   1.377   0.399   6.832  0.6052 -0.2328 -0.0223
  154SAPE   H3X17135   1.473   0.454   6.835  0.9711 -0.8968  1.5057
  154SAPE   H3Y17136   1.407   0.293   6.820  0.9088 -0.2986  1.1982
  154SAPE   C3417137   1.318   0.430   6.971 -0.0303 -0.1734  0.3999
  154SAPE   H4X17138   1.214   0.395   6.983 -0.4797  1.3164  1.0952
  154SAPE   H4Y17139   1.313   0.539   6.992  0.8219 -0.1012  0.2628
  154SAPE   C3517140   1.394   0.372   7.088  0.2497  0.1901  0.0696
  154SAPE   H5X17141   1.502   0.401   7.087  0.3952 -0.3057  0.6267
  154SAPE   H5Y17142   1.401   0.261   7.092  0.0898  0.2017  1.0773
  154SAPE   C3617143   1.352   0.430   7.223 -0.4868 -0.0848 -1.1629
  154SAPE   H6X17144   1.242   0.413   7.219 -0.8791  2.2581 -2.0285
  154SAPE   H6Y17145   1.368   0.540   7.224  0.1796 -0.1771 -1.4873
  154SAPE   C3717146   1.413   0.369   7.344 -0.1905 -0.1331  0.6551
  154SAPE   H7X17147   1.523   0.384   7.348 -0.1453  0.1398 -1.0549
  154SAPE   H7Y17148   1.388   0.261   7.345  2.4066 -0.8009  0.2605
  154SAPE   C3817149   1.364   0.419   7.477  0.5826  0.4532 -0.6767
  154SAPE   H8X17150   1.254   0.437   7.474  0.8030  1.9091 -0.8939
  154SAPE   H8Y17151   1.424   0.510   7.498  1.8607 -0.9503  2.2510
  154SAPE   C3917152   1.401   0.318   7.588 -0.0507 -0.1425 -0.3732
  154SAPE   H9X17153   1.507   0.286   7.583 -0.1661 -0.3912 -1.8112
  154SAPE   H9Y17154   1.343   0.226   7.566 -1.1163 -0.1597  2.1678
  154SAPE  C31017155   1.375   0.372   7.731  0.0674 -0.4743  0.4113
  154SAPE  H10X17156   1.280   0.431   7.734 -0.4980 -1.3244 -0.2170
  154SAPE  H10Y17157   1.458   0.441   7.758 -0.8850  0.6763  0.4970
  154SAPE  C31117158   1.368   0.252   7.825  0.4974  0.3766 -0.8293
  154SAPE  H11X17159   1.469   0.206   7.831 -1.0478 -3.2084  0.2600
  154SAPE  H11Y17160   1.290   0.184   7.786 -0.5973  0.4283  1.1322
  154SAPE  C31217161   1.316   0.309   7.958  0.3932 -0.2959  0.1836
  154SAPE  H12X17162   1.215   0.350   7.938 -0.1800 -0.6727  2.0989
  154SAPE  H12Y17163   1.382   0.388   7.998  1.4857 -1.7007  1.2790
  154SAPE  C31317164   1.307   0.188   8.049  0.5835  0.0438 -0.3243
  154SAPE  H13X17165   1.407   0.154   8.084 -1.0477 -4.1368  0.8499
  154SAPE  H13Y17166   1.258   0.104   7.996  0.8244 -1.8851  2.3102
  154SAPE  C31417167   1.228   0.204   8.177  0.0676  0.3331 -0.0563
  154SAPE  H14X17168   1.133   0.247   8.140  0.5266  1.7636  0.3499
  154SAPE  H14Y17169   1.275   0.283   8.240  1.7002 -1.7485  1.5007
  154SAPE  C31517170   1.207   0.075   8.254 -0.2439 -0.1285 -0.4696
  154SAPE  H15X17171   1.300   0.016   8.269 -1.6835 -2.9487 -1.8229
  154SAPE  H15Y17172   1.144  -0.002   8.205  0.7136 -2.8388  2.2376
  154SAPE  C31617173   1.139   0.114   8.388  0.2331  0.1466  0.1371
  154SAPE  H16X17174   1.198   0.195   8.438  1.4702 -0.6777  0.0681
  154SAPE  H16Y17175   1.151   0.037   8.467 -1.0128  0.5823  0.7686
  154SAPE  C31717176   0.990   0.153   8.368 -0.6644 -0.0029 -0.7723
  154SAPE  H17X17177   0.934   0.086   8.300 -0.5903  0.5870 -1.4155
  154SAPE  H17Y17178   0.989   0.252   8.319 -0.7727  1.3839  1.8362
  154SAPE  C31817179   0.907   0.172   8.499  0.2705 -0.7420 -0.5194
  154SAPE  H18X17180   0.810   0.210   8.460 -0.3914 -0.8632  0.9441
  154SAPE  H18Y17181   0.959   0.244   8.565  0.9290 -1.3308 -0.3882
  154SAPE  H18Z17182   0.892   0.081   8.561 -0.0515  0.6174  1.4990
  155SAPE     N17183   0.915   2.035   6.628 -0.2435 -0.0310  0.1617
  155SAPE   HN117184   1.012   2.062   6.656  0.3689 -1.3584 -0.5929
  155SAPE   HN217185   0.908   2.022   6.525 -4.2143 -1.0577  0.3765
  155SAPE   HN317186   0.857   2.117   6.655 -1.1451 -0.3541 -0.7181
  155SAPE   C1217187   0.879   1.907   6.696  0.3020  0.6573  0.0670
  155SAPE  H12A17188   0.770   1.910   6.716  0.4325 -0.7380  1.1321
  155SAPE  H12B17189   0.931   1.892   6.793  1.1791 -1.6016 -0.6825
  155SAPE   C1117190   0.928   1.789   6.613 -0.4335  0.0034 -0.8716
  155SAPE  H11A17191   0.909   1.701   6.679 -2.6568  1.5544  0.6922
  155SAPE  H11B17192   1.035   1.798   6.585 -0.6164 -0.4527 -1.7529
  155SAPE     P17193   0.734   1.687   6.466  0.2442 -0.4934  0.3451
  155SAPE   O1317194   0.628   1.772   6.524  0.6864 -0.0117  0.1700
  155SAPE   O1417195   0.725   1.665   6.318 -0.5908  0.1509 -0.0824
  155SAPE   O1217196   0.865   1.765   6.487 -0.7704  0.2642 -0.9543
  155SAPE   O1117197   0.753   1.559   6.553  0.1090 -0.1202  0.0510
  155SAPE    C117198   0.727   1.433   6.491  0.2073  0.3749  0.1406
  155SAPE    HA17199   0.636   1.433   6.428  0.3068 -1.0482 -0.0536
  155SAPE    HB17200   0.802   1.404   6.414 -0.6464 -0.0379 -0.5582
  155SAPE    C217201   0.716   1.320   6.602  0.1583 -0.2060  0.0445
  155SAPE    HS17202   0.698   1.232   6.536 -0.8931  0.6227 -0.8324
  155SAPE   O2117203   0.606   1.336   6.697 -0.1125  0.3546 -0.4629
  155SAPE   C2117204   0.486   1.352   6.647  0.0354 -0.3800 -0.1297
  155SAPE   O2217205   0.444   1.322   6.537 -0.4861  0.4116 -0.0821
  155SAPE   C2217206   0.397   1.427   6.747  0.3710  0.1999  0.4329
  155SAPE   H2R17207   0.431   1.404   6.850 -0.9901 -0.0986  0.8478
  155SAPE   H2S17208   0.428   1.530   6.724  2.9989 -0.4148  0.9629
  155SAPE    C317209   0.862   1.300   6.665 -0.0872  0.5713 -0.2556
  155SAPE    HX17210   0.882   1.389   6.727 -0.1555 -0.6546  1.5970
  155SAPE    HY17211   0.941   1.301   6.587  0.5720 -0.1124  0.3892
  155SAPE   O3117212   0.872   1.182   6.749  1.0082 -0.3424  0.1852
  155SAPE   C3117213   0.901   1.071   6.684  0.2101 -0.2046  0.1644
  155SAPE   O3217214   0.941   1.062   6.567 -0.0881 -0.4091 -0.1822
  155SAPE   C3217215   0.909   0.945   6.784  0.6585 -0.6917 -0.0531
  155SAPE   H2X17216   0.804   0.911   6.776  0.2593  0.0560  1.5125
  155SAPE   H2Y17217   0.919   0.983   6.888 -3.0158  2.5915 -0.6462
  155SAPE   C2317218   0.248   1.413   6.730  0.1328  0.8888 -0.2859
  155SAPE   H3R17219   0.221   1.337   6.654 -1.6972  1.9873 -0.7800
  155SAPE   H3S17220   0.208   1.513   6.707  0.6675  1.6856  1.9697
  155SAPE   C2417221   0.175   1.370   6.861  0.5492 -0.5422  0.3067
  155SAPE   H4R17222   0.201   1.265   6.885 -1.6850 -1.3025 -0.3683
  155SAPE   H4S17223   0.066   1.368   6.841  0.3474  0.2178  1.2832
  155SAPE   C2517224   0.216   1.455   6.979 -0.2212 -0.1331  0.4947
  155SAPE   H5R17225   0.188   1.562   6.981  0.0522 -0.0633  2.3786
  155SAPE   C2617226   0.285   1.415   7.088 -0.5312 -0.2299 -0.2384
  155SAPE   H6R17227   0.307   1.488   7.166 -0.7476 -0.8366  0.4013
  155SAPE   C2717228   0.340   1.279   7.121 -0.8765 -0.9977 -0.6345
  155SAPE   H7R17229   0.434   1.297   7.177  0.6054 -2.8831 -2.3354
  155SAPE   H7S17230   0.380   1.243   7.023  2.3873  1.3898 -0.3399
  155SAPE   C2817231   0.246   1.182   7.185  0.2642 -0.5979 -0.1750
  155SAPE   H8R17232   0.146   1.184   7.139 -0.2540 -3.7337  0.5937
  155SAPE   C2917233   0.267   1.116   7.303 -0.7698  0.4548  0.9253
  155SAPE   H9R17234   0.191   1.043   7.336 -2.4352  1.4293 -0.5989
  155SAPE  C21017235   0.396   1.115   7.388  0.3530  0.5817  0.1745
  155SAPE  H10R17236   0.468   1.193   7.355  2.2636 -1.0297  0.3298
  155SAPE  H10S17237   0.451   1.024   7.357 -2.4095 -2.3136  2.9418
  155SAPE  C21117238   0.375   1.109   7.537  0.1882 -0.0258  0.1223
  155SAPE  H11R17239   0.378   1.004   7.571 -0.3452 -0.9909 -2.6081
  155SAPE  C21217240   0.354   1.220   7.617 -0.0090  0.3609  0.0290
  155SAPE  H12R17241   0.325   1.210   7.723  0.5673  0.5812  0.2098
  155SAPE  C21317242   0.359   1.363   7.574  0.1523  0.2988 -0.1938
  155SAPE  H13R17243   0.277   1.426   7.616 -0.0505 -0.7193  1.0024
  155SAPE  H13S17244   0.342   1.361   7.465  3.5006  0.1346 -0.8065
  155SAPE  C21417245   0.494   1.425   7.585  0.1211  0.1853 -0.1897
  155SAPE  H14R17246   0.578   1.356   7.571  0.1036  0.1826 -0.2859
  155SAPE  C21517247   0.516   1.559   7.622  0.7814  0.2028 -0.1777
  155SAPE  H15R17248   0.618   1.599   7.619 -0.4590  3.6681 -2.4741
  155SAPE  C21617249   0.417   1.671   7.654 -0.1612  0.3784  0.4949
  155SAPE  H16R17250   0.446   1.721   7.749 -0.4811 -1.5730  1.6792
  155SAPE  H16S17251   0.322   1.620   7.682 -0.7473  0.0407 -1.8721
  155SAPE  C21717252   0.376   1.765   7.544  0.2639 -1.0572  0.0153
  155SAPE  H17R17253   0.464   1.818   7.502  0.5748 -0.5381  1.2783
  155SAPE  H17S17254   0.301   1.841   7.574  0.5011 -1.6416  2.2463
  155SAPE  C21817255   0.315   1.683   7.430  0.0342  0.2744  1.2182
  155SAPE  H18R17256   0.234   1.617   7.467 -1.0413  1.3700  0.8821
  155SAPE  H18S17257   0.386   1.605   7.393  0.4309  1.2893 -0.2675
  155SAPE  C21917258   0.257   1.753   7.307  0.3013  0.3722 -0.0467
  155SAPE  H19R17259   0.172   1.818   7.336 -0.5241 -0.7960  0.2218
  155SAPE  H19S17260   0.206   1.674   7.248 -0.7853  1.3118 -0.3937
  155SAPE  C22017261   0.346   1.817   7.210  0.0807 -0.6050 -0.0159
  155SAPE  H20R17262   0.385   1.915   7.246  0.1646 -0.7666  0.3373
  155SAPE  H20S17263   0.299   1.840   7.112 -0.2741  2.2545  0.7328
  155SAPE  H20T17264   0.434   1.749   7.205 -0.2565 -1.1209  0.9333
  155SAPE   C3317265   0.996   0.825   6.756 -0.1701 -0.3182 -0.3097
  155SAPE   H3X17266   1.101   0.853   6.732  0.5378 -2.1096  0.5262
  155SAPE   H3Y17267   0.955   0.777   6.665  1.9220 -0.1589 -1.4032
  155SAPE   C3417268   0.994   0.718   6.863  0.7123 -0.9254 -0.8361
  155SAPE   H4X17269   1.032   0.622   6.822 -2.8977 -2.3546 -1.2344
  155SAPE   H4Y17270   0.886   0.694   6.877  0.7462 -0.7867 -0.3233
  155SAPE   C3517271   1.074   0.748   6.990  0.2469 -0.7478  0.5675
  155SAPE   H5X17272   1.062   0.856   7.010  0.3864 -0.4910 -0.6418
  155SAPE   H5Y17273   1.182   0.723   6.980  0.0224 -1.0205 -1.9642
  155SAPE   C3617274   1.026   0.664   7.114  0.1718  0.4957  0.1470
  155SAPE   H6X17275   1.032   0.554   7.102 -1.0976  0.5017 -0.8358
  155SAPE   H6Y17276   0.915   0.667   7.123  0.2279 -0.1933  1.2872
  155SAPE   C3717277   1.088   0.715   7.243  0.3569  0.9242  0.0196
  155SAPE   H7X17278   1.072   0.825   7.248 -1.3277  0.6751  0.4230
  155SAPE   H7Y17279   1.199   0.709   7.236  0.3993  2.1821 -0.6667
  155SAPE   C3817280   1.034   0.641   7.366  0.4456  0.2904  0.4499
  155SAPE   H8X17281   1.074   0.538   7.375 -1.9072 -0.6087  1.4261
  155SAPE   H8Y17282   0.927   0.636   7.338  1.1057  0.8179 -2.4770
  155SAPE   C3917283   1.071   0.709   7.501  0.2315  0.2115 -0.1284
  155SAPE   H9X17284   1.033   0.811   7.520 -0.4209 -0.1275  0.4142
  155SAPE   H9Y17285   1.182   0.713   7.498  0.2928 -0.3815  0.9081
  155SAPE  C31017286   1.023   0.632   7.625  0.4340  0.2428 -0.7581
  155SAPE  H10X17287   1.073   0.533   7.617  0.8902  0.4535 -0.5325
  155SAPE  H10Y17288   0.913   0.639   7.618  0.4477  1.2117 -0.2177
  155SAPE  C31117289   1.069   0.685   7.762  0.6631 -0.5094  0.2203
  155SAPE  H11X17290   1.015   0.772   7.804  2.6696  0.8968  0.0169
  155SAPE  H11Y17291   1.179   0.699   7.758  0.6747 -0.7927 -1.1390
  155SAPE  C31217292   1.032   0.576   7.870  0.2556 -0.4664 -0.5179
  155SAPE  H12X17293   1.086   0.485   7.838  3.1694  1.1771 -0.5863
  155SAPE  H12Y17294   0.922   0.560   7.861  0.0587  0.3998  0.1711
  155SAPE  C31317295   1.073   0.619   8.017 -0.2780 -0.3585  0.0208
  155SAPE  H13X17296   1.170   0.672   8.012 -0.2813 -0.4610 -1.4801
  155SAPE  H13Y17297   1.075   0.530   8.084 -2.2616  0.0456  0.6805
  155SAPE  C31417298   0.980   0.733   8.068 -0.0383  0.3118 -0.3344
  155SAPE  H14X17299   0.872   0.707   8.057 -0.1676  0.6076  0.1840
  155SAPE  H14Y17300   1.003   0.815   7.998 -0.7441  1.0259  0.2529
  155SAPE  C31517301   1.017   0.763   8.218 -0.2141 -0.2062  0.3093
  155SAPE  H15X17302   0.970   0.860   8.248 -0.7886 -0.3008 -0.2567
  155SAPE  H15Y17303   1.126   0.783   8.227  0.1983 -1.2607 -1.7486
  155SAPE  C31617304   0.981   0.656   8.320 -0.2030 -0.4736  0.2005
  155SAPE  H16X17305   1.035   0.561   8.300 -0.3462 -0.3607 -0.7574
  155SAPE  H16Y17306   0.873   0.634   8.311 -0.6312  2.0436 -1.8349
  155SAPE  C31717307   1.002   0.687   8.472  0.0951  0.4348 -0.5947
  155SAPE  H17X17308   0.944   0.780   8.491  0.0676 -0.0017  1.6977
  155SAPE  H17Y17309   1.109   0.714   8.478  0.0734  0.4145 -0.1008
  155SAPE  C31817310   0.973   0.575   8.567  0.1028 -0.8180 -0.2169
  155SAPE  H18X17311   0.878   0.520   8.548  0.4422 -1.2690 -0.6441
  155SAPE  H18Y17312   0.972   0.612   8.672  0.0168  1.8272 -1.0914
  155SAPE  H18Z17313   1.051   0.498   8.552  1.0665  0.0213  0.3933
  156SAPE     N17314   5.876   6.026   6.221  0.2190  0.5527  0.7807
  156SAPE   HN117315   5.778   6.006   6.190 -0.1846 -0.1719  2.3957
  156SAPE   HN217316   5.915   6.107   6.169  2.4034 -1.5078 -1.0459
  156SAPE   HN317317   5.940   5.948   6.197  1.0992  1.4812  0.0466
  156SAPE   C1217318   5.885   6.045   6.369  0.0078 -0.3277 -0.1028
  156SAPE  H12A17319   5.888   5.941   6.407  0.6792 -0.6209 -0.9286
  156SAPE  H12B17320   5.796   6.105   6.399 -0.8887 -1.9057  0.5353
  156SAPE   C1117321   6.014   6.117   6.402 -0.0029 -0.6463 -0.7126
  156SAPE  H11A17322   6.100   6.071   6.349 -0.2020 -1.1543 -0.6035
  156SAPE  H11B17323   6.027   6.114   6.512 -2.5405 -1.2202 -0.3665
  156SAPE     P17324   6.133   6.342   6.352  0.5113 -0.1824 -0.2934
  156SAPE   O1317325   6.206   6.287   6.234  0.8654 -0.0655 -0.1736
  156SAPE   O1417326   6.099   6.485   6.359 -0.3676 -0.4303  0.0038
  156SAPE   O1217327   5.994   6.257   6.370 -0.1983 -0.2195  0.1999
  156SAPE   O1117328   6.211   6.300   6.484  0.1584 -1.0312  0.0804
  156SAPE    C117329   6.351   6.311   6.501  0.3351 -0.1565 -0.2121
  156SAPE    HA17330   6.410   6.264   6.420 -0.8897 -2.2340  0.0136
  156SAPE    HB17331   6.380   6.418   6.514  1.3813 -0.2738 -1.3890
  156SAPE    C217332   6.400   6.229   6.632 -0.2115  0.6808  0.1764
  156SAPE    HS17333   6.373   6.122   6.616  0.8789  0.3180  0.6690
  156SAPE   O2117334   6.336   6.279   6.748 -0.2972 -0.2422 -0.2372
  156SAPE   C2117335   6.282   6.195   6.838 -0.0377  0.1516 -0.5781
  156SAPE   O2217336   6.285   6.073   6.827  0.4475 -0.4873 -0.2534
  156SAPE   C2217337   6.213   6.279   6.946 -0.2197  0.5838  1.1771
  156SAPE   H2R17338   6.249   6.383   6.933  2.2247 -0.2996  0.1851
  156SAPE   H2S17339   6.106   6.281   6.919 -0.7393  1.6636  3.1338
  156SAPE    C317340   6.553   6.235   6.656 -0.3967 -0.3800 -0.4309
  156SAPE    HX17341   6.588   6.340   6.647  2.8511 -1.3999 -0.9565
  156SAPE    HY17342   6.600   6.183   6.570  1.3422 -0.2815  0.4124
  156SAPE   O3117343   6.593   6.180   6.790 -0.1847  0.5196  0.3172
  156SAPE   C3117344   6.603   6.045   6.800 -0.4505 -0.0439  0.4598
  156SAPE   O3217345   6.579   5.963   6.711  0.2974  0.3094 -0.2086
  156SAPE   C3217346   6.649   6.019   6.945  0.1169  0.2644  0.1110
  156SAPE   H2X17347   6.750   6.065   6.950  0.5504 -0.3207 -2.3352
  156SAPE   H2Y17348   6.649   5.908   6.949 -1.3338  0.2378 -0.0068
  156SAPE   C2317349   6.239   6.222   7.087 -0.7019 -0.1706 -0.1994
  156SAPE   H3R17350   6.339   6.238   7.131 -2.1378  2.2879  2.5250
  156SAPE   H3S17351   6.210   6.115   7.081 -1.4740  0.0738 -1.0899
  156SAPE   C2417352   6.145   6.280   7.196 -1.0838  0.6973 -0.1598
  156SAPE   H4R17353   6.163   6.222   7.290 -0.9644 -0.8532 -1.1006
  156SAPE   H4S17354   6.045   6.250   7.160 -0.1803 -1.0724 -1.3248
  156SAPE   C2517355   6.167   6.426   7.213 -0.2303  0.4355  0.7633
  156SAPE   H5R17356   6.121   6.486   7.133  1.6135 -0.0801 -0.7588
  156SAPE   C2617357   6.247   6.482   7.301 -0.1387 -0.0668 -0.1001
  156SAPE   H6R17358   6.253   6.590   7.321  2.2109 -0.6042  2.8305
  156SAPE   C2717359   6.347   6.413   7.392 -0.0701 -0.1273 -0.2463
  156SAPE   H7R17360   6.440   6.475   7.390  1.5131 -2.3498  0.2276
  156SAPE   H7S17361   6.381   6.315   7.353 -0.2134 -0.2894  0.0292
  156SAPE   C2817362   6.298   6.402   7.535 -0.1638  0.4369 -0.2074
  156SAPE   H8R17363   6.238   6.311   7.548  1.2494 -0.4428  0.5059
  156SAPE   C2917364   6.342   6.471   7.643  0.5571 -0.5011 -0.1906
  156SAPE   H9R17365   6.277   6.460   7.731 -1.0395 -0.7451 -1.3569
  156SAPE  C21017366   6.447   6.577   7.625  0.6494 -0.7086  0.1559
  156SAPE  H10R17367   6.441   6.625   7.525  0.3101 -0.3377  0.3493
  156SAPE  H10S17368   6.547   6.530   7.633  1.4289  0.8560  0.0065
  156SAPE  C21117369   6.444   6.676   7.735 -0.4674 -0.1032 -0.2547
  156SAPE  H11R17370   6.487   6.637   7.829 -0.5118 -0.3186 -0.3229
  156SAPE  C21217371   6.401   6.800   7.732  0.9632 -0.7215 -0.5177
  156SAPE  H12R17372   6.412   6.863   7.821 -0.5041 -0.9110 -0.1670
  156SAPE  C21317373   6.343   6.863   7.608  0.0543  0.2366  0.4091
  156SAPE  H13R17374   6.283   6.953   7.634 -1.6140 -0.6627 -0.1229
  156SAPE  H13S17375   6.270   6.796   7.558 -0.2636  1.6128 -1.0611
  156SAPE  C21417376   6.445   6.902   7.496  0.4568  0.0591  0.1792
  156SAPE  H14R17377   6.551   6.881   7.515  0.4579  0.7255  0.9745
  156SAPE  C21517378   6.418   6.960   7.380  1.2193  0.5040  0.3130
  156SAPE  H15R17379   6.499   6.975   7.307  0.5999  0.1577 -0.4548
  156SAPE  C21617380   6.276   7.001   7.332  0.2722 -0.2201  0.6442
  156SAPE  H16R17381   6.288   7.099   7.281 -1.3936 -1.0164 -1.4036
  156SAPE  H16S17382   6.207   7.016   7.418  0.2547  0.1881  0.5619
  156SAPE  C21717383   6.220   6.899   7.225  0.0374 -0.0369  0.5197
  156SAPE  H17R17384   6.117   6.927   7.197  0.5669  1.5946  0.0976
  156SAPE  H17S17385   6.212   6.799   7.272 -1.3147 -1.5471 -2.6946
  156SAPE  C21817386   6.306   6.882   7.097 -0.6159  0.3087 -0.0585
  156SAPE  H18R17387   6.388   6.809   7.111 -2.2935 -1.1492  3.1235
  156SAPE  H18S17388   6.330   6.987   7.068  0.5731 -0.3832 -1.7918
  156SAPE  C21917389   6.227   6.822   6.976  0.1169 -0.1573 -0.8748
  156SAPE  H19R17390   6.173   6.731   7.012 -5.1599  3.2125  1.0151
  156SAPE  H19S17391   6.293   6.787   6.894  1.9520  1.2029 -0.0381
  156SAPE  C22017392   6.129   6.914   6.899 -0.1707 -0.2997  0.0440
  156SAPE  H20R17393   6.073   6.977   6.971 -1.4153 -1.4119  0.0861
  156SAPE  H20S17394   6.066   6.857   6.828  2.0686 -0.2173 -2.1806
  156SAPE  H20T17395   6.181   6.981   6.828 -2.3518  0.6065 -0.7560
  156SAPE   C3317396   6.551   6.076   7.049  0.0832  0.2515  0.1119
  156SAPE   H3X17397   6.448   6.038   7.027  0.3951 -1.3012  1.1921
  156SAPE   H3Y17398   6.553   6.187   7.052 -0.7789  0.2589  2.1886
  156SAPE   C3417399   6.589   6.026   7.191  0.2339  0.5085  0.4741
  156SAPE   H4X17400   6.693   6.065   7.197  0.1073  1.4568 -2.2286
  156SAPE   H4Y17401   6.591   5.915   7.194 -1.1091  0.4067 -1.2443
  156SAPE   C3517402   6.510   6.081   7.305 -0.7259  0.3495  0.6251
  156SAPE   H5X17403   6.404   6.076   7.273 -0.8975  2.6032  0.7007
  156SAPE   H5Y17404   6.542   6.187   7.304 -0.5839  0.3095  0.9283
  156SAPE   C3617405   6.543   6.020   7.441  0.0147  0.1709 -0.0051
  156SAPE   H6X17406   6.651   6.029   7.465 -0.6767  2.7268  2.7832
  156SAPE   H6Y17407   6.516   5.913   7.441  0.6564 -0.0022 -0.7742
  156SAPE   C3717408   6.451   6.076   7.550  0.0107  0.6760  0.4534
  156SAPE   H7X17409   6.357   6.090   7.493 -0.4103  0.2794  1.0307
  156SAPE   H7Y17410   6.493   6.174   7.577  1.7846  0.7042 -2.0668
  156SAPE   C3817411   6.442   5.989   7.683 -0.2485 -0.1197  0.7470
  156SAPE   H8X17412   6.545   5.975   7.724 -0.1406  1.9025  1.3052
  156SAPE   H8Y17413   6.399   5.888   7.667  2.0304 -1.2384  1.2469
  156SAPE   C3917414   6.358   6.063   7.791 -0.5078 -0.0398  0.0878
  156SAPE   H9X17415   6.414   6.155   7.819  1.4999 -0.8284 -1.1508
  156SAPE   H9Y17416   6.370   6.008   7.886 -0.7774  0.8430  0.6402
  156SAPE  C31017417   6.211   6.082   7.759 -0.4097  0.5288 -1.2756
  156SAPE  H10X17418   6.195   6.003   7.683  1.1185  0.0258 -1.1167
  156SAPE  H10Y17419   6.198   6.178   7.704  1.9442  0.7977 -1.4697
  156SAPE  C31117420   6.120   6.100   7.883  0.2598  0.4266  0.6700
  156SAPE  H11X17421   6.157   6.046   7.973  0.9732 -1.0218 -0.4349
  156SAPE  H11Y17422   6.015   6.071   7.860  0.1114  2.7157 -2.0395
  156SAPE  C31217423   6.088   6.247   7.922 -0.0877 -0.1423  0.0849
  156SAPE  H12X17424   6.003   6.242   7.993 -1.1900  0.0717 -1.1754
  156SAPE  H12Y17425   6.048   6.313   7.842  0.2990 -1.6022 -1.3725
  156SAPE  C31317426   6.210   6.313   7.975 -0.1013 -0.2135 -0.4737
  156SAPE  H13X17427   6.306   6.326   7.921 -0.9177  2.7629 -1.3970
  156SAPE  H13Y17428   6.243   6.269   8.071 -0.6378 -1.6589 -0.9145
  156SAPE  C31417429   6.176   6.467   7.996 -0.1319  0.5836 -0.1169
  156SAPE  H14X17430   6.071   6.483   8.026 -0.0929  1.4888 -0.4451
  156SAPE  H14Y17431   6.186   6.521   7.900  0.2207  0.3857 -0.1943
  156SAPE  C31517432   6.273   6.540   8.096  0.2098  0.1813 -0.4618
  156SAPE  H15X17433   6.262   6.499   8.198  0.5952  1.2187  0.0076
  156SAPE  H15Y17434   6.246   6.647   8.107  3.0252  0.9042  0.3099
  156SAPE  C31617435   6.421   6.530   8.061 -0.2074  0.0437 -0.6172
  156SAPE  H16X17436   6.443   6.628   8.014 -2.2132 -0.4649 -2.7736
  156SAPE  H16Y17437   6.449   6.447   7.992  0.4526  0.5824 -1.0051
  156SAPE  C31717438   6.510   6.493   8.176 -0.0247 -0.1254  0.0588
  156SAPE  H17X17439   6.616   6.492   8.145 -0.4416 -3.6806 -1.7216
  156SAPE  H17Y17440   6.491   6.387   8.200 -0.2002 -0.0709  0.1653
  156SAPE  C31817441   6.499   6.589   8.289  0.7132 -0.5302  0.3714
  156SAPE  H18X17442   6.512   6.697   8.271  1.0406 -0.8836 -1.7244
  156SAPE  H18Y17443   6.575   6.558   8.364  0.4543 -0.2207  0.7615
  156SAPE  H18Z17444   6.402   6.570   8.340  0.8111 -2.6382 -0.1045
  157SAPE     N17445   3.681   3.261   5.961  0.2548  0.2870 -0.4954
  157SAPE   HN117446   3.732   3.285   5.874  0.1259  0.0687 -0.6332
  157SAPE   HN217447   3.754   3.259   6.035 -1.2805 -1.4963  1.0579
  157SAPE   HN317448   3.643   3.165   5.948  0.5025  0.1065  0.0537
  157SAPE   C1217449   3.577   3.363   5.988 -0.2602 -0.4905 -0.1909
  157SAPE  H12A17450   3.524   3.322   6.077  1.4902 -2.7436 -0.0940
  157SAPE  H12B17451   3.504   3.358   5.905 -0.6081 -0.0455  0.0832
  157SAPE   C1117452   3.634   3.504   6.008 -0.4886  0.2577 -1.0746
  157SAPE  H11A17453   3.553   3.575   6.035 -0.0391 -0.0006  1.1394
  157SAPE  H11B17454   3.691   3.543   5.921  0.7434  0.7765 -0.0723
  157SAPE     P17455   3.765   3.604   6.225  0.1169 -0.0767  0.0829
  157SAPE   O1317456   3.813   3.530   6.348  0.1529 -0.0763  0.2799
  157SAPE   O1417457   3.852   3.707   6.157 -0.1468  0.1121 -0.0745
  157SAPE   O1217458   3.721   3.498   6.121 -0.4552  0.1096 -0.2449
  157SAPE   O1117459   3.634   3.674   6.266 -0.1820 -0.8287  0.6042
  157SAPE    C117460   3.509   3.615   6.308 -0.1250  0.1168  0.0511
  157SAPE    HA17461   3.434   3.625   6.227  0.6514 -0.2221 -0.7275
  157SAPE    HB17462   3.526   3.508   6.331  1.1388  0.4095  0.5749
  157SAPE    C217463   3.459   3.664   6.445  0.2412  0.0957  0.1904
  157SAPE    HS17464   3.437   3.771   6.426 -1.7608 -0.5385 -1.2825
  157SAPE   O2117465   3.551   3.636   6.548 -0.4706 -0.2276 -0.2842
  157SAPE   C2117466   3.655   3.727   6.551 -0.0527  0.4562 -0.7358
  157SAPE   O2217467   3.653   3.842   6.517 -0.0844  0.1496 -0.0106
  157SAPE   C2217468   3.767   3.679   6.639 -0.2176 -0.3047 -0.4817
  157SAPE   H2R17469   3.714   3.646   6.731 -2.3670  1.5177 -0.9741
  157SAPE   H2S17470   3.809   3.594   6.580  1.3451  0.4090 -0.4329
  157SAPE    C317471   3.320   3.603   6.481  0.1859 -0.6895  0.4214
  157SAPE    HX17472   3.343   3.496   6.499 -1.2606 -1.1629 -0.3957
  157SAPE    HY17473   3.261   3.622   6.389  0.8899  3.1914  0.6084
  157SAPE   O3117474   3.267   3.670   6.596  0.8263  0.2715  0.1395
  157SAPE   C3117475   3.220   3.788   6.583  0.3144 -0.8385 -0.1936
  157SAPE   O3217476   3.197   3.846   6.479  0.1398  0.0299 -0.1597
  157SAPE   C3217477   3.195   3.855   6.716 -0.6730 -0.4501 -0.2698
  157SAPE   H2X17478   3.192   3.766   6.784  0.5919 -1.0666 -0.9764
  157SAPE   H2Y17479   3.096   3.905   6.720 -0.1521  0.5433  0.8272
  157SAPE   C2317480   3.888   3.775   6.663 -0.1858  0.1495  0.3475
  157SAPE   H3R17481   3.887   3.862   6.594  1.4679  0.5329  0.7495
  157SAPE   H3S17482   3.983   3.718   6.656 -0.5057 -0.8697  3.0371
  157SAPE   C2417483   3.888   3.822   6.815 -0.1390  0.2237  0.0413
  157SAPE   H4R17484   3.972   3.893   6.831 -0.1940  0.3510 -0.2173
  157SAPE   H4S17485   3.914   3.739   6.884  1.3161  0.4786 -0.1666
  157SAPE   C2517486   3.757   3.892   6.849 -0.2894 -0.5389 -0.0279
  157SAPE   H5R17487   3.710   3.941   6.763  0.0199 -2.0146 -1.0607
  157SAPE   C2617488   3.699   3.895   6.973 -0.4038 -0.0488 -0.1851
  157SAPE   H6R17489   3.602   3.946   6.984 -0.5348  0.2874 -2.4637
  157SAPE   C2717490   3.756   3.835   7.099  0.1651 -0.9224 -0.0955
  157SAPE   H7R17491   3.776   3.914   7.175  1.2648  1.0231 -2.2676
  157SAPE   H7S17492   3.858   3.801   7.072  0.3471 -0.4649 -0.0080
  157SAPE   C2817493   3.678   3.721   7.145 -0.1457  0.3286  0.3429
  157SAPE   H8R17494   3.671   3.638   7.072 -0.4961  0.4463  0.2436
  157SAPE   C2917495   3.612   3.703   7.265 -0.4391 -0.0148  0.2382
  157SAPE   H9R17496   3.565   3.607   7.292  1.7730 -0.7726  1.6596
  157SAPE  C21017497   3.608   3.802   7.375  0.4013  0.0898 -0.1675
  157SAPE  H10R17498   3.581   3.899   7.328 -0.4329  0.3381  0.7802
  157SAPE  H10S17499   3.712   3.816   7.414  0.1342 -2.0043  1.4745
  157SAPE  C21117500   3.514   3.770   7.496 -0.0443 -0.9048  0.2858
  157SAPE  H11R17501   3.411   3.806   7.483  0.3983  0.3620  0.2094
  157SAPE  C21217502   3.542   3.708   7.618 -0.1283 -0.3213  0.6043
  157SAPE  H12R17503   3.464   3.681   7.690  0.0670 -0.9228  0.5990
  157SAPE  C21317504   3.680   3.654   7.646  0.1259 -1.2635  0.0078
  157SAPE  H13R17505   3.735   3.725   7.712 -0.8324 -0.3212 -0.1765
  157SAPE  H13S17506   3.745   3.657   7.556 -2.1984  0.2109 -1.7476
  157SAPE  C21417507   3.672   3.520   7.698  0.0375  0.8504 -0.8169
  157SAPE  H14R17508   3.626   3.454   7.623 -0.8577  4.0235 -3.2773
  157SAPE  C21517509   3.720   3.461   7.808 -0.7274  0.0159 -0.0937
  157SAPE  H15R17510   3.702   3.356   7.835  0.3354 -0.4704 -1.2282
  157SAPE  C21617511   3.812   3.532   7.906 -0.7457 -0.2160  0.3180
  157SAPE  H16R17512   3.848   3.632   7.873 -4.0125  1.5312  1.5845
  157SAPE  H16S17513   3.900   3.466   7.921 -1.4086 -0.8285  1.7046
  157SAPE  C21717514   3.757   3.565   8.047 -0.4749 -0.2142 -0.3168
  157SAPE  H17R17515   3.663   3.621   8.032  1.3855  2.7310 -1.8634
  157SAPE  H17S17516   3.831   3.629   8.100 -0.2176  0.1390 -1.0869
  157SAPE  C21817517   3.729   3.438   8.126 -0.7654 -1.1461 -0.5390
  157SAPE  H18R17518   3.820   3.399   8.178  0.0294 -0.8424 -1.6635
  157SAPE  H18S17519   3.699   3.357   8.056  1.3749 -2.2797 -0.2551
  157SAPE  C21917520   3.607   3.473   8.225 -0.5985 -0.0666  0.3581
  157SAPE  H19R17521   3.520   3.511   8.167  0.0064 -0.4043 -0.8074
  157SAPE  H19S17522   3.645   3.550   8.296  0.1313 -0.8498  0.8432
  157SAPE  C22017523   3.581   3.357   8.313  0.5423 -0.0417 -0.3432
  157SAPE  H20R17524   3.501   3.388   8.383 -0.9323  0.3406 -2.1250
  157SAPE  H20S17525   3.671   3.329   8.372  0.3648  2.6692  1.3844
  157SAPE  H20T17526   3.548   3.267   8.257 -2.2430  0.9878 -0.5083
  157SAPE   C3317527   3.313   3.949   6.770  0.7314 -0.6760 -0.0339
  157SAPE   H3X17528   3.314   4.045   6.714 -2.8001 -0.4491  0.0655
  157SAPE   H3Y17529   3.418   3.914   6.762  0.6025 -1.2454  0.7005
  157SAPE   C3417530   3.292   3.978   6.923 -0.1981 -0.0927  0.2017
  157SAPE   H4X17531   3.189   4.016   6.943 -0.2511 -0.6157  0.9914
  157SAPE   H4Y17532   3.358   4.062   6.956  1.2813 -2.4181  3.8974
  157SAPE   C3517533   3.312   3.860   7.018 -0.0247 -0.0135  0.0352
  157SAPE   H5X17534   3.405   3.804   6.995  1.7811  2.1583  1.5772
  157SAPE   H5Y17535   3.223   3.793   7.009 -1.3977  1.7914 -0.4274
  157SAPE   C3617536   3.313   3.894   7.169  0.2900  0.2796 -0.6660
  157SAPE   H6X17537   3.402   3.957   7.192 -1.0775  1.3227  2.3766
  157SAPE   H6Y17538   3.327   3.802   7.229 -0.3069  0.0901 -0.8138
  157SAPE   C3717539   3.192   3.966   7.218  0.7655 -0.0911 -0.6069
  157SAPE   H7X17540   3.123   3.902   7.276 -0.4500  1.7356  0.0758
  157SAPE   H7Y17541   3.125   4.003   7.137  0.1506  0.2604  0.0523
  157SAPE   C3817542   3.218   4.091   7.307 -0.0309  0.4302  0.7314
  157SAPE   H8X17543   3.119   4.131   7.337 -0.0887  0.2717  0.7510
  157SAPE   H8Y17544   3.260   4.168   7.239 -0.5305  0.5913  0.6000
  157SAPE   C3917545   3.315   4.079   7.427 -0.9436 -0.4444  0.5749
  157SAPE   H9X17546   3.420   4.094   7.395 -1.0087  0.7437  0.8982
  157SAPE   H9Y17547   3.323   3.982   7.481  4.2003 -0.1093  0.8794
  157SAPE  C31017548   3.279   4.182   7.534 -0.6430  0.0854 -0.4125
  157SAPE  H10X17549   3.180   4.147   7.568 -0.0638 -0.8963  0.3224
  157SAPE  H10Y17550   3.269   4.286   7.496 -0.8551  0.0719 -0.3928
  157SAPE  C31117551   3.364   4.175   7.659  0.1142  0.0475  0.0497
  157SAPE  H11X17552   3.352   4.269   7.716  1.3231  0.0781  0.2790
  157SAPE  H11Y17553   3.470   4.176   7.627  0.3589  3.0059  0.6894
  157SAPE  C31217554   3.325   4.070   7.760 -1.0493 -0.0672 -0.0938
  157SAPE  H12X17555   3.364   3.973   7.722  1.2397  1.0332 -0.7370
  157SAPE  H12Y17556   3.216   4.052   7.762 -1.3397  1.5208 -0.0216
  157SAPE  C31317557   3.383   4.088   7.903  0.1387  0.0457 -0.2460
  157SAPE  H13X17558   3.317   4.159   7.957 -0.1847  1.0867 -1.9576
  157SAPE  H13Y17559   3.480   4.136   7.879 -0.2321  1.2060  0.4871
  157SAPE  C31417560   3.395   3.958   7.985  0.1112  0.3061 -0.0763
  157SAPE  H14X17561   3.464   3.893   7.927  1.9847  2.2961 -0.1679
  157SAPE  H14Y17562   3.294   3.917   8.008 -0.4931  0.6115 -1.9990
  157SAPE  C31517563   3.480   3.992   8.110 -0.5369  0.7334  0.7541
  157SAPE  H15X17564   3.401   4.006   8.187  1.5117 -0.2066  3.1661
  157SAPE  H15Y17565   3.542   4.083   8.093  1.5376 -0.6997  0.3403
  157SAPE  C31617566   3.579   3.884   8.151 -0.4717  0.0942 -0.1620
  157SAPE  H16X17567   3.642   3.869   8.061  0.3028 -0.0569  0.3924
  157SAPE  H16Y17568   3.525   3.789   8.175  1.0452 -1.5136 -2.6270
  157SAPE  C31717569   3.669   3.933   8.256  0.2074 -0.2668  0.1572
  157SAPE  H17X17570   3.723   4.023   8.219  2.1512 -0.9258  1.2691
  157SAPE  H17Y17571   3.748   3.859   8.283  0.5859 -0.1066 -0.4852
  157SAPE  C31817572   3.595   3.969   8.390  0.1061  0.1002 -0.9049
  157SAPE  H18X17573   3.542   4.066   8.380 -0.1147 -0.0256 -0.9825
  157SAPE  H18Y17574   3.659   3.981   8.479  0.7384 -0.3396 -1.2914
  157SAPE  H18Z17575   3.515   3.893   8.406  2.4450 -2.7539 -1.8278
  158SAPE     N17576   5.457   1.366   5.881  0.0010  0.2792  0.3690
  158SAPE   HN117577   5.474   1.468   5.877  0.1095  0.2197 -0.8999
  158SAPE   HN217578   5.453   1.319   5.789  0.1552 -2.0866  1.5001
  158SAPE   HN317579   5.373   1.344   5.938  0.5969 -1.4666  0.6405
  158SAPE   C1217580   5.580   1.294   5.941 -0.0650  0.2126  0.2456
  158SAPE  H12A17581   5.657   1.269   5.865 -0.6567 -1.5893  0.1957
  158SAPE  H12B17582   5.540   1.198   5.980 -0.5314  0.5449  0.5910
  158SAPE   C1117583   5.644   1.365   6.062 -0.1781 -0.3042  0.2786
  158SAPE  H11A17584   5.671   1.467   6.026 -2.6639  0.3956  0.1844
  158SAPE  H11B17585   5.734   1.304   6.083 -0.2401 -1.1545 -1.7277
  158SAPE     P17586   5.555   1.306   6.303 -0.0301  0.2943  0.2109
  158SAPE   O1317587   5.493   1.408   6.391  0.0048 -0.1854 -0.4334
  158SAPE   O1417588   5.487   1.175   6.278  0.0750 -0.0737 -0.3416
  158SAPE   O1217589   5.541   1.373   6.162 -0.1123 -0.1456 -0.0356
  158SAPE   O1117590   5.711   1.295   6.317 -0.9140  0.0637 -0.7316
  158SAPE    C117591   5.797   1.377   6.395  0.4901  0.6917  0.6665
  158SAPE    HA17592   5.895   1.388   6.343  0.5364  1.6673  0.9264
  158SAPE    HB17593   5.762   1.483   6.400  0.2351  0.5935  1.0687
  158SAPE    C217594   5.823   1.318   6.534 -0.8574 -0.1061 -0.4808
  158SAPE    HS17595   5.872   1.219   6.523  1.4231  1.0903 -1.8529
  158SAPE   O2117596   5.700   1.309   6.603  0.1941  0.3778  0.7281
  158SAPE   C2117597   5.682   1.197   6.677 -0.4356 -0.2289 -0.8048
  158SAPE   O2217598   5.752   1.100   6.681  0.0432 -0.2225 -0.1020
  158SAPE   C2217599   5.567   1.217   6.775 -0.0507 -0.1276  0.1067
  158SAPE   H2R17600   5.594   1.312   6.827  0.7381 -0.9204  1.1841
  158SAPE   H2S17601   5.483   1.240   6.706 -0.6179  2.2097  1.4537
  158SAPE    C317602   5.915   1.392   6.622 -0.5662 -0.1300 -0.3046
  158SAPE    HX17603   5.884   1.496   6.600  3.2943  1.4868  0.9493
  158SAPE    HY17604   6.018   1.397   6.579 -0.4596 -0.4204 -0.0851
  158SAPE   O3117605   5.923   1.352   6.761  0.1697  0.1847 -0.1822
  158SAPE   C3117606   5.898   1.446   6.852  0.3192 -0.0429  0.2710
  158SAPE   O3217607   5.853   1.556   6.827  0.1025  0.1614  0.1164
  158SAPE   C3217608   5.905   1.381   6.993 -0.1565  0.0345  0.2920
  158SAPE   H2X17609   6.002   1.326   6.993 -0.6981 -1.0673 -1.8981
  158SAPE   H2Y17610   5.830   1.300   7.004  0.0146 -0.3255 -0.9505
  158SAPE   C2317611   5.542   1.110   6.886  0.2799 -0.8306 -0.0501
  158SAPE   H3R17612   5.638   1.093   6.939  0.4042  0.3029  0.1221
  158SAPE   H3S17613   5.515   1.017   6.832  1.9737  0.0462 -2.5358
  158SAPE   C2417614   5.426   1.150   6.981  0.1553  1.0455 -0.4710
  158SAPE   H4R17615   5.428   1.071   7.059  3.8327  2.3401  0.9177
  158SAPE   H4S17616   5.335   1.147   6.917 -0.7235 -0.4642  0.7747
  158SAPE   C2517617   5.440   1.283   7.046 -0.3812 -0.0737 -0.2309
  158SAPE   H5R17618   5.439   1.366   6.973 -0.6800  1.7944  1.7837
  158SAPE   C2617619   5.444   1.324   7.180  0.9091 -0.0421  0.5892
  158SAPE   H6R17620   5.462   1.429   7.207  1.2391  0.3406 -1.0099
  158SAPE   C2717621   5.436   1.233   7.301  0.4078 -0.0855 -0.2068
  158SAPE   H7R17622   5.527   1.240   7.364 -0.7917 -0.4572  1.6481
  158SAPE   H7S17623   5.416   1.127   7.273 -0.0069  0.1774 -0.9504
  158SAPE   C2817624   5.321   1.281   7.392 -0.5559  0.1909  0.0594
  158SAPE   H8R17625   5.234   1.318   7.337 -1.3753  1.3390  2.0179
  158SAPE   C2917626   5.322   1.291   7.530  0.2927 -0.0497  0.3992
  158SAPE   H9R17627   5.236   1.346   7.571  0.8691  2.5441 -1.5881
  158SAPE  C21017628   5.434   1.253   7.632 -0.1315 -0.7094  1.0430
  158SAPE  H10R17629   5.517   1.199   7.583  0.1209  0.0294  0.6362
  158SAPE  H10S17630   5.396   1.182   7.709 -0.3655 -0.0868  1.5133
  158SAPE  C21117631   5.476   1.389   7.687  0.1035  0.6234  0.2637
  158SAPE  H11R17632   5.568   1.427   7.641 -0.2015  0.4777 -0.4787
  158SAPE  C21217633   5.411   1.456   7.774  0.1584 -1.0668  0.3568
  158SAPE  H12R17634   5.444   1.559   7.795  1.8285 -0.9648 -2.2843
  158SAPE  C21317635   5.292   1.404   7.850  0.0675  0.7284 -0.6243
  158SAPE  H13R17636   5.297   1.293   7.851 -2.4679  0.5460  1.1900
  158SAPE  H13S17637   5.203   1.446   7.797  0.3689  2.1403 -0.0772
  158SAPE  C21417638   5.292   1.454   7.993 -0.2955 -0.0950  0.4756
  158SAPE  H14R17639   5.354   1.388   8.057  3.3660  1.7761 -0.8524
  158SAPE  C21517640   5.218   1.554   8.057 -0.6697  0.1965  0.2871
  158SAPE  H15R17641   5.220   1.552   8.167  0.0821 -0.0638  0.2704
  158SAPE  C21617642   5.119   1.637   7.991 -0.2499  0.1075 -1.0070
  158SAPE  H16R17643   5.020   1.605   8.030  0.9087 -1.1575  1.1210
  158SAPE  H16S17644   5.116   1.618   7.882  1.6104  0.0260 -1.0651
  158SAPE  C21717645   5.119   1.789   8.030  0.2930  0.2281 -0.1004
  158SAPE  H17R17646   5.043   1.836   7.964  0.3354 -0.6007 -0.7622
  158SAPE  H17S17647   5.210   1.839   7.991  0.2861  0.4968  0.2248
  158SAPE  C21817648   5.099   1.827   8.181 -0.1195 -1.1477 -0.4687
  158SAPE  H18R17649   5.192   1.792   8.231 -0.2204 -2.1046 -0.9234
  158SAPE  H18S17650   5.013   1.772   8.226 -0.7322 -1.4144 -1.9214
  158SAPE  C21917651   5.084   1.975   8.199  0.4945  0.1596 -0.4601
  158SAPE  H19R17652   5.157   2.028   8.134 -0.4412  0.4448 -1.2981
  158SAPE  H19S17653   5.103   2.007   8.304  0.3127 -1.2820  0.0414
  158SAPE  C22017654   4.946   2.035   8.153 -0.5903  0.2187  0.4968
  158SAPE  H20R17655   4.946   2.145   8.135  2.5074 -0.0716 -2.1352
  158SAPE  H20S17656   4.875   2.013   8.235 -0.9487 -1.7188 -0.2808
  158SAPE  H20T17657   4.906   1.993   8.059 -1.2677 -0.1438  0.9358
  158SAPE   C3317658   5.892   1.482   7.106 -0.2286  0.1627 -0.1918
  158SAPE   H3X17659   5.792   1.529   7.112  0.8168  2.4415  0.9198
  158SAPE   H3Y17660   5.954   1.574   7.091  0.0936 -0.0802 -0.3663
  158SAPE   C3417661   5.902   1.415   7.245  0.1167  0.0736 -0.1039
  158SAPE   H4X17662   5.917   1.500   7.315 -0.3608 -0.0439  0.1482
  158SAPE   H4Y17663   5.997   1.356   7.243  0.0807 -0.0362  0.7932
  158SAPE   C3517664   5.780   1.329   7.290  0.2670 -0.1267 -0.0584
  158SAPE   H5X17665   5.727   1.279   7.206 -0.4080 -2.0342  1.4332
  158SAPE   H5Y17666   5.698   1.386   7.339  0.8720  1.6574 -1.0292
  158SAPE   C3617667   5.831   1.209   7.374 -0.3471 -0.2671  0.0861
  158SAPE   H6X17668   5.929   1.169   7.341 -1.1405  0.0884 -2.9571
  158SAPE   H6Y17669   5.757   1.128   7.360 -0.9277  0.3047 -0.2271
  158SAPE   C3717670   5.834   1.238   7.529  0.3845 -0.0034 -0.0317
  158SAPE   H7X17671   5.909   1.318   7.547  1.7086 -0.3490 -3.4598
  158SAPE   H7Y17672   5.735   1.265   7.573 -0.1501 -1.6324 -0.1532
  158SAPE   C3817673   5.879   1.118   7.614  1.0276 -0.4697  0.4921
  158SAPE   H8X17674   5.978   1.082   7.577  0.1570 -2.1004 -0.3677
  158SAPE   H8Y17675   5.817   1.027   7.601 -2.6161  1.5244  2.3481
  158SAPE   C3917676   5.878   1.138   7.765 -0.2775 -0.7892  0.7055
  158SAPE   H9X17677   5.925   1.048   7.810  2.2133  0.0410 -0.0525
  158SAPE   H9Y17678   5.770   1.147   7.789 -0.2167 -1.5126  1.2476
  158SAPE  C31017679   5.941   1.261   7.823 -0.0675  0.0494  0.1855
  158SAPE  H10X17680   5.885   1.345   7.777 -0.7319 -0.0749  0.7591
  158SAPE  H10Y17681   6.047   1.275   7.793 -0.3879  1.4862 -0.3419
  158SAPE  C31117682   5.924   1.279   7.976  0.2728 -0.6409  0.1537
  158SAPE  H11X17683   5.909   1.184   8.030 -3.0018  0.1446  0.7988
  158SAPE  H11Y17684   5.827   1.330   7.993  0.1663 -0.3187 -1.2377
  158SAPE  C31217685   6.034   1.365   8.047 -0.5310  0.0514 -0.5886
  158SAPE  H12X17686   6.005   1.472   8.039 -1.9347 -0.2310  0.4069
  158SAPE  H12Y17687   6.128   1.338   7.995  1.9791  1.6307  2.7633
  158SAPE  C31317688   6.063   1.341   8.195 -0.0328 -0.4185  0.2500
  158SAPE  H13X17689   6.077   1.232   8.214 -3.1884 -1.2292 -1.3674
  158SAPE  H13Y17690   5.975   1.367   8.258  0.7637 -0.5268  1.4528
  158SAPE  C31417691   6.175   1.428   8.251  0.2664  0.8709  0.1780
  158SAPE  H14X17692   6.178   1.529   8.206  3.0695  0.3259 -1.0880
  158SAPE  H14Y17693   6.270   1.376   8.227 -0.2119 -0.1769  0.5115
  158SAPE  C31517694   6.177   1.448   8.408  0.1220  0.4670 -0.5025
  158SAPE  H15X17695   6.197   1.349   8.456 -1.9972  0.1670 -0.1233
  158SAPE  H15Y17696   6.078   1.487   8.443  1.3929  1.9280  1.7158
  158SAPE  C31617697   6.274   1.562   8.449  0.2726  0.5801  0.3373
  158SAPE  H16X17698   6.217   1.656   8.433 -2.1847 -0.4364  2.3364
  158SAPE  H16Y17699   6.346   1.563   8.365 -1.3013  0.5419 -1.0602
  158SAPE  C31717700   6.347   1.564   8.580  0.5087 -0.0241 -0.0131
  158SAPE  H17X17701   6.283   1.534   8.666  1.9264 -0.8561  0.7934
  158SAPE  H17Y17702   6.386   1.667   8.592 -0.0042  0.3726 -1.5057
  158SAPE  C31817703   6.459   1.457   8.576  0.0647  0.2119 -0.1950
  158SAPE  H18X17704   6.536   1.490   8.504  3.1392 -1.6962  1.9863
  158SAPE  H18Y17705   6.426   1.358   8.538  0.1883 -0.0688  0.4161
  158SAPE  H18Z17706   6.507   1.457   8.676 -0.8535  1.0924  0.2720
  159SAPE     N17707   3.851   4.347   6.457 -0.3338 -0.1351 -0.1291
  159SAPE   HN117708   3.881   4.392   6.368 -2.6296  1.2746 -0.2833
  159SAPE   HN217709   3.818   4.251   6.434 -1.4187 -0.0429  0.9293
  159SAPE   HN317710   3.774   4.401   6.502  1.1720  1.2749  0.8891
  159SAPE   C1217711   3.961   4.334   6.556 -0.0675  0.3780 -0.2181
  159SAPE  H12A17712   3.919   4.280   6.644  0.2073 -1.2727 -1.0789
  159SAPE  H12B17713   4.005   4.432   6.588  0.6493 -0.3747  1.1943
  159SAPE   C1117714   4.083   4.269   6.494  0.2852  0.3667 -0.3233
  159SAPE  H11A17715   4.062   4.166   6.458 -2.2296  0.5511  0.4128
  159SAPE  H11B17716   4.157   4.260   6.576 -1.9589  1.2824  1.9433
  159SAPE     P17717   4.236   4.283   6.275 -0.1579 -0.0212 -0.3728
  159SAPE   O1317718   4.171   4.173   6.208  0.3865  0.4231  0.4900
  159SAPE   O1417719   4.296   4.392   6.197 -0.7436  0.1837  0.1936
  159SAPE   O1217720   4.133   4.351   6.383  0.0911  0.4909  0.6780
  159SAPE   O1117721   4.355   4.217   6.367  0.0012 -0.0957 -0.5253
  159SAPE    C117722   4.444   4.309   6.442  0.0870  0.2998  0.6289
  159SAPE    HA17723   4.527   4.348   6.379  1.2460  1.8725  2.9720
  159SAPE    HB17724   4.392   4.401   6.475  0.5732  0.4871  0.8872
  159SAPE    C217725   4.505   4.240   6.565 -0.7182  0.4668 -0.0523
  159SAPE    HS17726   4.587   4.174   6.529  1.3389  3.1251 -0.5610
  159SAPE   O2117727   4.400   4.173   6.640 -0.3323 -0.0203  0.0389
  159SAPE   C2117728   4.426   4.048   6.682 -0.0869  0.0843  0.1500
  159SAPE   O2217729   4.530   3.985   6.657  0.2817 -0.6044 -0.2225
  159SAPE   C2217730   4.314   3.991   6.762  0.4397  0.2147  0.9051
  159SAPE   H2R17731   4.225   4.057   6.759 -0.4990 -0.5946  5.0386
  159SAPE   H2S17732   4.288   3.892   6.719 -0.1039 -0.1764  2.1035
  159SAPE    C317733   4.559   4.352   6.656 -0.0049  0.1406  0.4305
  159SAPE    HX17734   4.478   4.417   6.694  0.5926  0.0142  2.0253
  159SAPE    HY17735   4.631   4.419   6.605 -1.4492 -0.6971 -3.0160
  159SAPE   O3117736   4.623   4.289   6.771 -0.0146  0.6191  0.8473
  159SAPE   C3117737   4.750   4.242   6.752 -0.5565  0.1448  0.2141
  159SAPE   O3217738   4.823   4.266   6.655 -0.0766  0.2784  0.5441
  159SAPE   C3217739   4.789   4.140   6.870  0.0568  0.3399  0.4173
  159SAPE   H2X17740   4.743   4.043   6.841  0.1332  0.3893  0.1273
  159SAPE   H2Y17741   4.744   4.177   6.965 -0.4304  0.7748  0.0201
  159SAPE   C2317742   4.343   3.943   6.908  0.2059 -0.1288  0.2844
  159SAPE   H3R17743   4.439   3.888   6.913  1.9952  2.8582  1.7943
  159SAPE   H3S17744   4.266   3.866   6.930 -0.6016 -0.2448 -2.5204
  159SAPE   C2417745   4.336   4.060   7.005  0.7018  0.8203  0.1556
  159SAPE   H4R17746   4.243   4.118   6.994  0.4751  0.6321  1.0498
  159SAPE   H4S17747   4.404   4.142   6.974 -0.9757  2.7476  1.3486
  159SAPE   C2517748   4.347   4.013   7.151 -0.1112  0.0680 -0.1948
  159SAPE   H5R17749   4.247   3.980   7.184 -1.0226  3.2481  0.5482
  159SAPE   C2617750   4.450   4.018   7.234 -0.4500  0.4198  0.0862
  159SAPE   H6R17751   4.443   3.972   7.334 -0.7553 -0.2179 -0.2238
  159SAPE   C2717752   4.575   4.078   7.188 -0.4706 -0.7408  0.1321
  159SAPE   H7R17753   4.583   4.070   7.077  1.4083 -2.2671  0.3163
  159SAPE   H7S17754   4.661   4.017   7.222 -0.7353 -0.4070  1.4542
  159SAPE   C2817755   4.590   4.228   7.224 -0.4677  0.0229 -0.1675
  159SAPE   H8R17756   4.512   4.295   7.184 -1.6008 -0.9139  0.4162
  159SAPE   C2917757   4.674   4.285   7.313 -0.6385 -0.8273  0.3585
  159SAPE   H9R17758   4.674   4.395   7.312 -1.6967 -0.7900  1.6099
  159SAPE  C21017759   4.773   4.208   7.400 -0.3694 -0.7460 -0.0601
  159SAPE  H10R17760   4.818   4.134   7.330 -2.1381 -1.6460 -0.3105
  159SAPE  H10S17761   4.723   4.149   7.481  0.2191 -0.8701  0.2199
  159SAPE  C21117762   4.882   4.308   7.445 -0.7184 -0.4821  0.0453
  159SAPE  H11R17763   4.903   4.375   7.361 -0.2352 -0.3160  0.2995
  159SAPE  C21217764   4.913   4.336   7.575  0.4815 -0.3415  0.0572
  159SAPE  H12R17765   4.993   4.412   7.581  3.0973 -2.7776 -1.2799
  159SAPE  C21317766   4.855   4.272   7.700  0.6013  0.3148  0.3963
  159SAPE  H13R17767   4.943   4.232   7.755  1.1002  1.4626  0.4478
  159SAPE  H13S17768   4.773   4.202   7.674  0.6543  0.8494 -1.4002
  159SAPE  C21417769   4.783   4.376   7.780  0.3070  0.3071  0.8129
  159SAPE  H14R17770   4.716   4.440   7.719  0.2836 -0.2549  0.2390
  159SAPE  C21517771   4.773   4.388   7.916  0.0872  0.2255 -0.2141
  159SAPE  H15R17772   4.720   4.475   7.957 -0.7123  0.2296 -1.2045
  159SAPE  C21617773   4.842   4.296   8.019  0.3850 -0.0805  0.0040
  159SAPE  H16R17774   4.860   4.196   7.974  0.3360  0.6388 -1.7261
  159SAPE  H16S17775   4.772   4.273   8.102  0.4380 -3.4862 -0.7752
  159SAPE  C21717776   4.966   4.360   8.084 -0.1588 -0.2475  0.0097
  159SAPE  H17R17777   5.015   4.290   8.156 -1.9347 -0.6935  0.8484
  159SAPE  H17S17778   4.936   4.447   8.146  0.1473 -0.2673  0.1878
  159SAPE  C21817779   5.072   4.397   7.979 -0.6497 -0.6656 -0.1103
  159SAPE  H18R17780   5.051   4.500   7.941  1.6512  0.8161  2.2409
  159SAPE  H18S17781   5.090   4.319   7.903 -1.0147  0.6469 -1.6099
  159SAPE  C21917782   5.217   4.419   8.034 -0.3985 -0.3767  0.2823
  159SAPE  H19R17783   5.292   4.445   7.957  0.9452 -0.1743  1.6135
  159SAPE  H19S17784   5.249   4.320   8.074  0.4620  1.2745  4.0795
  159SAPE  C22017785   5.214   4.529   8.140 -0.1368  0.4455  0.6844
  159SAPE  H20R17786   5.204   4.466   8.232  2.9396  1.1850  1.6538
  159SAPE  H20S17787   5.132   4.603   8.132  0.1133  0.5122 -2.2371
  159SAPE  H20T17788   5.310   4.584   8.150 -0.6724  1.3404  1.0011
  159SAPE   C3317789   4.937   4.125   6.896  0.6334 -1.1138  0.3698
  159SAPE   H3X17790   4.982   4.226   6.901  0.8914 -1.2363  0.5458
  159SAPE   H3Y17791   4.984   4.076   6.809  1.2561  0.0972  0.0103
  159SAPE   C3417792   4.960   4.050   7.027 -0.6526 -0.0321 -0.4674
  159SAPE   H4X17793   4.912   3.950   7.024  0.0738 -0.3760 -0.9129
  159SAPE   H4Y17794   4.917   4.122   7.100 -1.0158  0.1181 -0.8245
  159SAPE   C3517795   5.111   4.026   7.053  0.5391  0.1731  0.1560
  159SAPE   H5X17796   5.163   4.124   7.067  1.7347 -0.5007  0.5721
  159SAPE   H5Y17797   5.163   3.980   6.967  3.0093  2.6797  0.1670
  159SAPE   C3617798   5.139   3.943   7.182 -0.3020 -0.1732  0.4314
  159SAPE   H6X17799   5.242   3.901   7.185 -1.5883 -3.6619  0.7356
  159SAPE   H6Y17800   5.059   3.866   7.182 -0.8664  0.4142 -0.0681
  159SAPE   C3717801   5.138   4.029   7.317  0.7470  0.0051 -0.2768
  159SAPE   H7X17802   5.051   4.097   7.307 -0.5642 -1.7101 -1.2437
  159SAPE   H7Y17803   5.229   4.092   7.329  2.6552 -2.7596  0.9917
  159SAPE   C3817804   5.140   3.932   7.439 -0.1130  0.3070 -0.4468
  159SAPE   H8X17805   5.243   3.889   7.440  0.3624  1.3113 -1.8554
  159SAPE   H8Y17806   5.072   3.846   7.422 -0.3395  0.6788 -1.5183
  159SAPE   C3917807   5.110   3.989   7.578 -0.2945  0.5186  0.7423
  159SAPE   H9X17808   5.001   4.008   7.583 -1.1004 -2.3154 -2.3889
  159SAPE   H9Y17809   5.159   4.088   7.577 -1.5425  1.1931 -2.0161
  159SAPE  C31017810   5.167   3.900   7.689 -0.8366  0.4130  0.2194
  159SAPE  H10X17811   5.278   3.892   7.680 -0.9745 -3.3071  0.1982
  159SAPE  H10Y17812   5.121   3.799   7.688  1.5532 -0.8146  2.1781
  159SAPE  C31117813   5.145   3.959   7.828  0.0826  1.2700 -1.4882
  159SAPE  H11X17814   5.036   3.949   7.847  0.8323 -2.7061  2.2145
  159SAPE  H11Y17815   5.161   4.068   7.843  0.2155  1.2387 -1.4001
  159SAPE  C31217816   5.220   3.891   7.948 -0.3929 -0.3991 -0.5384
  159SAPE  H12X17817   5.328   3.898   7.926 -0.0995 -0.9672  0.6314
  159SAPE  H12Y17818   5.192   3.783   7.944 -1.2915 -0.2966  1.6089
  159SAPE  C31317819   5.195   3.947   8.093  0.0272 -0.1456  0.9253
  159SAPE  H13X17820   5.247   4.044   8.103 -0.5093  0.2431  0.0983
  159SAPE  H13Y17821   5.253   3.885   8.164  1.4351 -0.7694 -0.6977
  159SAPE  C31417822   5.042   3.953   8.117 -0.1163 -0.0070 -0.0971
  159SAPE  H14X17823   5.000   3.856   8.083  0.0864 -0.9071  2.0718
  159SAPE  H14Y17824   4.996   4.034   8.055  1.0417  1.0192  0.3535
  159SAPE  C31517825   4.996   3.961   8.260  0.1223  0.6350 -0.4229
  159SAPE  H15X17826   5.039   4.048   8.314 -0.4387 -0.5653  2.0919
  159SAPE  H15Y17827   5.048   3.886   8.323 -1.3688  1.4318  1.8916
  159SAPE  C31617828   4.842   3.962   8.278 -0.2389 -0.2510 -0.0868
  159SAPE  H16X17829   4.804   4.056   8.233  3.3139  0.2872 -2.4284
  159SAPE  H16Y17830   4.836   3.972   8.388  1.4343  2.9988 -0.1816
  159SAPE  C31717831   4.771   3.843   8.226  0.2623  0.1896  0.6193
  159SAPE  H17X17832   4.831   3.754   8.254 -0.4013 -0.3406  0.3982
  159SAPE  H17Y17833   4.768   3.836   8.116  2.1607 -1.3967  0.6107
  159SAPE  C31817834   4.625   3.819   8.277 -0.5227  0.1083  0.1774
  159SAPE  H18X17835   4.566   3.910   8.259 -0.9445 -0.8459 -4.5983
  159SAPE  H18Y17836   4.636   3.775   8.379 -1.0555 -0.6262 -0.0751
  159SAPE  H18Z17837   4.585   3.745   8.204  0.3496  2.1604 -2.5468
  160SAPE     N17838   5.126   2.022   6.324  0.0227  0.3104  0.9677
  160SAPE   HN117839   5.148   2.064   6.232  0.8307 -1.4496  0.3163
  160SAPE   HN217840   5.212   1.971   6.353 -1.2093 -1.4983  1.5718
  160SAPE   HN317841   5.052   1.950   6.317  1.7590 -1.6423  1.7359
  160SAPE   C1217842   5.093   2.132   6.424 -0.3587  0.0416  0.6583
  160SAPE  H12A17843   5.108   2.105   6.531 -0.0014  1.7669  1.0757
  160SAPE  H12B17844   4.986   2.156   6.404 -0.5839 -1.8181 -0.7266
  160SAPE   C1117845   5.187   2.256   6.396 -0.2868 -0.5062 -0.0888
  160SAPE  H11A17846   5.294   2.231   6.411 -0.2841  0.0663  0.9788
  160SAPE  H11B17847   5.175   2.342   6.466  0.3956 -0.5280  0.0649
  160SAPE     P17848   5.083   2.420   6.214 -0.0350 -0.0424  0.1977
  160SAPE   O1317849   5.148   2.548   6.262  0.5046 -0.0265  0.2215
  160SAPE   O1417850   5.059   2.409   6.071  0.4987  0.4314  0.0243
  160SAPE   O1217851   5.174   2.302   6.258 -0.1012  0.0506  0.4536
  160SAPE   O1117852   4.948   2.387   6.289 -0.3611  0.2526  0.2945
  160SAPE    C117853   4.856   2.500   6.292  0.1914 -0.3315 -0.1606
  160SAPE    HA17854   4.895   2.602   6.275 -0.3148 -0.1600 -0.3034
  160SAPE    HB17855   4.784   2.484   6.209 -0.6184  1.3752  0.1620
  160SAPE    C217856   4.788   2.502   6.433 -0.3619  0.6926 -0.2849
  160SAPE    HS17857   4.718   2.588   6.430  0.1440  1.1282  0.1930
  160SAPE   O2117858   4.893   2.514   6.537  0.3581  0.0833  0.2240
  160SAPE   C2117859   4.931   2.639   6.553 -0.0083  0.0793  0.2532
  160SAPE   O2217860   4.888   2.736   6.497  0.0292 -0.0034 -0.1477
  160SAPE   C2217861   5.033   2.652   6.668 -0.4601 -0.2779  0.7749
  160SAPE   H2R17862   5.055   2.760   6.680  2.2089 -0.5750 -0.7417
  160SAPE   H2S17863   4.985   2.619   6.763  1.7079  1.0150  2.4171
  160SAPE    C317864   4.718   2.374   6.477 -0.2128  1.0948  0.4145
  160SAPE    HX17865   4.798   2.298   6.484 -1.4399 -0.1704  1.3777
  160SAPE    HY17866   4.657   2.338   6.391  0.1581 -1.0103  0.9669
  160SAPE   O3117867   4.655   2.381   6.608 -0.0664 -0.1494 -0.6824
  160SAPE   C3117868   4.715   2.333   6.716  0.0831  0.4166 -0.7302
  160SAPE   O3217869   4.803   2.250   6.710  0.5349 -0.5234 -0.2197
  160SAPE   C3217870   4.634   2.380   6.838  0.4659  0.5251  0.6180
  160SAPE   H2X17871   4.653   2.312   6.924 -2.2423 -2.6450 -1.0567
  160SAPE   H2Y17872   4.525   2.369   6.819  0.6963 -1.6964  0.2082
  160SAPE   C2317873   5.164   2.579   6.648  0.0401  0.2090  0.0436
  160SAPE   H3R17874   5.258   2.638   6.637  2.6783 -3.7072 -0.6457
  160SAPE   H3S17875   5.165   2.510   6.560  0.2444 -0.1211  0.3024
  160SAPE   C2417876   5.204   2.511   6.778 -0.7626  0.1712 -0.3908
  160SAPE   H4R17877   5.239   2.591   6.847  3.5438 -0.6845 -1.2711
  160SAPE   H4S17878   5.294   2.448   6.760 -0.7133 -0.4106  1.5821
  160SAPE   C2517879   5.114   2.410   6.844  0.0047 -0.0547  0.1013
  160SAPE   H5R17880   5.081   2.326   6.781 -0.1611  0.4424 -0.4755
  160SAPE   C2617881   5.074   2.409   6.970 -0.0796 -0.1225 -0.6677
  160SAPE   H6R17882   4.997   2.337   7.000  1.1869 -0.9122  0.8803
  160SAPE   C2717883   5.105   2.511   7.078 -0.0671 -0.2253  0.0811
  160SAPE   H7R17884   5.197   2.564   7.047  0.3023 -0.0370  1.4138
  160SAPE   H7S17885   5.125   2.457   7.174 -0.0527  0.5428  0.5141
  160SAPE   C2817886   4.994   2.613   7.077 -0.0504  0.3987  0.3589
  160SAPE   H8R17887   4.992   2.661   6.978  1.8310  1.8107  0.9452
  160SAPE   C2917888   4.920   2.659   7.172  0.4303 -0.5613 -0.8093
  160SAPE   H9R17889   4.852   2.742   7.147  1.4244 -0.2050 -2.4892
  160SAPE  C21017890   4.934   2.616   7.315  0.0933 -0.4646 -0.1240
  160SAPE  H10R17891   4.992   2.692   7.371 -0.7768 -0.9381  1.4845
  160SAPE  H10S17892   4.981   2.515   7.319  0.2642 -0.4284 -1.0189
  160SAPE  C21117893   4.797   2.608   7.383 -0.4311  0.9012 -0.2707
  160SAPE  H11R17894   4.719   2.602   7.306  2.9608  2.0492 -4.2109
  160SAPE  C21217895   4.770   2.616   7.516 -0.5955 -0.9263  0.3938
  160SAPE  H12R17896   4.664   2.597   7.538 -0.4327 -1.4836  0.7202
  160SAPE  C21317897   4.859   2.638   7.634  0.3554 -0.0382 -0.0440
  160SAPE  H13R17898   4.966   2.664   7.618  1.2618 -1.7771  2.6824
  160SAPE  H13S17899   4.851   2.545   7.693 -0.0991 -0.2233 -0.3834
  160SAPE  C21417900   4.799   2.755   7.706 -0.1401  0.3533 -0.4088
  160SAPE  H14R17901   4.792   2.844   7.642 -4.6934  0.6432  0.1717
  160SAPE  C21517902   4.775   2.766   7.837 -0.4576  0.3531 -0.5641
  160SAPE  H15R17903   4.748   2.865   7.876  4.6845  2.2112 -0.8892
  160SAPE  C21617904   4.811   2.659   7.939  0.0460 -0.6163  0.3489
  160SAPE  H16R17905   4.878   2.695   8.021  1.0761 -2.4313  0.3653
  160SAPE  H16S17906   4.860   2.573   7.889 -0.2015  0.4254 -1.7915
  160SAPE  C21717907   4.688   2.596   8.006  0.6520 -0.4957 -0.1361
  160SAPE  H17R17908   4.728   2.517   8.074  1.9435  0.6746  0.5231
  160SAPE  H17S17909   4.624   2.551   7.928  0.8950 -0.0836 -0.5811
  160SAPE  C21817910   4.609   2.691   8.102  0.1514  0.3103 -0.0241
  160SAPE  H18R17911   4.568   2.779   8.048 -0.4124  0.5646  0.7981
  160SAPE  H18S17912   4.668   2.720   8.192 -1.2094  0.8003  0.7537
  160SAPE  C21917913   4.481   2.621   8.132  0.1496 -0.1049  0.0848
  160SAPE  H19R17914   4.491   2.519   8.173 -0.3082 -1.1286 -2.1889
  160SAPE  H19S17915   4.417   2.596   8.045 -1.1051  1.4888  0.4895
  160SAPE  C22017916   4.401   2.695   8.237  0.2647  0.2986 -0.3506
  160SAPE  H20R17917   4.367   2.794   8.199 -0.6435  1.0481  2.2170
  160SAPE  H20S17918   4.460   2.712   8.329 -0.8669  0.7394  0.3064
  160SAPE  H20T17919   4.319   2.632   8.277  0.0228  2.1910  2.3609
  160SAPE   C3317920   4.666   2.526   6.887  0.3072  1.0003 -0.1264
  160SAPE   H3X17921   4.655   2.607   6.812 -1.0702  1.2653  0.3327
  160SAPE   H3Y17922   4.764   2.522   6.940  0.3097 -1.3537 -0.1805
  160SAPE   C3417923   4.566   2.571   6.991  0.0143  0.0450  0.2989
  160SAPE   H4X17924   4.468   2.582   6.940  0.2999 -0.8030 -0.4609
  160SAPE   H4Y17925   4.607   2.663   7.038 -1.2101 -0.2775  2.1458
  160SAPE   C3517926   4.556   2.473   7.107 -0.0247 -0.3300  0.2098
  160SAPE   H5X17927   4.659   2.454   7.144  1.2811  1.2733 -2.3047
  160SAPE   H5Y17928   4.506   2.378   7.078 -1.1217 -0.7728  3.2257
  160SAPE   C3617929   4.474   2.534   7.220  1.0414 -0.1608  0.1699
  160SAPE   H6X17930   4.369   2.558   7.194  1.4169  2.4024  0.7906
  160SAPE   H6Y17931   4.509   2.628   7.268  2.3689  0.0829 -1.2116
  160SAPE   C3717932   4.463   2.433   7.332  0.6573 -0.1720 -0.5390
  160SAPE   H7X17933   4.565   2.398   7.357  0.5705  0.8562  1.4528
  160SAPE   H7Y17934   4.411   2.344   7.292  0.0536 -0.5139  0.9462
  160SAPE   C3817935   4.394   2.491   7.462 -0.0299 -0.2927  0.1409
  160SAPE   H8X17936   4.287   2.494   7.434 -0.0677 -1.8893 -0.0123
  160SAPE   H8Y17937   4.423   2.597   7.475  1.0962 -0.7169  1.3163
  160SAPE   C3917938   4.401   2.393   7.581  0.1695  0.0061  0.2702
  160SAPE   H9X17939   4.369   2.296   7.537  0.3497  1.0914 -2.4682
  160SAPE   H9Y17940   4.331   2.423   7.661  1.4488 -0.9867  1.8373
  160SAPE  C31017941   4.535   2.381   7.649 -0.0794  0.0161  0.1697
  160SAPE  H10X17942   4.563   2.486   7.673  1.4873  0.0546 -1.5776
  160SAPE  H10Y17943   4.610   2.341   7.578 -1.4912  1.7651 -2.4770
  160SAPE  C31117944   4.544   2.288   7.778 -0.2216  0.2434 -0.3319
  160SAPE  H11X17945   4.464   2.327   7.844 -0.4909  0.3173 -0.7017
  160SAPE  H11Y17946   4.639   2.300   7.834 -0.1875 -0.9208 -0.1047
  160SAPE  C31217947   4.529   2.136   7.754  0.1698  0.3366  1.0084
  160SAPE  H12X17948   4.594   2.105   7.670 -0.3500 -1.7805  1.3393
  160SAPE  H12Y17949   4.421   2.136   7.727  0.6642 -0.9646 -1.1889
  160SAPE  C31317950   4.542   2.049   7.882  0.0663 -0.3632 -0.0222
  160SAPE  H13X17951   4.642   2.061   7.928 -0.4517  1.5557  0.6912
  160SAPE  H13Y17952   4.522   1.943   7.858 -1.6264 -0.3091  0.9325
  160SAPE  C31417953   4.439   2.085   7.997  0.0579 -0.0655 -0.6172
  160SAPE  H14X17954   4.341   2.054   7.955  0.3352  0.4909 -1.7374
  160SAPE  H14Y17955   4.427   2.188   8.037 -0.8954 -0.0829 -0.8385
  160SAPE  C31517956   4.448   1.989   8.120  0.0136  0.5329  0.4945
  160SAPE  H15X17957   4.455   1.886   8.080  1.2658 -0.3633  2.8655
  160SAPE  H15Y17958   4.350   1.992   8.171 -0.7419  1.6933 -0.9485
  160SAPE  C31617959   4.570   2.013   8.214  0.5396 -0.8439 -0.5329
  160SAPE  H16X17960   4.540   2.103   8.272 -1.8772 -2.8622  1.6020
  160SAPE  H16Y17961   4.654   2.035   8.146  1.8760 -2.1709  0.6288
  160SAPE  C31717962   4.603   1.893   8.304  0.0475  0.2544 -0.6839
  160SAPE  H17X17963   4.513   1.863   8.361 -0.2562  2.3009 -0.0199
  160SAPE  H17Y17964   4.682   1.926   8.375  0.3025 -2.0688  0.1891
  160SAPE  C31817965   4.659   1.771   8.223  0.4540 -0.2395  0.4709
  160SAPE  H18X17966   4.581   1.745   8.148 -1.4616  1.3021  1.8349
  160SAPE  H18Y17967   4.676   1.681   8.287  0.8413 -1.1312 -0.8265
  160SAPE  H18Z17968   4.756   1.798   8.175  0.8387 -1.7597  0.3284
  161SOPE     N17969   5.531   6.332  11.106 -0.5867  0.0433  0.0595
  161SOPE   HN117970   5.532   6.404  11.180  2.5601  0.7611 -0.5374
  161SOPE   HN217971   5.498   6.244  11.151 -0.1058  0.5096  1.3642
  161SOPE   HN317972   5.629   6.326  11.074 -0.3692  0.2530  0.6705
  161SOPE   C1217973   5.452   6.376  10.985 -0.0935 -0.3125  0.4178
  161SOPE  H12A17974   5.508   6.462  10.942 -0.5074 -0.7737 -1.1081
  161SOPE  H12B17975   5.359   6.408  11.036 -1.2766 -2.0047 -0.5998
  161SOPE   C1117976   5.436   6.272  10.869 -0.3658  0.0170 -0.1716
  161SOPE  H11A17977   5.523   6.278  10.801 -0.7982 -0.2300 -0.7596
  161SOPE  H11B17978   5.343   6.310  10.821 -0.8664 -0.6352  0.2531
  161SOPE     P17979   5.320   6.040  10.855 -0.3158  0.0275  0.0726
  161SOPE   O1317980   5.195   6.042  10.936  0.3185 -0.1664 -0.4443
  161SOPE   O1417981   5.389   5.909  10.841  0.5236  0.4699 -0.0125
  161SOPE   O1217982   5.417   6.140  10.917  0.5435 -0.0836  0.0774
  161SOPE   O1117983   5.300   6.084  10.702  0.2724  0.1803  0.1939
  161SOPE    C117984   5.182   6.165  10.668 -0.1536  0.3191  0.4169
  161SOPE    HA17985   5.178   6.255  10.733  0.8103  0.4695  0.2874
  161SOPE    HB17986   5.088   6.106  10.665  0.7986 -1.2199 -1.1017
  161SOPE    C217987   5.204   6.236  10.527  0.1654  0.4194 -0.3715
  161SOPE    HS17988   5.134   6.323  10.528  0.0666  0.3513 -1.0689
  161SOPE   O2117989   5.174   6.151  10.419 -0.0285  0.3670 -0.2867
  161SOPE   C2117990   5.041   6.151  10.384 -0.4041 -1.0563  0.1042
  161SOPE   O2217991   4.954   6.220  10.433 -0.1325  0.0825 -0.3095
  161SOPE   C2217992   5.033   6.045  10.269  0.1349 -0.1690 -0.3162
  161SOPE   H2R17993   4.929   6.025  10.236  0.6203  0.2417 -2.2176
  161SOPE   H2S17994   5.077   5.950  10.306 -0.6118 -0.5495 -0.3919
  161SOPE    C317995   5.349   6.282  10.518  0.0141  0.1960 -0.1702
  161SOPE    HX17996   5.412   6.193  10.536  2.5586  2.0390  0.7235
  161SOPE    HY17997   5.380   6.365  10.586 -2.3585  1.0382 -0.0382
  161SOPE   O3117998   5.374   6.348  10.391 -0.5563 -0.4512 -0.3396
  161SOPE   C3117999   5.477   6.296  10.319  0.7107 -1.5335 -0.3930
  161SOPE   O3218000   5.542   6.203  10.362 -0.5638  0.0154  0.2523
  161SOPE   C3218001   5.500   6.360  10.182 -0.7776 -0.3580  0.2335
  161SOPE   H2X18002   5.495   6.470  10.191 -1.2840 -0.4273  0.9142
  161SOPE   H2Y18003   5.421   6.327  10.112  0.5906 -1.9182 -0.6430
  161SOPE   C2318004   5.100   6.094  10.137  0.1937 -0.6028 -0.3954
  161SOPE   H3R18005   5.091   6.013  10.061  1.3235 -0.8690 -0.2611
  161SOPE   H3S18006   5.203   6.128  10.162 -0.6677  1.2231  0.8867
  161SOPE   C2418007   5.037   6.218  10.068 -0.5953  0.0287  0.3398
  161SOPE   H4R18008   5.058   6.306  10.133  1.2608 -0.1351  0.0299
  161SOPE   H4S18009   5.094   6.229   9.973 -0.3274  0.2223  0.5212
  161SOPE   C2518010   4.892   6.206  10.041  0.4061  0.2218  0.5367
  161SOPE   H5R18011   4.825   6.193  10.128  0.1622  0.2816  0.3599
  161SOPE   H5S18012   4.860   6.306  10.004 -2.2828 -0.6692  0.1791
  161SOPE   C2618013   4.861   6.114   9.926  0.7950 -0.1107 -0.1229
  161SOPE   H6R18014   4.929   6.119   9.839  0.7428 -1.0210 -0.2246
  161SOPE   H6S18015   4.869   6.010   9.965  0.2513 -0.9471 -2.1420
  161SOPE   C2718016   4.716   6.134   9.869  0.0401 -0.1834  0.3866
  161SOPE   H7R18017   4.641   6.117   9.950  1.7888 -1.8629  1.7472
  161SOPE   H7S18018   4.704   6.229   9.812 -1.4821 -1.6499 -1.9257
  161SOPE   C2818019   4.683   6.025   9.766 -0.2584 -0.1898 -0.2249
  161SOPE   H8R18020   4.715   5.931   9.816 -0.3529  0.6056  1.4283
  161SOPE   H8S18021   4.573   6.037   9.759 -0.3704 -0.7390  0.3919
  161SOPE   C2918022   4.747   6.025   9.625 -0.1591 -0.3812  0.1537
  161SOPE   H9118023   4.849   5.983   9.620 -0.0451 -0.2426  1.0618
  161SOPE  C21018024   4.703   6.068   9.505 -0.2498  0.3516  0.7959
  161SOPE  H10118025   4.763   6.049   9.415  0.1370  1.0265  0.8994
  161SOPE  C21118026   4.574   6.127   9.480  0.6933 -0.2263 -0.2884
  161SOPE  H11R18027   4.574   6.218   9.417  1.7644  1.0488  1.4723
  161SOPE  H11S18028   4.535   6.157   9.579  0.4337 -0.7653 -0.2200
  161SOPE  C21218029   4.467   6.026   9.426 -0.2702 -0.1821  1.5606
  161SOPE  H12R18030   4.368   6.076   9.432 -1.2709 -2.0108  0.8447
  161SOPE  H12S18031   4.460   5.919   9.455  1.0901 -0.6913  0.1824
  161SOPE  C21318032   4.480   6.000   9.273 -0.1374  0.0785 -0.6923
  161SOPE  H13R18033   4.416   5.914   9.246  0.5604 -0.9479  0.7831
  161SOPE  H13S18034   4.586   5.968   9.262 -0.1084 -0.0014 -0.1998
  161SOPE  C21418035   4.458   6.118   9.185  0.5311 -0.4572  0.1824
  161SOPE  H14R18036   4.542   6.191   9.187  0.0987  0.0131  1.5951
  161SOPE  H14S18037   4.358   6.164   9.195  0.9603  0.4776  0.2700
  161SOPE  C21518038   4.470   6.071   9.037  0.1632  0.1524  0.1697
  161SOPE  H15R18039   4.482   6.162   8.974  1.5934 -1.3216 -1.8119
  161SOPE  H15S18040   4.375   6.019   9.013 -0.0062  0.3751  0.3626
  161SOPE  C21618041   4.589   5.975   9.012 -0.7754 -0.1615 -0.2931
  161SOPE  H16R18042   4.549   5.876   9.041 -0.6160 -0.4756 -1.1174
  161SOPE  H16S18043   4.679   6.005   9.070 -2.1052 -1.3273  2.5558
  161SOPE  C21718044   4.635   5.969   8.869  0.2799  0.8563  0.1713
  161SOPE  H17R18045   4.668   6.070   8.837 -1.1982  1.2605 -0.1554
  161SOPE  H17S18046   4.547   5.950   8.805  0.3738  0.0026  0.2859
  161SOPE  C21818047   4.742   5.859   8.829 -0.5792 -0.0611  0.1290
  161SOPE  H18R18048   4.711   5.755   8.854  2.3947 -1.1216 -0.1593
  161SOPE  H18S18049   4.828   5.872   8.899 -0.3913  0.1237 -0.1352
  161SOPE  H18T18050   4.776   5.874   8.724 -1.8185 -0.4624 -0.3433
  161SOPE   C3318051   5.631   6.316  10.119 -0.4290  0.1305 -1.2440
  161SOPE   H3X18052   5.618   6.208  10.101 -0.7062 -0.4784  1.9608
  161SOPE   H3Y18053   5.708   6.320  10.200 -1.5070  1.3325 -0.2367
  161SOPE   C3418054   5.669   6.386   9.996  0.1711 -0.1618  0.3128
  161SOPE   H4X18055   5.769   6.349   9.964  1.2621 -0.0602  3.2674
  161SOPE   H4Y18056   5.680   6.495  10.015 -1.5995  0.1251 -0.1497
  161SOPE   C3518057   5.569   6.364   9.873  0.5333 -0.1868 -0.5568
  161SOPE   H5X18058   5.475   6.423   9.882  0.8107  1.0252 -4.2382
  161SOPE   H5Y18059   5.534   6.261   9.895 -0.1540  0.2324  0.4209
  161SOPE   C3618060   5.633   6.384   9.739 -0.1001  0.7327 -0.0446
  161SOPE   H6X18061   5.736   6.344   9.737 -0.7674 -1.0384 -0.7007
  161SOPE   H6Y18062   5.653   6.492   9.719  0.5188  0.5993 -0.1706
  161SOPE   C3718063   5.559   6.338   9.622 -0.2053  0.7157  0.1275
  161SOPE   H7X18064   5.451   6.364   9.632 -1.1646 -2.2328 -1.4360
  161SOPE   H7Y18065   5.554   6.227   9.612 -0.9070  0.8453 -1.2748
  161SOPE   C3818066   5.616   6.386   9.484  0.0121 -0.4868 -0.3158
  161SOPE   H8X18067   5.724   6.362   9.491 -0.2166 -1.9930 -1.4902
  161SOPE   H8Y18068   5.599   6.496   9.476  1.2042 -0.3139 -0.7129
  161SOPE   C3918069   5.557   6.319   9.372  0.8143  0.8004  0.5894
  161SOPE   H9X18070   5.449   6.340   9.358  0.0665 -2.2329  0.9099
  161SOPE   H9Y18071   5.552   6.210   9.397 -2.7231  0.8417  0.6160
  161SOPE  C31018072   5.643   6.340   9.249 -0.6757 -0.0066 -0.5825
  161SOPE  H10X18073   5.746   6.305   9.266 -0.9387 -0.5438 -0.0811
  161SOPE  H10Y18074   5.642   6.449   9.226 -0.1160  1.1002  3.8111
  161SOPE  C31118075   5.582   6.267   9.128 -0.0442 -0.4946 -0.3144
  161SOPE  H11X18076   5.486   6.319   9.109  0.7902  0.6509 -1.5142
  161SOPE  H11Y18077   5.564   6.161   9.157 -0.1050 -0.7234 -1.1804
  161SOPE  C31218078   5.666   6.272   9.000  0.1950  0.0087  0.3580
  161SOPE  H12X18079   5.713   6.371   8.982  0.7036  0.0459  1.8128
  161SOPE  H12Y18080   5.602   6.258   8.910  0.7742 -2.6858  0.2888
  161SOPE  C31318081   5.781   6.164   8.987 -0.2758 -0.3495 -0.5140
  161SOPE  H13X18082   5.725   6.072   9.014 -3.3690  1.2153 -1.1346
  161SOPE  H13Y18083   5.858   6.178   9.066 -0.1905 -0.7174 -0.5337
  161SOPE  C31418084   5.840   6.155   8.848 -0.1071  0.6921 -0.0466
  161SOPE  H14X18085   5.753   6.164   8.779 -0.1953  0.5620  0.0492
  161SOPE  H14Y18086   5.885   6.055   8.829  0.5494  1.0894 -0.6611
  161SOPE  C31518087   5.948   6.255   8.811 -0.4932  0.1568  0.2216
  161SOPE  H15X18088   6.035   6.224   8.873  1.2940  2.5834 -0.8758
  161SOPE  H15Y18089   5.908   6.356   8.837 -1.0805  0.0139 -0.1204
  161SOPE  C31618090   5.996   6.243   8.668  0.3603 -0.1281 -0.5181
  161SOPE  H16X18091   5.912   6.266   8.600 -0.3085  1.2456  0.7318
  161SOPE  H16Y18092   6.020   6.136   8.646 -1.0893 -0.4767 -0.4578
  161SOPE  C31718093   6.118   6.334   8.641  0.1562 -0.3975 -1.2053
  161SOPE  H17X18094   6.209   6.278   8.671  0.0614  0.4255  0.7757
  161SOPE  H17Y18095   6.119   6.432   8.692  0.3601 -0.2934 -1.4086
  161SOPE  C31818096   6.137   6.371   8.498  0.1854  0.1031 -0.0179
  161SOPE  H18X18097   6.074   6.458   8.473 -1.0114 -0.8419 -0.3964
  161SOPE  H18Y18098   6.104   6.281   8.441 -2.8526  1.4856 -0.6181
  161SOPE  H18Z18099   6.243   6.396   8.480  0.3775 -1.3570 -1.1451
  162SOPE     N18100   2.803   4.905  10.978 -0.1022 -0.2246  0.7210
  162SOPE   HN118101   2.708   4.945  10.995  0.4044  0.8677  1.0460
  162SOPE   HN218102   2.855   4.979  10.928 -1.9215  1.3749  1.0569
  162SOPE   HN318103   2.791   4.826  10.912 -0.4197  0.3523  0.0731
  162SOPE   C1218104   2.882   4.855  11.100 -0.3391 -0.2530 -0.5850
  162SOPE  H12A18105   2.821   4.772  11.139  0.0462  0.3869  1.4870
  162SOPE  H12B18106   2.895   4.941  11.170  0.7173 -0.6339 -0.2906
  162SOPE   C1118107   3.011   4.800  11.044 -0.1494 -0.0003  0.5871
  162SOPE  H11A18108   3.069   4.757  11.129  0.7481 -0.4316 -0.2112
  162SOPE  H11B18109   3.074   4.885  11.010  1.1234 -1.2459 -0.3133
  162SOPE     P18110   3.054   4.560  10.927  0.3644  0.6679  0.0249
  162SOPE   O1318111   2.936   4.476  10.894  0.2952 -0.5399  0.0152
  162SOPE   O1418112   3.129   4.528  11.052 -0.0151  0.4819  0.0163
  162SOPE   O1218113   2.997   4.709  10.931 -0.1207  0.1630 -0.4453
  162SOPE   O1118114   3.150   4.569  10.799 -0.2545 -0.1901  0.0886
  162SOPE    C118115   3.220   4.687  10.765 -0.5524  0.1391  0.1112
  162SOPE    HA18116   3.321   4.681  10.811 -0.4001  0.4433 -0.1807
  162SOPE    HB18117   3.172   4.778  10.806 -0.6739 -0.7692  2.0888
  162SOPE    C218118   3.242   4.692  10.610  0.7550  0.0579 -0.0679
  162SOPE    HS18119   3.295   4.788  10.589 -0.3628  0.9129  0.8350
  162SOPE   O2118120   3.120   4.684  10.530  0.0389  0.0457 -0.0227
  162SOPE   C2118121   3.047   4.792  10.544 -0.8052 -0.1508 -0.2497
  162SOPE   O2218122   3.078   4.890  10.607 -0.0649 -0.4433  0.0644
  162SOPE   C2218123   2.925   4.780  10.458  0.0844 -0.4464 -0.1589
  162SOPE   H2R18124   2.843   4.787  10.533  0.3307 -0.4292  0.1125
  162SOPE   H2S18125   2.911   4.677  10.419 -1.4069 -1.9201  3.7076
  162SOPE    C318126   3.335   4.583  10.563 -0.5632 -0.0075  0.2520
  162SOPE    HX18127   3.312   4.492  10.622  3.6139 -1.6640 -0.3626
  162SOPE    HY18128   3.436   4.615  10.597 -0.1525 -0.9445 -0.0634
  162SOPE   O3118129   3.329   4.552  10.418 -0.6074  0.4938  0.8332
  162SOPE   C3118130   3.368   4.657  10.342  0.8392  0.8265 -0.0466
  162SOPE   O3218131   3.410   4.766  10.375 -0.1756 -0.0298 -0.7881
  162SOPE   C3218132   3.351   4.622  10.191 -0.2396 -0.0091 -0.3573
  162SOPE   H2X18133   3.241   4.616  10.172 -0.2950 -0.1175 -0.0041
  162SOPE   H2Y18134   3.395   4.522  10.174  0.4107  0.2654 -0.2980
  162SOPE   C2318135   2.924   4.879  10.346  0.9920 -0.3836  0.1916
  162SOPE   H3R18136   2.951   4.983  10.371  1.8310 -0.3106 -0.9312
  162SOPE   H3S18137   2.819   4.896  10.314  1.2476 -1.5143 -1.4091
  162SOPE   C2418138   3.011   4.836  10.227  0.2543 -0.0374  0.1861
  162SOPE   H4R18139   3.118   4.840  10.258 -0.3825 -0.5883  2.6857
  162SOPE   H4S18140   2.978   4.737  10.188 -0.7260 -0.3415  1.7254
  162SOPE   C2518141   2.994   4.928  10.106 -0.2628 -0.1327  0.3016
  162SOPE   H5R18142   2.888   4.919  10.074  0.1303 -0.2881 -0.9794
  162SOPE   H5S18143   3.009   5.033  10.139 -1.4361 -0.7107  3.0156
  162SOPE   C2618144   3.066   4.878   9.990 -0.6494  0.2708  0.0100
  162SOPE   H6R18145   3.172   4.857  10.014 -0.9861 -2.6373 -0.6534
  162SOPE   H6S18146   3.022   4.779   9.964 -0.1214  0.2289 -0.7536
  162SOPE   C2718147   3.055   4.974   9.869 -0.7625 -0.0295  0.6805
  162SOPE   H7R18148   2.951   4.988   9.832 -1.2987 -0.9451  1.7803
  162SOPE   H7S18149   3.093   5.072   9.904 -0.3078  0.3868 -0.8949
  162SOPE   C2818150   3.137   4.915   9.749 -0.3777 -0.2062  0.3276
  162SOPE   H8R18151   3.150   5.003   9.683  0.8068 -0.4653  0.1926
  162SOPE   H8S18152   3.241   4.892   9.779  0.1018  1.8176  0.3403
  162SOPE   C2918153   3.061   4.796   9.685  0.5089 -0.2630  0.9002
  162SOPE   H9118154   3.024   4.713   9.747  0.1364 -2.5965 -2.2182
  162SOPE  C21018155   3.028   4.796   9.555 -0.6382 -0.2630  0.0555
  162SOPE  H10118156   3.004   4.694   9.521  0.0004 -0.4538  0.1811
  162SOPE  C21118157   3.074   4.906   9.457 -0.1624 -0.0342  0.2755
  162SOPE  H11R18158   3.103   5.006   9.497 -3.3098  0.4804  1.5430
  162SOPE  H11S18159   2.994   4.926   9.382 -0.0946 -1.5294 -0.2363
  162SOPE  C21218160   3.194   4.867   9.371  0.4139  0.0487 -0.1134
  162SOPE  H12R18161   3.174   4.762   9.343 -4.4470 -0.3775  3.5812
  162SOPE  H12S18162   3.289   4.868   9.429  0.7077  0.8944 -0.5920
  162SOPE  C21318163   3.203   4.961   9.250 -0.6070 -0.3197 -0.2632
  162SOPE  H13R18164   3.224   5.063   9.287 -0.5448 -1.1646  2.1745
  162SOPE  H13S18165   3.100   4.968   9.208 -0.9793  0.1812  0.7112
  162SOPE  C21418166   3.298   4.917   9.139 -0.6882 -0.6498  0.3248
  162SOPE  H14R18167   3.262   4.816   9.113  0.8191 -0.7789 -1.4626
  162SOPE  H14S18168   3.399   4.908   9.184 -0.9437 -0.4463  0.9626
  162SOPE  C21518169   3.299   5.008   9.014 -0.7738 -0.2964 -0.1090
  162SOPE  H15R18170   3.380   5.082   9.035  1.7175 -2.2847 -2.1212
  162SOPE  H15S18171   3.198   5.053   9.018 -1.2272 -1.3057  0.1041
  162SOPE  C21618172   3.350   4.920   8.903  0.0157 -1.4294 -0.3038
  162SOPE  H16R18173   3.298   4.821   8.901 -5.6658  1.1397 -0.4705
  162SOPE  H16S18174   3.453   4.888   8.929 -0.3779 -2.2968  0.2257
  162SOPE  C21718175   3.346   4.991   8.763 -0.1474  0.4185  0.3140
  162SOPE  H17R18176   3.407   5.084   8.770  1.6437 -0.7642  1.1060
  162SOPE  H17S18177   3.237   5.009   8.749 -0.4884 -0.7046  1.3870
  162SOPE  C21818178   3.406   4.902   8.653 -0.9159  0.3338 -0.3198
  162SOPE  H18R18179   3.344   4.912   8.562 -0.9013 -0.8577 -0.4739
  162SOPE  H18S18180   3.395   4.795   8.682 -2.3683  0.0923 -1.6458
  162SOPE  H18T18181   3.510   4.934   8.631 -0.6443  0.3888  0.9660
  162SOPE   C3318182   3.428   4.724  10.103  0.0176 -0.9224 -0.8061
  162SOPE   H3X18183   3.537   4.732  10.121  0.0763  0.6667 -1.6655
  162SOPE   H3Y18184   3.387   4.825  10.121  2.2313 -0.0302 -0.4865
  162SOPE   C3418185   3.419   4.675   9.955 -0.3642 -0.2074  0.0031
  162SOPE   H4X18186   3.311   4.653   9.943  0.2743 -2.7043 -1.8579
  162SOPE   H4Y18187   3.474   4.579   9.946 -1.4854 -0.7631 -1.1529
  162SOPE   C3518188   3.473   4.769   9.856  0.4038 -0.3596 -0.5461
  162SOPE   H5X18189   3.582   4.766   9.880  0.4769  0.0222 -0.8268
  162SOPE   H5Y18190   3.445   4.872   9.886  2.3446  0.2140 -0.5470
  162SOPE   C3618191   3.468   4.726   9.715  0.7208 -0.7467  0.5384
  162SOPE   H6X18192   3.367   4.741   9.670  0.6853 -0.6550  0.6478
  162SOPE   H6Y18193   3.474   4.615   9.704 -1.6888 -0.8333 -0.5251
  162SOPE   C3718194   3.582   4.797   9.632  0.4886 -0.1855 -0.6047
  162SOPE   H7X18195   3.684   4.790   9.676  0.7355  1.6339 -0.8260
  162SOPE   H7Y18196   3.549   4.902   9.620  0.3746 -0.3692 -2.1965
  162SOPE   C3818197   3.587   4.736   9.484  0.3409 -0.0392 -0.0428
  162SOPE   H8X18198   3.484   4.727   9.442  1.2513 -0.3969 -2.3555
  162SOPE   H8Y18199   3.630   4.634   9.490 -2.2515 -1.2142  0.3562
  162SOPE   C3918200   3.669   4.809   9.376  0.0884 -0.1545 -0.2278
  162SOPE   H9X18201   3.772   4.817   9.416 -0.6016  0.1735  1.6300
  162SOPE   H9Y18202   3.616   4.907   9.376 -0.4120 -0.4190 -0.2727
  162SOPE  C31018203   3.654   4.733   9.243  0.2492 -0.5988  0.4134
  162SOPE  H10X18204   3.548   4.706   9.221  0.1205 -0.5641  0.9909
  162SOPE  H10Y18205   3.717   4.642   9.255 -1.0215 -1.2036  3.1602
  162SOPE  C31118206   3.713   4.800   9.115 -0.5853  0.4303  0.7308
  162SOPE  H11X18207   3.817   4.831   9.140  1.2471 -3.8515 -0.7217
  162SOPE  H11Y18208   3.649   4.885   9.087  0.1548  0.3967 -1.1719
  162SOPE  C31218209   3.720   4.701   8.991  0.2986  0.0380 -0.8696
  162SOPE  H12X18210   3.621   4.652   9.000 -0.4531  1.4077 -1.3260
  162SOPE  H12Y18211   3.794   4.622   9.015  0.1002 -0.2616 -1.2270
  162SOPE  C31318212   3.735   4.757   8.852  0.2621 -0.8513  0.5364
  162SOPE  H13X18213   3.841   4.788   8.836  0.4579 -0.9291  1.6246
  162SOPE  H13Y18214   3.671   4.847   8.842  0.5887 -0.5829  0.8538
  162SOPE  C31418215   3.709   4.666   8.737 -0.7425 -0.4198  0.1046
  162SOPE  H14X18216   3.697   4.723   8.643  2.3215  1.3376  0.6155
  162SOPE  H14Y18217   3.622   4.600   8.757 -0.0967 -1.5299 -0.6502
  162SOPE  C31518218   3.825   4.570   8.722 -0.0219  0.1666 -0.0394
  162SOPE  H15X18219   3.843   4.516   8.817  1.3789 -0.3289 -0.5735
  162SOPE  H15Y18220   3.910   4.637   8.700 -0.8435  1.0442 -0.6464
  162SOPE  C31618221   3.801   4.471   8.607 -0.0006 -0.3008 -0.3919
  162SOPE  H16X18222   3.773   4.535   8.521  0.1836  0.9595  0.4706
  162SOPE  H16Y18223   3.719   4.397   8.620  0.4752 -1.7679 -4.2816
  162SOPE  C31718224   3.929   4.391   8.577 -0.5929 -0.4927 -1.1426
  162SOPE  H17X18225   3.971   4.344   8.669  0.3514  1.4309 -0.5257
  162SOPE  H17Y18226   4.006   4.461   8.539  1.7975 -0.6289  2.8836
  162SOPE  C31818227   3.900   4.273   8.473 -0.3542  0.3038 -0.2300
  162SOPE  H18X18228   3.993   4.215   8.454  0.2997  0.5026  2.0788
  162SOPE  H18Y18229   3.864   4.315   8.376  0.4671 -2.8633 -2.0502
  162SOPE  H18Z18230   3.822   4.205   8.514 -0.5752  0.6409 -0.0855
  163SOPE     N18231   4.431   1.964  11.147 -0.1742 -0.1329 -0.7671
  163SOPE   HN118232   4.415   2.025  11.230 -1.2791 -0.9287 -0.3597
  163SOPE   HN218233   4.360   1.888  11.134  0.0619 -1.1473  2.7977
  163SOPE   HN318234   4.522   1.914  11.153 -0.0634  0.2369  1.3361
  163SOPE   C1218235   4.452   2.048  11.033  0.5701 -0.2912  0.2769
  163SOPE  H12A18236   4.515   2.136  11.060  2.1659 -1.7245  1.3942
  163SOPE  H12B18237   4.348   2.079  11.012  0.3570  0.2886  2.0882
  163SOPE   C1118238   4.503   1.974  10.907 -0.5221 -0.4764  0.2310
  163SOPE  H11A18239   4.492   2.041  10.819  0.8235 -0.2956  0.1783
  163SOPE  H11B18240   4.442   1.884  10.884 -0.8796 -0.1438 -0.1517
  163SOPE     P18241   4.754   2.019  10.912 -0.4641 -0.1612  0.0668
  163SOPE   O1318242   4.867   1.964  10.983  0.2663 -0.5007 -0.3998
  163SOPE   O1418243   4.714   2.152  10.959 -0.2422 -0.2639  0.0416
  163SOPE   O1218244   4.632   1.918  10.934 -0.4289 -0.5794 -0.2180
  163SOPE   O1118245   4.778   2.015  10.754 -0.8791 -0.8176 -0.3783
  163SOPE    C118246   4.902   2.082  10.712 -0.1898 -0.1295  0.6453
  163SOPE    HA18247   4.993   2.019  10.713 -0.1520 -0.0746  0.9760
  163SOPE    HB18248   4.921   2.177  10.768  0.2112 -1.3937  2.7835
  163SOPE    C218249   4.878   2.143  10.576  0.3351  0.6611  0.7321
  163SOPE    HS18250   4.805   2.227  10.587  0.0589  0.1797  3.0493
  163SOPE   O2118251   4.820   2.039  10.489 -0.3297 -0.3983  0.0053
  163SOPE   C2118252   4.742   2.090  10.399  0.8193  0.4022 -0.4054
  163SOPE   O2218253   4.711   2.208  10.382 -0.3245  0.1838  0.3376
  163SOPE   C2218254   4.684   1.976  10.309 -0.7224 -0.2930 -0.1686
  163SOPE   H2R18255   4.601   2.024  10.253 -1.6234  0.9731  2.1035
  163SOPE   H2S18256   4.650   1.890  10.370 -0.8034  0.5573  1.0197
  163SOPE    C318257   5.008   2.192  10.511 -0.1546  0.4805  0.2143
  163SOPE    HX18258   5.064   2.096  10.514 -0.2332  0.4640  1.3978
  163SOPE    HY18259   5.072   2.254  10.577 -1.3643  1.4708  0.4867
  163SOPE   O3118260   4.990   2.241  10.370  0.4139  0.0530 -0.1989
  163SOPE   C3118261   5.108   2.251  10.305  0.4925  0.5732  0.0480
  163SOPE   O3218262   5.216   2.229  10.352  0.1299  0.2655 -0.1943
  163SOPE   C3218263   5.081   2.289  10.164  0.4659  0.1120 -0.5107
  163SOPE   H2X18264   4.979   2.334  10.160  0.9788  1.3163 -0.2780
  163SOPE   H2Y18265   5.073   2.199  10.099 -3.8511 -0.2365  0.2014
  163SOPE   C2318266   4.789   1.932  10.203 -0.4529 -0.4358 -0.3572
  163SOPE   H3R18267   4.879   1.888  10.251 -1.4787  0.0034  2.0995
  163SOPE   H3S18268   4.827   2.016  10.141  1.0295 -0.4249  0.5227
  163SOPE   C2418269   4.741   1.827  10.096 -0.3641 -0.7002 -1.2493
  163SOPE   H4R18270   4.819   1.776  10.036  2.0492  0.8165  0.3833
  163SOPE   H4S18271   4.690   1.748  10.154  0.8445 -1.6855 -1.4938
  163SOPE   C2518272   4.628   1.888  10.010 -0.0356  0.7389  0.8932
  163SOPE   H5R18273   4.538   1.915  10.069  0.5407  1.0108  1.6746
  163SOPE   H5S18274   4.659   1.983   9.960 -0.3624  0.1551 -0.4518
  163SOPE   C2618275   4.579   1.789   9.913  0.0580 -0.0536  0.9275
  163SOPE   H6R18276   4.665   1.760   9.849 -0.3707  2.7031 -1.1001
  163SOPE   H6S18277   4.548   1.697   9.966 -1.5227  0.0115  0.1936
  163SOPE   C2718278   4.459   1.824   9.823 -0.7362  0.0109  0.4058
  163SOPE   H7R18279   4.367   1.842   9.883 -0.8654  0.9490 -0.0635
  163SOPE   H7S18280   4.486   1.918   9.770 -0.1070 -0.3545  0.0595
  163SOPE   C2818281   4.431   1.705   9.725  0.7800 -0.1251  0.4569
  163SOPE   H8R18282   4.406   1.619   9.791  2.3803 -1.0772 -0.1127
  163SOPE   H8S18283   4.339   1.725   9.667  2.5576  1.1766 -2.1045
  163SOPE   C2918284   4.537   1.660   9.625  0.7413  0.5880 -0.0728
  163SOPE   H9118285   4.597   1.571   9.651  0.8951  0.5548 -0.5317
  163SOPE  C21018286   4.552   1.712   9.503 -0.0854 -0.7217 -0.5375
  163SOPE  H10118287   4.640   1.680   9.444 -0.7204 -4.1516  0.1552
  163SOPE  C21118288   4.483   1.830   9.436  0.8250  0.2944 -0.0532
  163SOPE  H11R18289   4.415   1.868   9.516 -0.1949 -0.0209 -0.7532
  163SOPE  H11S18290   4.424   1.795   9.349  0.2454 -0.8182  0.7674
  163SOPE  C21218291   4.572   1.939   9.387 -0.2199 -0.2549  0.3025
  163SOPE  H12R18292   4.520   2.003   9.313 -0.1020  0.6345  0.9724
  163SOPE  H12S18293   4.647   1.883   9.326  1.2746  0.4530  1.4039
  163SOPE  C21318294   4.646   2.020   9.501 -0.5069 -0.4691 -0.0173
  163SOPE  H13R18295   4.708   2.096   9.450 -1.6292  1.5114  1.4471
  163SOPE  H13S18296   4.708   1.940   9.548 -1.0740 -1.1535 -0.4015
  163SOPE  C21418297   4.566   2.112   9.598 -0.1388  0.3662 -0.1755
  163SOPE  H14R18298   4.483   2.047   9.632  1.2740 -2.1601 -1.2489
  163SOPE  H14S18299   4.516   2.203   9.558  0.0509  0.8004  0.5578
  163SOPE  C21518300   4.652   2.161   9.712 -0.9035  0.9700  0.5488
  163SOPE  H15R18301   4.735   2.223   9.672 -1.4695  0.3703 -1.7472
  163SOPE  H15S18302   4.702   2.077   9.764  1.1102  1.9535  0.2826
  163SOPE  C21618303   4.572   2.229   9.815  0.5897 -0.1507  0.2316
  163SOPE  H16R18304   4.528   2.157   9.887  0.0686 -0.5550 -0.4765
  163SOPE  H16S18305   4.480   2.280   9.779 -0.4043 -1.9387  0.0859
  163SOPE  C21718306   4.646   2.341   9.887 -0.1458  0.0691  0.5782
  163SOPE  H17R18307   4.563   2.408   9.918 -0.4202  1.7974 -3.3761
  163SOPE  H17S18308   4.705   2.411   9.825  0.6313 -0.0037  1.2098
  163SOPE  C21818309   4.728   2.306  10.013 -0.1284 -0.1433  0.2250
  163SOPE  H18R18310   4.813   2.238   9.993 -0.3347 -0.8093  1.5217
  163SOPE  H18S18311   4.665   2.262  10.092  0.7855 -1.9783 -0.0244
  163SOPE  H18T18312   4.758   2.398  10.068  0.8985 -0.7745  0.7561
  163SOPE   C3318313   5.180   2.398  10.107 -0.1593  0.5781 -0.3932
  163SOPE   H3X18314   5.285   2.401  10.143 -1.2483  1.7229  3.0588
  163SOPE   H3Y18315   5.144   2.497  10.143 -0.1742 -0.1320  1.6240
  163SOPE   C3418316   5.185   2.388   9.957  0.1332 -0.1150 -0.4813
  163SOPE   H4X18317   5.213   2.285   9.926  1.0473 -0.9450  2.7003
  163SOPE   H4Y18318   5.269   2.459   9.937  0.7686  0.0194  2.2368
  163SOPE   C3518319   5.068   2.463   9.884  0.1078  0.2628 -0.0219
  163SOPE   H5X18320   5.061   2.562   9.933 -0.5748 -0.4456  1.3984
  163SOPE   H5Y18321   4.974   2.405   9.896 -0.1618  0.3823 -1.3864
  163SOPE   C3618322   5.094   2.475   9.732  0.4221  0.0004  0.4171
  163SOPE   H6X18323   5.162   2.391   9.704  0.5509  0.1222  0.3683
  163SOPE   H6Y18324   5.140   2.575   9.717  1.1056 -0.2970  0.4857
  163SOPE   C3718325   4.968   2.468   9.643  0.5732  0.2974 -0.0151
  163SOPE   H7X18326   4.890   2.537   9.682  1.5684  1.7300 -0.4850
  163SOPE   H7Y18327   4.923   2.367   9.651 -0.3870  0.5784 -1.4556
  163SOPE   C3818328   4.993   2.494   9.494  0.0156  0.4191 -0.1622
  163SOPE   H8X18329   5.054   2.412   9.449 -0.0116  0.6920 -0.7018
  163SOPE   H8Y18330   5.050   2.588   9.480  1.9769 -0.3464  1.9974
  163SOPE   C3918331   4.861   2.498   9.421 -0.2759  0.1651  0.0859
  163SOPE   H9X18332   4.812   2.591   9.457  0.8550  0.8673 -0.1374
  163SOPE   H9Y18333   4.797   2.410   9.442 -3.6704  2.0381 -1.5040
  163SOPE  C31018334   4.885   2.512   9.273 -0.1040  0.5541 -0.0240
  163SOPE  H10X18335   4.970   2.450   9.239 -0.7692 -0.1160 -0.5054
  163SOPE  H10Y18336   4.897   2.621   9.254  0.3252  1.0898  2.7698
  163SOPE  C31118337   4.772   2.453   9.183 -0.5566  0.6616 -0.0991
  163SOPE  H11X18338   4.668   2.489   9.194 -1.3116 -0.4960 -2.7452
  163SOPE  H11Y18339   4.767   2.346   9.209  1.8727  0.2845 -0.9433
  163SOPE  C31218340   4.792   2.490   9.035 -0.1083 -0.0853 -0.0333
  163SOPE  H12X18341   4.880   2.440   8.990 -0.6133  0.2235 -1.4086
  163SOPE  H12Y18342   4.810   2.599   9.031  1.1951 -0.3092 -0.8373
  163SOPE  C31318343   4.676   2.447   8.947  0.3135 -0.3039 -0.0375
  163SOPE  H13X18344   4.586   2.508   8.967  0.4845  0.0157 -0.2278
  163SOPE  H13Y18345   4.644   2.342   8.966  1.1142 -0.4591  0.4965
  163SOPE  C31418346   4.717   2.450   8.800  0.2431 -0.2976 -0.1418
  163SOPE  H14X18347   4.804   2.383   8.780  1.4630  0.4330  2.3335
  163SOPE  H14Y18348   4.756   2.552   8.780  0.3482 -0.4942 -0.9851
  163SOPE  C31518349   4.599   2.433   8.700  0.1290 -0.4288 -0.7610
  163SOPE  H15X18350   4.520   2.499   8.742  1.1642  1.1916 -1.2406
  163SOPE  H15Y18351   4.558   2.331   8.714 -0.1708 -0.3442 -1.0122
  163SOPE  C31618352   4.624   2.452   8.554 -0.0210 -0.1383  0.0863
  163SOPE  H16X18353   4.701   2.376   8.528 -0.5510 -0.5752 -0.2364
  163SOPE  H16Y18354   4.667   2.553   8.537 -1.2689  0.1966 -1.2432
  163SOPE  C31718355   4.501   2.434   8.461 -1.0088  0.3425  0.7194
  163SOPE  H17X18356   4.527   2.426   8.354 -0.2653 -0.9363  0.9712
  163SOPE  H17Y18357   4.441   2.525   8.479 -1.0694  0.4013  0.2210
  163SOPE  C31818358   4.410   2.319   8.499 -0.0746 -0.2885 -0.1249
  163SOPE  H18X18359   4.467   2.225   8.485 -1.4603 -1.3552  1.1140
  163SOPE  H18Y18360   4.328   2.319   8.423  1.7389 -2.8974 -2.2752
  163SOPE  H18Z18361   4.374   2.334   8.603  1.8053  0.6241  0.4378
  164SOPE     N18362   6.307   6.257  10.636 -0.4810  0.0267 -0.4072
  164SOPE   HN118363   6.210   6.224  10.619 -1.0002  2.1694 -2.0668
  164SOPE   HN218364   6.355   6.190  10.700 -1.1756 -1.1636 -1.0909
  164SOPE   HN318365   6.308   6.352  10.679 -0.2958  0.0077 -0.3684
  164SOPE   C1218366   6.378   6.258  10.504 -0.1455  0.4795  0.0499
  164SOPE  H12A18367   6.358   6.350  10.446 -1.4513 -1.3683 -2.6383
  164SOPE  H12B18368   6.344   6.167  10.449  1.7958 -1.6668  2.1751
  164SOPE   C1118369   6.529   6.227  10.526  0.2391  0.3796 -0.2669
  164SOPE  H11A18370   6.566   6.307  10.594 -0.9561  0.8691 -0.1724
  164SOPE  H11B18371   6.578   6.239  10.427 -0.7535  1.7514 -0.6318
  164SOPE     P18372   6.591   6.061  10.718  0.2945  0.2532  0.2770
  164SOPE   O1318373   6.490   6.124  10.810 -0.5404  0.6103  0.0369
  164SOPE   O1418374   6.728   6.096  10.742 -0.1318 -0.4565 -0.1294
  164SOPE   O1218375   6.549   6.098  10.574  0.1078  0.3725 -0.2265
  164SOPE   O1118376   6.584   5.899  10.712  0.0335  0.6603 -0.0275
  164SOPE    C118377   6.458   5.825  10.697  0.4254 -0.6688 -0.3079
  164SOPE    HA18378   6.370   5.892  10.698 -1.5623 -3.0715  2.4758
  164SOPE    HB18379   6.440   5.762  10.787  0.4471 -0.2599 -0.0173
  164SOPE    C218380   6.454   5.737  10.571  0.3022  0.0098 -0.2381
  164SOPE    HS18381   6.547   5.676  10.572 -0.7461 -1.6915  1.3093
  164SOPE   O2118382   6.437   5.835  10.459  0.0046  0.3274 -0.0457
  164SOPE   C2118383   6.543   5.849  10.385  0.0322 -0.8345 -0.2125
  164SOPE   O2218384   6.651   5.789  10.405  0.0452 -0.2519 -0.0176
  164SOPE   C2218385   6.510   5.955  10.276  0.1626 -0.3635 -0.7019
  164SOPE   H2R18386   6.539   6.059  10.305  1.1825 -0.5106 -1.1436
  164SOPE   H2S18387   6.399   5.953  10.271  0.1542  0.7737 -1.3918
  164SOPE    C318388   6.329   5.647  10.584 -0.4121  0.3406 -0.3209
  164SOPE    HX18389   6.242   5.713  10.605 -0.3318 -0.2414  2.1528
  164SOPE    HY18390   6.336   5.580  10.672  0.2265  0.1420 -0.5206
  164SOPE   O3118391   6.300   5.556  10.478  0.2579  0.3886  0.5883
  164SOPE   C3118392   6.382   5.447  10.456  0.5751 -0.7784 -0.4036
  164SOPE   O3218393   6.486   5.431  10.519 -0.3273  0.9937 -0.1801
  164SOPE   C3218394   6.297   5.347  10.381 -0.2133  0.4401  0.2646
  164SOPE   H2X18395   6.209   5.394  10.333  0.6038  2.1684  0.3758
  164SOPE   H2Y18396   6.241   5.296  10.463 -0.3955  1.6179  0.8998
  164SOPE   C2318397   6.580   5.921  10.143 -0.3589 -0.1707 -0.1515
  164SOPE   H3R18398   6.535   5.820  10.125 -1.7689  0.1368  1.4572
  164SOPE   H3S18399   6.690   5.918  10.153 -0.4240 -1.2062  0.3723
  164SOPE   C2418400   6.529   6.005  10.024 -0.3154  0.8669 -0.5436
  164SOPE   H4R18401   6.421   6.021  10.042 -0.1892  0.3261  0.8115
  164SOPE   H4S18402   6.578   6.105  10.034  1.5585  0.0635 -1.1228
  164SOPE   C2518403   6.575   5.953   9.885 -0.2457 -0.0448 -0.1785
  164SOPE   H5R18404   6.502   5.873   9.860 -1.3245  0.8033  0.1907
  164SOPE   H5S18405   6.562   6.035   9.811 -1.1942  0.7783  0.8779
  164SOPE   C2618406   6.719   5.896   9.875  0.3794 -0.1368 -0.3473
  164SOPE   H6R18407   6.796   5.973   9.895  0.9563 -0.7115 -0.3317
  164SOPE   H6S18408   6.743   5.817   9.950  0.9774  0.8948  0.5724
  164SOPE   C2718409   6.739   5.829   9.735  0.0433 -0.1141  0.3014
  164SOPE   H7R18410   6.839   5.782   9.738  0.4824  0.8206  0.6782
  164SOPE   H7S18411   6.678   5.737   9.722 -0.5923  0.3849 -0.3321
  164SOPE   C2818412   6.734   5.922   9.615  0.5340 -0.5238  0.3159
  164SOPE   H8R18413   6.633   5.956   9.586  1.0791  0.4993 -0.4650
  164SOPE   H8S18414   6.796   6.009   9.646 -0.8474  1.0781 -1.2420
  164SOPE   C2918415   6.798   5.858   9.494 -0.1603 -0.3670 -0.2052
  164SOPE   H9118416   6.906   5.840   9.504 -0.2257 -0.9097 -0.4273
  164SOPE  C21018417   6.729   5.823   9.380 -0.4162 -0.4161 -0.7511
  164SOPE  H10118418   6.791   5.764   9.311  1.2235 -1.8614  1.7756
  164SOPE  C21118419   6.578   5.835   9.355 -0.0197 -0.6211 -0.6827
  164SOPE  H11R18420   6.517   5.882   9.435  0.0768 -2.5104  0.5560
  164SOPE  H11S18421   6.536   5.732   9.356  1.5236 -1.2962  0.6190
  164SOPE  C21218422   6.543   5.919   9.225 -0.2982  0.5605 -0.1730
  164SOPE  H12R18423   6.590   6.017   9.245 -0.1354  0.1126  1.8756
  164SOPE  H12S18424   6.432   5.925   9.217 -0.2819  1.2943  0.0716
  164SOPE  C21318425   6.597   5.882   9.087  0.2069  0.1888 -0.5369
  164SOPE  H13R18426   6.570   5.777   9.061 -0.1379 -0.2702  1.4835
  164SOPE  H13S18427   6.707   5.889   9.097  0.2497 -1.3051  0.3647
  164SOPE  C21418428   6.555   5.988   8.982  0.5581  0.1433  1.2608
  164SOPE  H14R18429   6.603   6.083   9.015 -1.0403  0.6278  2.2616
  164SOPE  H14S18430   6.445   6.002   8.987  0.6976  1.4384  1.0209
  164SOPE  C21518431   6.597   5.929   8.852  0.2723 -0.2378  0.3024
  164SOPE  H15R18432   6.575   6.002   8.771  0.3207 -1.5751 -0.9407
  164SOPE  H15S18433   6.542   5.836   8.827 -0.0099 -0.3021  1.1437
  164SOPE  C21618434   6.744   5.893   8.822  0.5621  0.2869 -1.0614
  164SOPE  H16R18435   6.769   5.799   8.875 -0.6899 -0.5095 -1.8408
  164SOPE  H16S18436   6.813   5.975   8.853  2.4322 -1.8016  0.5980
  164SOPE  C21718437   6.782   5.874   8.675  0.0898  0.2400  0.6760
  164SOPE  H17R18438   6.892   5.858   8.679 -0.0506 -0.9128  0.4978
  164SOPE  H17S18439   6.763   5.966   8.615  2.6019  0.0221 -0.5689
  164SOPE  C21818440   6.712   5.760   8.598  0.6508 -0.5015  0.2799
  164SOPE  H18R18441   6.760   5.755   8.498 -0.9767 -2.5408 -0.4612
  164SOPE  H18S18442   6.605   5.784   8.585  0.3587 -1.9452 -0.2153
  164SOPE  H18T18443   6.734   5.655   8.630 -1.0978 -0.8991  0.2570
  164SOPE   C3318444   6.380   5.263  10.282 -0.1642  0.1184  0.6299
  164SOPE   H3X18445   6.332   5.171  10.243  1.2365 -0.6850  0.7443
  164SOPE   H3Y18446   6.476   5.231  10.326 -0.7914 -2.0149  0.5656
  164SOPE   C3418447   6.423   5.348  10.165  0.5153  0.5030  0.2622
  164SOPE   H4X18448   6.477   5.283  10.094  2.0019 -0.3136  2.0697
  164SOPE   H4Y18449   6.503   5.418  10.198  0.3438 -0.0633  1.9663
  164SOPE   C3518450   6.313   5.421  10.095  0.4924  0.5598 -0.5585
  164SOPE   H5X18451   6.273   5.502  10.158  0.0627  0.1604 -0.3100
  164SOPE   H5Y18452   6.232   5.346  10.103 -1.5931  2.5827 -1.5979
  164SOPE   C3618453   6.355   5.461   9.953  0.2041  0.3455 -0.4936
  164SOPE   H6X18454   6.404   5.372   9.908  1.1640  0.3559  0.4701
  164SOPE   H6Y18455   6.433   5.539   9.944  0.5280 -0.2282 -3.7608
  164SOPE   C3718456   6.232   5.501   9.866 -1.0121 -0.2856 -0.6851
  164SOPE   H7X18457   6.185   5.590   9.912  0.1647 -0.1445  0.3029
  164SOPE   H7Y18458   6.166   5.415   9.889  0.6068 -0.7057  3.2976
  164SOPE   C3818459   6.251   5.513   9.716 -1.0819  0.8098  0.2772
  164SOPE   H8X18460   6.273   5.415   9.668  0.7976  2.0968 -1.6479
  164SOPE   H8Y18461   6.335   5.582   9.697 -0.2147 -0.1971  0.3354
  164SOPE   C3918462   6.137   5.580   9.642 -0.0541 -0.4428  0.5158
  164SOPE   H9X18463   6.094   5.672   9.688 -0.5952 -0.3381 -0.1764
  164SOPE   H9Y18464   6.047   5.515   9.638 -0.4054 -0.0928  1.8889
  164SOPE  C31018465   6.176   5.619   9.494  0.5626 -0.0407  0.0382
  164SOPE  H10X18466   6.192   5.517   9.453  1.0110 -0.7686  1.8944
  164SOPE  H10Y18467   6.271   5.676   9.500 -0.4695  1.6297  2.2593
  164SOPE  C31118468   6.067   5.697   9.415  0.2340  0.0272  0.4595
  164SOPE  H11X18469   6.033   5.793   9.460 -0.6118  0.3269 -0.7630
  164SOPE  H11Y18470   5.978   5.630   9.414 -0.7723  1.3216  0.8130
  164SOPE  C31218471   6.091   5.705   9.265 -0.1904  0.2976  0.2214
  164SOPE  H12X18472   6.001   5.744   9.212 -0.0233 -1.6091 -1.6369
  164SOPE  H12Y18473   6.092   5.596   9.242 -0.4220 -0.2882  2.7376
  164SOPE  C31318474   6.216   5.768   9.209 -0.5516  0.0777 -0.0625
  164SOPE  H13X18475   6.303   5.707   9.240  0.0274  1.1672  0.4975
  164SOPE  H13Y18476   6.219   5.868   9.257 -0.6553 -0.3639  0.8965
  164SOPE  C31418477   6.227   5.802   9.057  0.3296  0.2405  0.5563
  164SOPE  H14X18478   6.327   5.845   9.034  0.4768 -0.1248  0.4961
  164SOPE  H14Y18479   6.159   5.889   9.046 -1.5159 -1.3533 -1.5747
  164SOPE  C31518480   6.192   5.681   8.955 -0.6854 -0.4970  0.0607
  164SOPE  H15X18481   6.087   5.653   8.978 -0.6512  0.1828  1.1281
  164SOPE  H15Y18482   6.262   5.597   8.973  0.4793  0.5166  0.4312
  164SOPE  C31618483   6.185   5.719   8.803 -0.6504 -0.2283 -0.2225
  164SOPE  H16X18484   6.140   5.634   8.747  1.3933  0.4394 -3.0681
  164SOPE  H16Y18485   6.289   5.728   8.765 -1.3657  2.9787 -1.7624
  164SOPE  C31718486   6.115   5.846   8.771  0.5665 -0.3883 -0.3010
  164SOPE  H17X18487   6.161   5.926   8.833  2.1942  1.6829 -3.8714
  164SOPE  H17Y18488   6.007   5.850   8.798  0.8327  0.9454  0.6765
  164SOPE  C31818489   6.132   5.876   8.623  0.4720 -0.4866 -0.1132
  164SOPE  H18X18490   6.038   5.912   8.576 -0.1220  1.5409  2.3840
  164SOPE  H18Y18491   6.163   5.791   8.558 -2.7165 -0.8699 -1.3147
  164SOPE  H18Z18492   6.204   5.961   8.614  0.4594 -0.4519  0.1186
  165SOPE     N18493   3.622   1.388  10.546 -0.4269  0.0953 -0.1507
  165SOPE   HN118494   3.700   1.340  10.594 -0.0804  1.8447  1.1621
  165SOPE   HN218495   3.536   1.330  10.556 -0.9240  0.8919  0.4157
  165SOPE   HN318496   3.655   1.403  10.449  0.9410  0.7394  0.3884
  165SOPE   C1218497   3.590   1.512  10.619  0.1524  0.6049 -0.2145
  165SOPE  H12A18498   3.590   1.502  10.730 -0.9675  1.3611 -0.1393
  165SOPE  H12B18499   3.490   1.544  10.584 -1.7756 -1.7344  2.6679
  165SOPE   C1118500   3.706   1.622  10.596 -0.5867 -0.2995  0.0265
  165SOPE  H11A18501   3.671   1.711  10.652 -1.3747 -1.3593  1.2651
  165SOPE  H11B18502   3.706   1.636  10.485 -1.0926 -0.7745 -0.0376
  165SOPE     P18503   3.956   1.660  10.663  0.1277 -0.1171 -0.5161
  165SOPE   O1318504   4.067   1.579  10.716 -0.7108  0.4684  0.5845
  165SOPE   O1418505   3.908   1.778  10.748 -0.6110 -0.5253  0.3834
  165SOPE   O1218506   3.834   1.566  10.635  0.1925 -0.3785  0.6283
  165SOPE   O1118507   3.979   1.710  10.519  0.1744 -0.1935 -0.0449
  165SOPE    C118508   4.034   1.620  10.421  0.0820  0.2003  0.2152
  165SOPE    HA18509   3.981   1.522  10.417  1.3600 -0.6100  1.9515
  165SOPE    HB18510   4.144   1.606  10.433 -0.2649 -1.7858  1.5808
  165SOPE    C218511   4.011   1.673  10.277 -0.0359  0.2217 -0.2642
  165SOPE    HS18512   4.057   1.775  10.275 -0.1276  0.2615 -1.1568
  165SOPE   O2118513   3.872   1.691  10.248 -0.1168  0.1013 -0.2515
  165SOPE   C2118514   3.824   1.820  10.260 -0.6033  0.6862  0.3881
  165SOPE   O2218515   3.889   1.921  10.275 -0.2719  0.0432 -0.3166
  165SOPE   C2218516   3.678   1.816  10.217  0.1884 -0.3977  0.5531
  165SOPE   H2R18517   3.639   1.920  10.220 -0.0224 -0.3730 -1.4448
  165SOPE   H2S18518   3.628   1.757  10.296  1.5775  0.2426  1.9641
  165SOPE    C318519   4.071   1.587  10.172  0.1480  0.4327  0.5790
  165SOPE    HX18520   4.075   1.484  10.213 -1.5002  0.5014  0.9745
  165SOPE    HY18521   4.178   1.614  10.157 -0.0859  0.0686 -2.5126
  165SOPE   O3118522   4.015   1.603  10.038 -0.0368 -0.6631  0.2077
  165SOPE   C3118523   4.095   1.571   9.938 -0.2196 -0.2237 -0.0038
  165SOPE   O3218524   4.200   1.506   9.952  0.3482 -0.9557  0.0538
  165SOPE   C3218525   4.023   1.605   9.807 -1.3497  0.0670  0.6744
  165SOPE   H2X18526   4.029   1.714   9.784 -1.4935 -0.1019 -0.2256
  165SOPE   H2Y18527   3.913   1.595   9.819 -1.4972  0.1268 -0.5189
  165SOPE   C2318528   3.657   1.759  10.079 -0.9293 -0.1910 -0.1843
  165SOPE   H3R18529   3.549   1.752  10.054 -1.0049  1.9954 -0.6650
  165SOPE   H3S18530   3.687   1.652  10.079 -2.2104 -0.6025  1.8828
  165SOPE   C2418531   3.727   1.834   9.961  0.3585 -0.6337 -0.3140
  165SOPE   H4R18532   3.694   1.940   9.955 -2.5118 -1.3906  0.5568
  165SOPE   H4S18533   3.838   1.831   9.971  0.1764 -1.3149  2.4240
  165SOPE   C2518534   3.690   1.778   9.825 -0.3774 -0.0265  0.7800
  165SOPE   H5R18535   3.719   1.670   9.827  0.5113  0.2050  0.8117
  165SOPE   H5S18536   3.579   1.780   9.825 -0.3934  0.1933  2.1767
  165SOPE   C2618537   3.723   1.861   9.700  0.4124  0.1081 -0.5219
  165SOPE   H6R18538   3.687   1.966   9.706  3.3007  1.1576  0.4878
  165SOPE   H6S18539   3.834   1.858   9.704  0.4278 -3.7400 -0.2320
  165SOPE   C2718540   3.674   1.794   9.568 -0.2067  0.3099  0.1671
  165SOPE   H7R18541   3.731   1.703   9.538  1.7403  1.4972  0.1225
  165SOPE   H7S18542   3.573   1.751   9.579  0.4987 -1.1037  1.4428
  165SOPE   C2818543   3.671   1.885   9.435 -0.4521  0.7418 -1.5048
  165SOPE   H8R18544   3.637   1.987   9.466  1.0396  0.4084  1.6332
  165SOPE   H8S18545   3.780   1.891   9.415  0.5867  0.0283  2.9043
  165SOPE   C2918546   3.588   1.825   9.325  0.0856 -0.7518 -0.7955
  165SOPE   H9118547   3.487   1.795   9.357 -0.8610  0.3721 -2.5646
  165SOPE  C21018548   3.630   1.784   9.211 -0.5267  0.1068 -0.4678
  165SOPE  H10118549   3.558   1.750   9.135 -0.0479 -0.8789 -0.4961
  165SOPE  C21118550   3.772   1.792   9.163  0.1504 -0.0912 -0.0713
  165SOPE  H11R18551   3.803   1.720   9.084  0.2655 -1.8268  1.4813
  165SOPE  H11S18552   3.836   1.762   9.249  0.3079  2.6752  0.8669
  165SOPE  C21218553   3.824   1.929   9.130 -0.1426 -0.3118 -0.0407
  165SOPE  H12R18554   3.832   1.994   9.220 -3.3062  1.1641 -0.6878
  165SOPE  H12S18555   3.754   1.993   9.072 -0.1549  0.6249  0.9645
  165SOPE  C21318556   3.953   1.934   9.041 -0.0356 -0.5394 -1.1678
  165SOPE  H13R18557   3.990   2.038   9.028  0.0533 -0.2803  0.8422
  165SOPE  H13S18558   3.919   1.887   8.946  1.3479 -1.3795 -1.2716
  165SOPE  C21418559   4.076   1.876   9.115  0.2159  0.0371 -0.1146
  165SOPE  H14R18560   4.054   1.769   9.139 -1.2020  0.6278  1.4305
  165SOPE  H14S18561   4.092   1.925   9.213  2.2495 -0.3291 -0.2170
  165SOPE  C21518562   4.211   1.883   9.041 -0.6262 -0.2237  0.9953
  165SOPE  H15R18563   4.202   1.831   8.943 -0.5851 -1.4193  1.6030
  165SOPE  H15S18564   4.276   1.812   9.097  0.7360  0.0272 -0.2019
  165SOPE  C21618565   4.275   2.025   9.039  0.4272  0.4781 -0.1881
  165SOPE  H16R18566   4.332   2.038   9.133  1.7644 -0.6275 -0.8042
  165SOPE  H16S18567   4.200   2.106   9.031  0.0076  0.6717  3.7500
  165SOPE  C21718568   4.387   2.057   8.929  0.3292  0.9035  0.1858
  165SOPE  H17R18569   4.444   1.961   8.927 -1.6329 -0.4569  2.8897
  165SOPE  H17S18570   4.453   2.138   8.966  1.3723  1.3148 -2.4007
  165SOPE  C21818571   4.331   2.088   8.792  0.1232  0.2558 -0.0174
  165SOPE  H18R18572   4.415   2.101   8.720  0.0981  0.7021  0.0350
  165SOPE  H18S18573   4.270   2.181   8.793  0.1391  0.2700  1.1750
  165SOPE  H18T18574   4.257   2.007   8.775  0.2638  0.1863 -0.3049
  165SOPE   C3318575   4.086   1.535   9.682 -0.1950  0.4703  0.0612
  165SOPE   H3X18576   4.059   1.429   9.665 -1.7930  1.1255 -1.9415
  165SOPE   H3Y18577   4.194   1.553   9.698 -0.0315  1.5685 -1.9611
  165SOPE   C3418578   4.050   1.605   9.549 -0.0664  0.1760 -0.5539
  165SOPE   H4X18579   4.050   1.715   9.560  0.6244 -0.0068  2.1820
  165SOPE   H4Y18580   3.947   1.576   9.519  0.0335  0.2883 -1.0140
  165SOPE   C3518581   4.144   1.577   9.434  0.3521 -0.1348  0.2306
  165SOPE   H5X18582   4.252   1.595   9.454  0.3938  0.7318 -0.6811
  165SOPE   H5Y18583   4.120   1.630   9.339  2.1389 -1.3746 -1.0007
  165SOPE   C3618584   4.140   1.426   9.388  0.0337  0.2502  0.1977
  165SOPE   H6X18585   4.168   1.356   9.469  1.6286 -0.8517 -1.2419
  165SOPE   H6Y18586   4.205   1.416   9.298  1.1196  0.5313  0.9265
  165SOPE   C3718587   4.003   1.388   9.327 -0.3832 -0.0953 -0.1206
  165SOPE   H7X18588   3.928   1.381   9.409  0.5376  1.3548  0.8961
  165SOPE   H7Y18589   4.004   1.280   9.301  1.1044 -0.2920  0.6501
  165SOPE   C3818590   3.961   1.473   9.200 -0.1230 -0.1756 -0.2685
  165SOPE   H8X18591   3.930   1.575   9.231 -0.6445 -1.0536  2.4147
  165SOPE   H8Y18592   3.873   1.430   9.147  0.4886  0.6595 -2.0358
  165SOPE   C3918593   4.075   1.488   9.086 -0.1572 -0.0165  0.0473
  165SOPE   H9X18594   4.120   1.386   9.086 -0.3232 -0.1150  1.4369
  165SOPE   H9Y18595   4.141   1.567   9.126 -1.7580  0.4083  2.0479
  165SOPE  C31018596   4.020   1.535   8.945  1.0214  0.3871 -0.2581
  165SOPE  H10X18597   4.104   1.556   8.875 -0.0295 -0.4875 -1.8510
  165SOPE  H10Y18598   3.958   1.627   8.945  0.2875 -0.0717 -1.8697
  165SOPE  C31118599   3.935   1.424   8.887 -0.0231 -0.7440  0.3506
  165SOPE  H11X18600   3.842   1.425   8.946  0.6470  2.2458  1.5335
  165SOPE  H11Y18601   3.992   1.328   8.891 -0.4157 -0.9546  0.9291
  165SOPE  C31218602   3.886   1.460   8.745  0.0848 -0.0388 -0.3990
  165SOPE  H12X18603   3.839   1.561   8.737 -0.5909 -0.3462 -0.4144
  165SOPE  H12Y18604   3.806   1.386   8.722 -0.1475  0.2369 -0.4969
  165SOPE  C31318605   3.997   1.436   8.643 -0.3288  0.0870  0.6360
  165SOPE  H13X18606   4.047   1.337   8.652 -1.1898 -0.3909  0.2313
  165SOPE  H13Y18607   4.074   1.514   8.663 -0.1847  0.5773 -1.6509
  165SOPE  C31418608   3.957   1.463   8.501 -0.4650  0.0545  0.0694
  165SOPE  H14X18609   4.056   1.464   8.450 -1.1825  0.9366 -1.3558
  165SOPE  H14Y18610   3.921   1.568   8.500 -0.3415  0.1921  2.4961
  165SOPE  C31518611   3.864   1.360   8.440  0.1453  0.0592  0.7692
  165SOPE  H15X18612   3.767   1.372   8.493  0.5352  0.5175  1.3820
  165SOPE  H15Y18613   3.897   1.255   8.454  0.1444  0.0543  0.7334
  165SOPE  C31618614   3.852   1.384   8.288 -0.6613 -0.1466  0.4058
  165SOPE  H16X18615   3.950   1.350   8.248 -0.8560  0.1714 -0.3623
  165SOPE  H16Y18616   3.839   1.490   8.260 -0.4314 -0.3500 -0.5042
  165SOPE  C31718617   3.745   1.301   8.225 -0.3061 -0.2203 -0.1308
  165SOPE  H17X18618   3.753   1.191   8.230 -0.1644 -0.1951  0.2207
  165SOPE  H17Y18619   3.757   1.311   8.115  0.4177 -2.2466 -0.2685
  165SOPE  C31818620   3.609   1.353   8.259 -0.7074  0.7310 -0.1833
  165SOPE  H18X18621   3.589   1.343   8.368  0.4106 -0.6444 -0.0848
  165SOPE  H18Y18622   3.527   1.293   8.213 -1.3285  1.2136  0.2713
  165SOPE  H18Z18623   3.586   1.455   8.223 -1.2127  0.6947  0.0261
  166SOPE     N18624   1.358   0.674  10.616  0.3990 -0.0518 -0.5647
  166SOPE   HN118625   1.389   0.590  10.562 -1.2861  0.1377 -1.9127
  166SOPE   HN218626   1.358   0.758  10.555 -0.8286 -1.2914 -2.4125
  166SOPE   HN318627   1.431   0.692  10.688  1.1084  0.7219 -1.4444
  166SOPE   C1218628   1.229   0.652  10.684 -0.5176  0.0745  0.3721
  166SOPE  H12A18629   1.242   0.573  10.761 -0.5562 -1.2166 -0.9040
  166SOPE  H12B18630   1.154   0.617  10.610 -0.1994 -2.5584  1.1703
  166SOPE   C1118631   1.180   0.782  10.757 -0.2861 -0.5545 -0.0310
  166SOPE  H11A18632   1.246   0.800  10.845 -1.3403  0.7067  0.5523
  166SOPE  H11B18633   1.077   0.760  10.793 -1.4702 -1.0853 -3.3931
  166SOPE     P18634   1.103   1.020  10.705 -0.2296 -0.2424  0.4309
  166SOPE   O1318635   1.117   1.125  10.604 -0.1432 -0.5128  0.4840
  166SOPE   O1418636   1.136   1.055  10.846 -0.3521 -0.1395  0.7331
  166SOPE   O1218637   1.189   0.893  10.667 -0.1753 -0.7854  0.9157
  166SOPE   O1118638   0.952   0.957  10.712 -0.6572 -0.3576  0.2245
  166SOPE    C118639   0.910   0.861  10.612  0.3678  0.3876  0.4869
  166SOPE    HA18640   0.861   0.778  10.668 -0.5975  1.5085  1.3452
  166SOPE    HB18641   0.996   0.813  10.560 -0.3396 -2.2143  1.5302
  166SOPE    C218642   0.804   0.930  10.521 -0.5697  0.1495  0.0975
  166SOPE    HS18643   0.764   0.853  10.452 -2.0911 -0.4815  1.6192
  166SOPE   O2118644   0.866   1.039  10.458 -0.1877 -0.3836  0.7576
  166SOPE   C2118645   0.943   1.005  10.355  0.6496 -0.1101  0.0679
  166SOPE   O2218646   0.975   0.892  10.330 -0.2928  0.3280  0.6312
  166SOPE   C2218647   0.988   1.139  10.279  0.0472  0.0062  0.4910
  166SOPE   H2R18648   1.066   1.183  10.345 -0.6934  0.1643  1.2701
  166SOPE   H2S18649   0.898   1.201  10.262  0.5964  0.6732 -0.0472
  166SOPE    C318650   0.692   0.981  10.605  0.0116 -0.1941 -0.2886
  166SOPE    HX18651   0.732   1.063  10.669 -1.1444 -0.5529  0.9343
  166SOPE    HY18652   0.667   0.895  10.670  2.5793 -1.3492 -0.7071
  166SOPE   O3118653   0.578   1.011  10.523  0.4283  0.1721 -0.7304
  166SOPE   C3118654   0.467   1.041  10.592  0.0452 -0.1934 -0.6227
  166SOPE   O3218655   0.470   1.062  10.710 -0.3023  0.4375 -0.6199
  166SOPE   C3218656   0.343   1.059  10.496  0.0326  0.5714 -0.3705
  166SOPE   H2X18657   0.336   0.966  10.437 -2.5232 -0.0156  0.7209
  166SOPE   H2Y18658   0.372   1.136  10.421 -1.2942  1.0920 -0.3847
  166SOPE   C2318659   1.056   1.115  10.138 -0.1841  0.8248  0.0898
  166SOPE   H3R18660   1.131   1.034  10.132  0.7706  1.3359  3.3187
  166SOPE   H3S18661   1.109   1.211  10.120 -0.0429  0.9509  1.1485
  166SOPE   C2418662   0.944   1.086  10.027  0.4162 -0.0297 -0.5978
  166SOPE   H4R18663   0.892   0.993  10.060  0.4940 -0.0060 -0.4121
  166SOPE   H4S18664   0.867   1.166  10.031  0.0017 -0.4317 -0.4941
  166SOPE   C2518665   1.000   1.075   9.880  0.0676  0.2346  0.6497
  166SOPE   H5R18666   1.067   1.161   9.861  0.0764  0.3076  0.9964
  166SOPE   H5S18667   1.060   0.982   9.876  1.5135  1.1036  1.2749
  166SOPE   C2618668   0.900   1.072   9.763  0.6130 -0.0713  0.2143
  166SOPE   H6R18669   0.844   0.976   9.766 -0.2898  0.4185 -0.5644
  166SOPE   H6S18670   0.838   1.162   9.785  1.4324  0.3017  1.1114
  166SOPE   C2718671   0.973   1.083   9.633 -0.1767 -0.4054  0.0503
  166SOPE   H7R18672   1.017   1.184   9.642  0.5645 -0.7259  0.0677
  166SOPE   H7S18673   1.058   1.011   9.626  0.0452 -0.3164  1.5128
  166SOPE   C2818674   0.867   1.075   9.519 -0.8262 -0.1539  0.0865
  166SOPE   H8R18675   0.768   1.114   9.550 -0.9208  0.3196 -0.7986
  166SOPE   H8S18676   0.909   1.146   9.445  1.9351  0.8878  2.4666
  166SOPE   C2918677   0.874   0.940   9.457  0.3596  0.0300  0.3912
  166SOPE   H9118678   0.977   0.921   9.426  0.8406  0.0732  1.8857
  166SOPE  C21018679   0.778   0.843   9.448  0.0495 -0.0272 -0.7941
  166SOPE  H10118680   0.798   0.754   9.387  2.4078  0.6999 -1.1705
  166SOPE  C21118681   0.639   0.861   9.505 -0.1181  0.4503  0.5877
  166SOPE  H11R18682   0.634   0.929   9.593 -4.3141  0.4562  0.5208
  166SOPE  H11S18683   0.584   0.770   9.536 -4.0478  1.7264 -1.8441
  166SOPE  C21218684   0.538   0.926   9.404  0.5895 -0.1831 -0.5817
  166SOPE  H12R18685   0.578   1.013   9.348 -0.6841  1.7566  1.3900
  166SOPE  H12S18686   0.454   0.968   9.462  1.7244  0.6944  0.4702
  166SOPE  C21318687   0.502   0.828   9.290  1.3126  0.2916  0.1026
  166SOPE  H13R18688   0.433   0.751   9.330  0.1475  0.7142 -1.0294
  166SOPE  H13S18689   0.586   0.784   9.232  1.9350  3.3980 -1.5493
  166SOPE  C21418690   0.418   0.898   9.180  0.5798  0.1757 -0.1575
  166SOPE  H14R18691   0.462   0.998   9.160  1.4251 -0.4584 -1.5869
  166SOPE  H14S18692   0.318   0.926   9.220  0.3534 -1.8098  0.7527
  166SOPE  C21518693   0.393   0.815   9.047  0.1744  0.3371  0.3704
  166SOPE  H15R18694   0.370   0.708   9.062  0.3118  0.2731  0.1272
  166SOPE  H15S18695   0.495   0.823   9.004 -0.0386  1.8831  0.0834
  166SOPE  C21618696   0.310   0.883   8.946 -0.4187 -0.9822 -0.2189
  166SOPE  H16R18697   0.308   0.842   8.843 -0.8670 -0.6395 -0.3474
  166SOPE  H16S18698   0.335   0.991   8.953  0.5463 -1.2460  0.7897
  166SOPE  C21718699   0.163   0.867   8.982  0.6028  0.4808 -0.1588
  166SOPE  H17R18700   0.144   0.904   9.085  0.7381 -0.6273  0.2807
  166SOPE  H17S18701   0.132   0.761   8.971 -0.7514  0.9414 -0.9934
  166SOPE  C21818702   0.067   0.942   8.884 -0.5501  0.3879  0.7265
  166SOPE  H18R18703  -0.036   0.931   8.925 -0.0326 -1.4543  1.6554
  166SOPE  H18S18704   0.082   0.906   8.780  3.4312  0.6755  1.0591
  166SOPE  H18T18705   0.090   1.051   8.891  1.0415  0.2472 -1.3608
  166SOPE   C3318706   0.209   1.094  10.562 -0.5939 -0.2289 -1.0292
  166SOPE   H3X18707   0.227   1.180  10.629  1.7390 -2.1148  0.9742
  166SOPE   H3Y18708   0.172   1.005  10.618  1.0562 -1.2951 -1.5411
  166SOPE   C3418709   0.108   1.128  10.449 -0.3713  0.6042 -0.9467
  166SOPE   H4X18710   0.118   1.049  10.372 -0.3377 -0.4509  0.1161
  166SOPE   H4Y18711   0.140   1.222  10.399  2.1184  0.8602  0.9062
  166SOPE   C3518712  -0.039   1.117  10.493  0.2394  0.3816  0.6790
  166SOPE   H5X18713  -0.058   1.210  10.552  1.6057  1.0518  0.0982
  166SOPE   H5Y18714  -0.051   1.021  10.548 -3.3308  0.3985  0.1666
  166SOPE   C3618715  -0.129   1.110  10.367  0.3286  0.0237  0.1732
  166SOPE   H6X18716  -0.127   1.006  10.328 -0.0913 -0.0484  0.3425
  166SOPE   H6Y18717  -0.076   1.175  10.294 -0.3953  1.4506  0.8743
  166SOPE   C3718718  -0.279   1.152  10.395 -0.0622 -0.5815  0.7447
  166SOPE   H7X18719  -0.277   1.260  10.419 -0.3110 -0.5629  0.6809
  166SOPE   H7Y18720  -0.302   1.103  10.492 -0.3904 -0.0873  0.9183
  166SOPE   C3818721  -0.376   1.113  10.278 -0.3032 -0.9462 -0.2482
  166SOPE   H8X18722  -0.484   1.125  10.303 -0.8851 -2.0712 -2.0191
  166SOPE   H8Y18723  -0.352   1.009  10.247 -0.0768 -0.5444 -1.4493
  166SOPE   C3918724  -0.356   1.205  10.155 -0.0937 -0.0273 -0.5039
  166SOPE   H9X18725  -0.251   1.200  10.118  0.2197  0.6509  0.2578
  166SOPE   H9Y18726  -0.372   1.308  10.194 -0.9218 -0.3664  0.0731
  166SOPE  C31018727  -0.449   1.168  10.036  0.1466  0.1569  0.3696
  166SOPE  H10X18728  -0.558   1.180  10.048 -1.0546 -2.2655 -5.0293
  166SOPE  H10Y18729  -0.421   1.064  10.010  1.7409  0.7897 -0.6136
  166SOPE  C31118730  -0.416   1.250   9.913  0.6973  0.4531 -0.0934
  166SOPE  H11X18731  -0.308   1.248   9.886  0.5514 -0.4817 -0.6096
  166SOPE  H11Y18732  -0.452   1.355   9.919 -1.6416 -0.2610 -0.6042
  166SOPE  C31218733  -0.477   1.185   9.783  0.5312  0.4820 -0.6075
  166SOPE  H12X18734  -0.584   1.212   9.795  0.7414  1.0273  0.0793
  166SOPE  H12Y18735  -0.459   1.076   9.782 -0.8152  0.2352 -0.3380
  166SOPE  C31318736  -0.425   1.244   9.657  0.4820  0.6013  0.4638
  166SOPE  H13X18737  -0.326   1.199   9.632  0.5415 -0.2388  2.0956
  166SOPE  H13Y18738  -0.406   1.354   9.660  2.3256  0.3838 -1.0063
  166SOPE  C31418739  -0.512   1.213   9.532  0.1141 -0.4965  0.9452
  166SOPE  H14X18740  -0.446   1.229   9.444 -0.2638  0.2919  0.7991
  166SOPE  H14Y18741  -0.593   1.289   9.529 -0.9016 -1.3009  4.1140
  166SOPE  C31518742  -0.574   1.070   9.525 -0.0186 -0.2393 -0.3633
  166SOPE  H15X18743  -0.649   1.053   9.605  0.6843  0.6518  0.5104
  166SOPE  H15Y18744  -0.492   0.998   9.545 -0.4187 -1.2558 -2.1819
  166SOPE  C31618745  -0.658   1.038   9.397  0.5190 -0.3498  0.1385
  166SOPE  H16X18746  -0.750   1.099   9.399  1.5248  1.4683  4.9926
  166SOPE  H16Y18747  -0.694   0.933   9.402  1.6464 -0.8288 -1.1442
  166SOPE  C31718748  -0.591   1.070   9.269 -0.3789  0.7770  0.4845
  166SOPE  H17X18749  -0.483   1.049   9.283  0.3897  2.3288 -2.3675
  166SOPE  H17Y18750  -0.594   1.180   9.253 -4.6070  0.4624 -2.3676
  166SOPE  C31818751  -0.648   1.004   9.146  0.8491  0.6220  0.3902
  166SOPE  H18X18752  -0.758   0.998   9.159  1.0465  0.3939  2.1819
  166SOPE  H18Y18753  -0.602   0.907   9.117 -0.2338  0.6750 -1.6422
  166SOPE  H18Z18754  -0.637   1.075   9.061  1.5314 -0.0388 -0.0862
  167SOPE     N18755   3.952   5.490   5.865 -0.3884  0.0898  0.3186
  167SOPE   HN118756   4.008   5.443   5.939 -2.8188  0.0343  2.2229
  167SOPE   HN218757   3.951   5.424   5.784  3.1370 -0.6790  0.7440
  167SOPE   HN318758   3.997   5.577   5.831 -0.8307  0.1079 -0.2491
  167SOPE   C1218759   3.813   5.510   5.917  0.2826  0.4858 -0.3169
  167SOPE  H12A18760   3.770   5.408   5.925  0.4135  0.3637 -1.0902
  167SOPE  H12B18761   3.761   5.580   5.848  0.4630  0.9877  0.0520
  167SOPE   C1118762   3.820   5.587   6.052 -0.2692 -0.0138  0.5048
  167SOPE  H11A18763   3.880   5.519   6.115  0.5380  0.4926  0.3004
  167SOPE  H11B18764   3.715   5.588   6.087 -0.4696  1.0147 -0.0845
  167SOPE     P18765   3.932   5.789   6.157 -0.1589 -0.1413 -0.1594
  167SOPE   O1318766   3.889   5.933   6.156  0.2335 -0.3600  0.7788
  167SOPE   O1418767   4.078   5.751   6.174  0.1122  0.5127  0.2935
  167SOPE   O1218768   3.874   5.719   6.029  0.2449  0.2352  0.1038
  167SOPE   O1118769   3.858   5.728   6.284  0.0544  0.1249  0.1945
  167SOPE    C118770   3.718   5.748   6.313  0.0159  0.7831  0.1490
  167SOPE    HA18771   3.660   5.657   6.285  2.1537 -0.3814 -0.6771
  167SOPE    HB18772   3.684   5.842   6.264  0.9971  1.2511  0.3581
  167SOPE    C218773   3.694   5.789   6.466 -0.0185  0.0787 -1.3217
  167SOPE    HS18774   3.723   5.895   6.483  2.3722 -0.7485  0.2495
  167SOPE   O2118775   3.762   5.697   6.548  0.6267  0.3403 -0.4930
  167SOPE   C2118776   3.874   5.747   6.605 -0.1104 -0.1979 -0.2285
  167SOPE   O2218777   3.920   5.855   6.580 -0.3372 -0.3836  0.2477
  167SOPE   C2218778   3.946   5.640   6.683 -0.1348  0.4032  0.0343
  167SOPE   H2R18779   4.057   5.632   6.678 -0.2008 -0.7801  0.1672
  167SOPE   H2S18780   3.916   5.541   6.643  0.0685  0.7067 -0.8947
  167SOPE    C318781   3.545   5.776   6.514 -0.1037  1.4538  0.3069
  167SOPE    HX18782   3.526   5.669   6.494  0.5245  1.5312 -0.7910
  167SOPE    HY18783   3.477   5.840   6.453 -2.3213 -1.7351 -0.8529
  167SOPE   O3118784   3.520   5.799   6.653 -0.4592  0.2691 -0.1180
  167SOPE   C3118785   3.537   5.923   6.700 -0.0236  0.7565  0.1555
  167SOPE   O3218786   3.577   6.019   6.641 -0.8530  0.1072  0.5592
  167SOPE   C3218787   3.476   5.933   6.841  0.0913 -0.2687  0.0539
  167SOPE   H2X18788   3.384   5.989   6.815  1.3220  1.8926  0.1234
  167SOPE   H2Y18789   3.538   6.010   6.892  1.0839 -0.9066 -0.1619
  167SOPE   C2318790   3.892   5.633   6.827  0.1492  0.5314 -0.2804
  167SOPE   H3R18791   3.939   5.543   6.873  0.0065  1.0361  0.8947
  167SOPE   H3S18792   3.783   5.613   6.831  0.2215  0.2774  0.8161
  167SOPE   C2418793   3.925   5.747   6.921 -0.9739 -0.4980 -0.5166
  167SOPE   H4R18794   4.035   5.746   6.932 -0.9824 -0.9724 -0.4748
  167SOPE   H4S18795   3.887   5.846   6.888  0.4879 -0.8110 -3.4936
  167SOPE   C2518796   3.891   5.720   7.067  0.4364 -0.2676  0.3065
  167SOPE   H5R18797   3.782   5.702   7.081  0.7630 -1.3552  1.7387
  167SOPE   H5S18798   3.933   5.624   7.103  0.6905  0.0894  0.9958
  167SOPE   C2618799   3.934   5.829   7.169 -0.1012 -0.2091 -0.2949
  167SOPE   H6R18800   4.039   5.810   7.200 -0.2047 -1.4902 -0.6449
  167SOPE   H6S18801   3.916   5.931   7.128  0.7747  0.6007  1.2518
  167SOPE   C2718802   3.851   5.824   7.297 -0.1657 -0.0786  0.4378
  167SOPE   H7R18803   3.890   5.912   7.353  0.8670 -0.5818  0.5162
  167SOPE   H7S18804   3.746   5.857   7.279 -0.2321 -0.6161 -0.1713
  167SOPE   C2818805   3.865   5.701   7.383 -0.3913 -0.2160  0.2381
  167SOPE   H8R18806   3.776   5.690   7.448 -1.3527  1.2587 -0.7724
  167SOPE   H8S18807   3.858   5.612   7.316  0.7733 -0.6366  0.6372
  167SOPE   C2918808   4.002   5.695   7.447 -0.0031  0.0380 -0.0394
  167SOPE   H9118809   4.088   5.707   7.379 -0.0544  3.4462  0.3131
  167SOPE  C21018810   4.023   5.674   7.577  0.2608  0.1495 -0.5845
  167SOPE  H10118811   4.130   5.672   7.604  0.7405 -0.9324 -2.3855
  167SOPE  C21118812   3.923   5.633   7.683 -0.0478  0.4433 -0.4384
  167SOPE  H11R18813   3.819   5.645   7.646 -1.0155  0.6571  2.1200
  167SOPE  H11S18814   3.923   5.699   7.773  0.3915 -1.3494  0.9449
  167SOPE  C21218815   3.951   5.495   7.739  0.4925  0.6272  0.1507
  167SOPE  H12R18816   3.945   5.418   7.659 -1.1522  1.2216 -0.3537
  167SOPE  H12S18817   3.871   5.480   7.815  1.1889  4.0175  1.7467
  167SOPE  C21318818   4.085   5.477   7.820  0.0167  0.1736  0.0450
  167SOPE  H13R18819   4.166   5.474   7.743 -2.5997 -1.7299 -2.8861
  167SOPE  H13S18820   4.078   5.382   7.878 -1.2641  0.3210  0.1568
  167SOPE  C21418821   4.122   5.600   7.909 -0.6034  0.6291  1.0481
  167SOPE  H14R18822   4.122   5.691   7.847 -3.3017  0.5181  0.8059
  167SOPE  H14S18823   4.224   5.594   7.955 -0.9017  0.7761  1.7421
  167SOPE  C21518824   4.019   5.619   8.019 -0.2910  0.2943  0.7944
  167SOPE  H15R18825   3.999   5.516   8.056  0.1478 -0.0253  0.1600
  167SOPE  H15S18826   3.929   5.660   7.968  1.4814  0.6694 -2.2467
  167SOPE  C21618827   4.050   5.714   8.129 -0.1200 -0.8167  0.4744
  167SOPE  H16R18828   3.976   5.709   8.212  1.5804 -1.2184  2.0184
  167SOPE  H16S18829   4.061   5.817   8.089  1.6404 -0.7797  1.0058
  167SOPE  C21718830   4.180   5.670   8.210  0.0544 -0.3734  0.4339
  167SOPE  H17R18831   4.270   5.658   8.145  0.0615  1.6473 -0.0121
  167SOPE  H17S18832   4.161   5.570   8.253 -2.0926  0.9412  2.8307
  167SOPE  C21818833   4.219   5.759   8.323  0.2157  0.3779  0.4333
  167SOPE  H18R18834   4.322   5.734   8.357 -0.5534 -0.3842  2.3159
  167SOPE  H18S18835   4.150   5.746   8.409 -1.3866 -0.8144 -0.9651
  167SOPE  H18T18836   4.207   5.864   8.288 -2.8496 -0.4113 -1.2368
  167SOPE   C3318837   3.465   5.806   6.930 -0.1428  0.0427  0.7321
  167SOPE   H3X18838   3.556   5.744   6.923 -0.5021 -0.5066  0.8849
  167SOPE   H3Y18839   3.383   5.749   6.880  0.6154  1.4947 -2.4427
  167SOPE   C3418840   3.449   5.843   7.073  0.1097 -0.0131  0.0122
  167SOPE   H4X18841   3.349   5.889   7.088 -1.0660 -2.7073  1.0946
  167SOPE   H4Y18842   3.526   5.916   7.105 -1.3892  0.6980  2.2669
  167SOPE   C3518843   3.463   5.718   7.163  0.3636  0.1882  1.0732
  167SOPE   H5X18844   3.564   5.671   7.152  0.2433 -0.5066  2.6580
  167SOPE   H5Y18845   3.384   5.642   7.145  1.7168 -0.9129 -0.5028
  167SOPE   C3618846   3.463   5.762   7.311 -0.6663 -0.1327 -0.3171
  167SOPE   H6X18847   3.372   5.816   7.343 -0.7954 -0.2289 -0.5139
  167SOPE   H6Y18848   3.546   5.832   7.328 -1.1293  1.1874 -2.8944
  167SOPE   C3718849   3.485   5.650   7.409  0.5945 -0.0524 -0.2030
  167SOPE   H7X18850   3.580   5.599   7.381  0.9102  0.7927 -0.6841
  167SOPE   H7Y18851   3.398   5.582   7.404  0.9848 -0.9506  2.7752
  167SOPE   C3818852   3.489   5.703   7.559  0.1730 -0.0386  0.2799
  167SOPE   H8X18853   3.392   5.756   7.561 -1.1311 -2.3273  1.2343
  167SOPE   H8Y18854   3.569   5.780   7.574 -2.0712  2.4441  0.3063
  167SOPE   C3918855   3.493   5.591   7.658 -0.0394 -0.0980 -0.1804
  167SOPE   H9X18856   3.589   5.539   7.636  0.4066 -0.2380  1.9377
  167SOPE   H9Y18857   3.410   5.519   7.638  1.0581 -1.3857 -0.2445
  167SOPE  C31018858   3.490   5.637   7.801  0.0515  0.3915 -0.1858
  167SOPE  H10X18859   3.393   5.676   7.838 -0.3104 -1.3379  0.8008
  167SOPE  H10Y18860   3.565   5.718   7.816 -0.0043  0.3733  0.1943
  167SOPE  C31118861   3.540   5.526   7.896 -0.0848  0.2778 -0.3506
  167SOPE  H11X18862   3.628   5.481   7.844  0.8835  2.8233 -1.0294
  167SOPE  H11Y18863   3.463   5.447   7.907  0.1580  0.0886  0.0567
  167SOPE  C31218864   3.585   5.571   8.035  0.6957 -0.0119 -0.5051
  167SOPE  H12X18865   3.504   5.601   8.105  1.5083 -1.2444  1.0160
  167SOPE  H12Y18866   3.640   5.665   8.018 -0.5933  0.5486 -1.8094
  167SOPE  C31318867   3.675   5.465   8.097  0.0738  0.9222 -0.5071
  167SOPE  H13X18868   3.756   5.434   8.028 -1.1104 -1.3072 -0.9868
  167SOPE  H13Y18869   3.609   5.377   8.110 -0.8461  1.5601 -0.6814
  167SOPE  C31418870   3.736   5.498   8.237  0.5354  0.1112 -0.0078
  167SOPE  H14X18871   3.650   5.503   8.307  1.3008  1.8688  0.8923
  167SOPE  H14Y18872   3.788   5.597   8.237  0.9498 -0.1009 -0.3867
  167SOPE  C31518873   3.845   5.396   8.283 -0.5372 -0.2105  0.2277
  167SOPE  H15X18874   3.914   5.404   8.196  1.9349 -1.4621  1.9618
  167SOPE  H15Y18875   3.808   5.292   8.295  0.0803 -0.3649  0.8457
  167SOPE  C31618876   3.911   5.443   8.415  0.3267  0.0905  0.4608
  167SOPE  H16X18877   3.832   5.433   8.492  1.4980  2.2344  2.0395
  167SOPE  H16Y18878   3.948   5.548   8.410 -0.1863  0.5026  3.4546
  167SOPE  C31718879   4.026   5.349   8.452  0.2713  0.5806 -0.5329
  167SOPE  H17X18880   4.105   5.344   8.374  0.6316 -1.9601 -0.0633
  167SOPE  H17Y18881   3.979   5.249   8.463 -3.0037  1.8707 -1.3681
  167SOPE  C31818882   4.082   5.384   8.595 -0.6443  0.5795 -0.3477
  167SOPE  H18X18883   3.997   5.401   8.665 -0.5389 -0.7803  0.1515
  167SOPE  H18Y18884   4.145   5.470   8.567  0.2398 -0.3910 -1.4315
  167SOPE  H18Z18885   4.144   5.306   8.644 -0.0556  2.1530  1.5087
  168SOPE     N18886   3.081   3.452   6.044 -0.1870 -0.2994 -0.3462
  168SOPE   HN118887   2.983   3.418   6.050 -0.5898  0.9778  1.1073
  168SOPE   HN218888   3.109   3.438   5.945 -2.1821 -2.8970 -0.6555
  168SOPE   HN318889   3.146   3.393   6.101 -0.4295  0.5271  0.8330
  168SOPE   C1218890   3.092   3.597   6.088  0.4511 -0.3330 -0.3716
  168SOPE  H12A18891   3.049   3.660   6.007  0.3168  0.2374  0.1410
  168SOPE  H12B18892   3.201   3.617   6.095  0.1598  1.9263 -1.4182
  168SOPE   C1118893   3.010   3.610   6.218 -0.0116 -0.7191 -0.6239
  168SOPE  H11A18894   3.040   3.704   6.268 -1.4410 -1.8399  2.6473
  168SOPE  H11B18895   3.049   3.523   6.275  1.2388 -1.3835 -2.3868
  168SOPE     P18896   2.777   3.539   6.313  0.1612  0.0367 -0.2614
  168SOPE   O1318897   2.704   3.417   6.275  0.1111 -0.2017  0.6340
  168SOPE   O1418898   2.689   3.650   6.365  0.3295 -0.4675 -0.3309
  168SOPE   O1218899   2.865   3.586   6.192  0.4769  0.7128 -0.1929
  168SOPE   O1118900   2.871   3.502   6.436  0.2700  0.4779 -0.7832
  168SOPE    C118901   2.889   3.370   6.496  0.1419  0.0232 -0.7489
  168SOPE    HA18902   2.985   3.371   6.552 -0.2568 -0.5682 -0.0470
  168SOPE    HB18903   2.902   3.299   6.412  1.3706 -1.1882  0.4113
  168SOPE    C218904   2.765   3.314   6.565  0.1371 -0.1494  0.2494
  168SOPE    HS18905   2.676   3.361   6.517  0.8687  1.0928  0.0483
  168SOPE   O2118906   2.762   3.341   6.712 -0.2594  0.3091  0.0836
  168SOPE   C2118907   2.648   3.324   6.764 -0.2015  0.1509 -0.4781
  168SOPE   O2218908   2.548   3.295   6.697 -0.4025 -0.4621  0.3097
  168SOPE   C2218909   2.653   3.345   6.911 -0.0098 -0.4676  0.0654
  168SOPE   H2R18910   2.688   3.450   6.927  0.5751 -0.0654 -3.1436
  168SOPE   H2S18911   2.724   3.274   6.957 -0.0366 -0.6516 -0.1751
  168SOPE    C318912   2.756   3.162   6.537  0.3737  0.2329 -0.1852
  168SOPE    HX18913   2.742   3.142   6.428  0.6202 -4.4405  0.4121
  168SOPE    HY18914   2.665   3.118   6.584  2.4406 -4.4836 -0.0710
  168SOPE   O3118915   2.874   3.093   6.572 -0.2405 -0.2650 -0.2435
  168SOPE   C3118916   2.861   2.963   6.567 -0.3278  0.1741 -0.0506
  168SOPE   O3218917   2.770   2.900   6.518 -0.3378 -0.3079 -0.2075
  168SOPE   C3218918   2.982   2.892   6.639  0.6565  0.2372 -0.2030
  168SOPE   H2X18919   3.069   2.896   6.570  1.5406 -1.9171  0.6920
  168SOPE   H2Y18920   2.958   2.787   6.666 -2.0543  0.7431 -0.3729
  168SOPE   C2318921   2.518   3.327   6.990 -0.1421  1.2065  0.0518
  168SOPE   H3R18922   2.466   3.234   6.958  1.0480  0.8147 -0.7932
  168SOPE   H3S18923   2.438   3.400   6.966 -0.9487  0.5012  0.5076
  168SOPE   C2418924   2.541   3.306   7.143 -0.4504  0.0490 -0.2866
  168SOPE   H4R18925   2.619   3.228   7.149  0.1163  0.6365  0.1483
  168SOPE   H4S18926   2.584   3.400   7.183  2.4436 -2.0778  2.0189
  168SOPE   C2518927   2.405   3.267   7.211 -0.3279  0.2099  0.0969
  168SOPE   H5R18928   2.331   3.349   7.200  0.0816  1.2068  3.5485
  168SOPE   H5S18929   2.357   3.176   7.168  2.1877 -2.1612  1.9559
  168SOPE   C2618930   2.427   3.235   7.357  0.7896  0.6547 -0.7960
  168SOPE   H6R18931   2.517   3.170   7.363  1.1687  1.1980 -0.5432
  168SOPE   H6S18932   2.448   3.325   7.418  0.4817  0.1068  0.1441
  168SOPE   C2718933   2.301   3.148   7.419  0.1239  0.7805 -0.5931
  168SOPE   H7R18934   2.211   3.214   7.424  1.8586  3.1920  2.1402
  168SOPE   H7S18935   2.283   3.062   7.351  0.7279 -0.1103  0.3528
  168SOPE   C2818936   2.330   3.101   7.565 -0.3286 -0.6900 -0.4999
  168SOPE   H8R18937   2.256   3.022   7.591  0.2116 -1.4844 -1.3258
  168SOPE   H8S18938   2.432   3.058   7.574  0.1569  0.0403 -2.1329
  168SOPE   C2918939   2.305   3.218   7.667  0.1867  0.2099  0.2055
  168SOPE   H9118940   2.255   3.307   7.626 -0.3448 -0.3303 -0.3474
  168SOPE  C21018941   2.344   3.210   7.800 -0.0251 -0.2304  0.0320
  168SOPE  H10118942   2.324   3.290   7.873  0.8561 -1.0945  1.2794
  168SOPE  C21118943   2.409   3.086   7.859 -0.2997  0.2308  0.1166
  168SOPE  H11R18944   2.518   3.083   7.837 -0.2788  2.0910 -0.2165
  168SOPE  H11S18945   2.367   2.996   7.809  0.2137 -0.7916  1.4772
  168SOPE  C21218946   2.374   3.074   8.006  0.4767 -0.4184 -0.1308
  168SOPE  H12R18947   2.270   3.106   8.026  0.6022  0.1019 -0.2708
  168SOPE  H12S18948   2.429   3.153   8.063 -0.5889 -0.4849  1.0368
  168SOPE  C21318949   2.391   2.935   8.061  0.4338 -0.4774 -0.2191
  168SOPE  H13R18950   2.469   2.869   8.017  0.6427  0.5576 -1.4410
  168SOPE  H13S18951   2.293   2.885   8.042 -0.1499 -0.0864  1.5651
  168SOPE  C21418952   2.407   2.947   8.214  0.1288  0.2980 -0.2722
  168SOPE  H14R18953   2.319   3.001   8.254 -2.0712 -3.3223  0.2337
  168SOPE  H14S18954   2.504   2.994   8.240 -0.4562  0.6048  1.4600
  168SOPE  C21518955   2.405   2.803   8.266 -0.2835  0.0979 -0.0423
  168SOPE  H15R18956   2.503   2.753   8.246  0.0756  1.5934 -2.5820
  168SOPE  H15S18957   2.320   2.748   8.220 -0.5403  0.9937 -0.6840
  168SOPE  C21618958   2.380   2.802   8.416  0.2241 -0.1196  0.0723
  168SOPE  H16R18959   2.288   2.858   8.443 -0.5813 -1.0795 -0.5926
  168SOPE  H16S18960   2.457   2.854   8.477  0.3046 -2.1479  1.8430
  168SOPE  C21718961   2.340   2.663   8.465 -0.1796  0.2348  0.6029
  168SOPE  H17R18962   2.394   2.585   8.408 -1.1565 -0.0450  0.0416
  168SOPE  H17S18963   2.232   2.649   8.442 -0.0427  0.1303  0.0097
  168SOPE  C21818964   2.360   2.643   8.617 -0.4100 -0.3719 -0.6109
  168SOPE  H18R18965   2.467   2.635   8.643  0.7335  3.8570 -2.9720
  168SOPE  H18S18966   2.311   2.550   8.653 -0.3468 -0.7503 -1.4822
  168SOPE  H18T18967   2.308   2.727   8.669  0.2433 -0.2091 -0.2137
  168SOPE   C3318968   3.035   2.946   6.777  1.0841  0.0621 -0.4406
  168SOPE   H3X18969   3.063   3.053   6.764 -1.0697  0.6870 -0.4237
  168SOPE   H3Y18970   3.122   2.884   6.805 -0.4789 -1.1187  2.1799
  168SOPE   C3418971   2.926   2.949   6.885  0.3346 -0.3829 -0.2270
  168SOPE   H4X18972   2.874   2.851   6.892  0.7505 -0.5651  0.4082
  168SOPE   H4Y18973   2.840   3.011   6.852 -2.1297 -2.7726  1.3094
  168SOPE   C3518974   2.973   2.994   7.020  0.5234 -0.6669  0.2179
  168SOPE   H5X18975   3.019   3.093   7.002 -2.3231  0.9399  1.0502
  168SOPE   H5Y18976   3.049   2.918   7.047 -0.0005 -0.7163  1.6792
  168SOPE   C3618977   2.868   2.996   7.129  0.8557  0.3778 -0.1469
  168SOPE   H6X18978   2.834   2.895   7.158  4.4014 -0.8445  0.2079
  168SOPE   H6Y18979   2.781   3.057   7.096  0.2427 -0.7816 -0.7227
  168SOPE   C3718980   2.918   3.081   7.253 -0.0076 -0.1554  0.7177
  168SOPE   H7X18981   2.962   3.176   7.217  0.8151 -0.5835  0.5622
  168SOPE   H7Y18982   2.998   3.027   7.308 -0.1296  0.0309  1.0798
  168SOPE   C3818983   2.807   3.100   7.353 -0.5584 -0.1499  0.2778
  168SOPE   H8X18984   2.768   2.999   7.376  1.4696 -0.9901  0.2543
  168SOPE   H8Y18985   2.736   3.165   7.298 -0.3342  0.4471  0.6770
  168SOPE   C3918986   2.858   3.174   7.476 -0.0894 -0.4089  0.0087
  168SOPE   H9X18987   2.918   3.265   7.456  1.6285 -1.0056  2.0602
  168SOPE   H9Y18988   2.933   3.107   7.522  0.1590  0.9260  1.6580
  168SOPE  C31018989   2.747   3.218   7.572  0.2132  0.3918 -0.2254
  168SOPE  H10X18990   2.682   3.131   7.596 -0.7128  0.3951 -2.5015
  168SOPE  H10Y18991   2.675   3.283   7.518 -0.8307  1.4044  2.2147
  168SOPE  C31118992   2.791   3.295   7.698 -0.1547  0.4885 -0.2795
  168SOPE  H11X18993   2.799   3.405   7.685 -1.7661  0.8614  1.5090
  168SOPE  H11Y18994   2.883   3.248   7.740 -2.2212 -1.8999  1.9536
  168SOPE  C31218995   2.697   3.274   7.806  0.9578  0.4504 -0.0330
  168SOPE  H12X18996   2.716   3.171   7.841  0.8137 -0.0406 -1.3182
  168SOPE  H12Y18997   2.600   3.290   7.753 -0.4884 -0.6023  2.1561
  168SOPE  C31318998   2.725   3.371   7.922 -0.3113  0.6434 -0.7054
  168SOPE  H13X18999   2.714   3.477   7.890  1.9389  1.5451  1.1848
  168SOPE  H13Y19000   2.833   3.376   7.948 -0.2912 -1.1511 -0.3170
  168SOPE  C31419001   2.640   3.346   8.049 -0.0187 -0.1123 -0.3977
  168SOPE  H14X19002   2.652   3.237   8.070 -0.9321 -0.0817  0.3479
  168SOPE  H14Y19003   2.534   3.373   8.029 -0.7376  0.7526  3.7335
  168SOPE  C31519004   2.684   3.428   8.168  0.1707 -0.8302  0.2440
  168SOPE  H15X19005   2.707   3.531   8.135  2.5504 -1.1063  0.9247
  168SOPE  H15Y19006   2.771   3.388   8.224 -0.0066  0.1578  1.2455
  168SOPE  C31619007   2.571   3.409   8.280 -0.0862 -0.2529  0.0556
  168SOPE  H16X19008   2.472   3.439   8.240  0.7556  2.5954 -0.1101
  168SOPE  H16Y19009   2.600   3.475   8.364 -1.0958 -0.6916  0.7619
  168SOPE  C31719010   2.549   3.263   8.329 -0.8196  0.4708  0.6412
  168SOPE  H17X19011   2.642   3.222   8.373  0.6227  1.9394 -0.8803
  168SOPE  H17Y19012   2.524   3.195   8.245  1.4870 -0.9798  1.0488
  168SOPE  C31819013   2.447   3.255   8.448  0.0602  0.0691  0.6743
  168SOPE  H18X19014   2.493   3.319   8.526 -0.1462  0.6930  0.2950
  168SOPE  H18Y19015   2.443   3.152   8.489  2.1705 -0.1536  0.4242
  168SOPE  H18Z19016   2.347   3.290   8.415 -0.1010 -0.5835  0.4493
  169SOPE     N19017   6.686   4.373   6.593 -0.3265  0.3706 -0.1718
  169SOPE   HN119018   6.640   4.455   6.548  0.8839  1.0442 -0.2260
  169SOPE   HN219019   6.752   4.399   6.669 -0.3825 -0.7274  0.2675
  169SOPE   HN319020   6.742   4.335   6.514 -1.5056 -0.5393 -0.5891
  169SOPE   C1219021   6.576   4.283   6.645 -0.8281 -0.4593  0.4596
  169SOPE  H12A19022   6.519   4.333   6.726  0.1422  0.6660  0.4826
  169SOPE  H12B19023   6.626   4.189   6.675  1.7968 -0.2934 -2.7103
  169SOPE   C1119024   6.474   4.260   6.530 -0.3273 -0.5171 -0.4171
  169SOPE  H11A19025   6.395   4.202   6.582 -0.2044  0.2081  0.6058
  169SOPE  H11B19026   6.515   4.202   6.445 -1.8131 -2.2925  0.0187
  169SOPE     P19027   6.272   4.394   6.443  0.3961 -0.2037  0.4042
  169SOPE   O1319028   6.215   4.267   6.395 -0.2117 -0.5121  0.5353
  169SOPE   O1419029   6.244   4.507   6.358 -0.0498 -0.2284  0.4797
  169SOPE   O1219030   6.426   4.378   6.476  0.2648 -0.2897  0.3878
  169SOPE   O1119031   6.203   4.415   6.581 -0.2298 -0.1244 -0.4010
  169SOPE    C119032   6.237   4.528   6.669  0.4822 -0.2610 -0.1589
  169SOPE    HA19033   6.187   4.615   6.622 -0.7111  0.4304  2.2580
  169SOPE    HB19034   6.344   4.554   6.674  0.1359  1.2348 -0.1027
  169SOPE    C219035   6.185   4.499   6.809  0.2666  0.1450 -0.6901
  169SOPE    HS19036   6.093   4.438   6.806  0.9498 -1.0226  0.7494
  169SOPE   O2119037   6.148   4.621   6.862 -0.2197 -0.7784  0.2829
  169SOPE   C2119038   6.017   4.643   6.872 -1.2310  0.5677 -0.4099
  169SOPE   O2219039   5.928   4.564   6.859  0.0431  0.2921  0.4684
  169SOPE   C2219040   5.997   4.788   6.911  0.8385  0.1128  0.0974
  169SOPE   H2R19041   5.982   4.850   6.819  0.0072 -0.1761  0.0295
  169SOPE   H2S19042   6.079   4.833   6.972  0.3305 -0.1905  1.0123
  169SOPE    C319043   6.285   4.421   6.895  0.1338 -0.2196  0.3831
  169SOPE    HX19044   6.360   4.500   6.917  2.4705 -1.9755 -0.7318
  169SOPE    HY19045   6.341   4.347   6.833  3.9537  0.0823  3.1204
  169SOPE   O3119046   6.229   4.372   7.016 -0.2002  0.1736 -1.0720
  169SOPE   C3119047   6.178   4.253   7.023 -0.1438  0.2312  0.0276
  169SOPE   O3219048   6.188   4.170   6.931  0.0700 -0.9888 -0.8038
  169SOPE   C3219049   6.100   4.225   7.154  0.3116 -0.2872 -0.1447
  169SOPE   H2X19050   6.048   4.321   7.173 -0.4542 -0.2417 -2.2152
  169SOPE   H2Y19051   6.171   4.213   7.239  2.2692  0.0980 -1.6491
  169SOPE   C2319052   5.861   4.796   7.003 -0.4129  0.8779 -0.0212
  169SOPE   H3R19053   5.782   4.758   6.936  0.4461 -0.0265 -0.5559
  169SOPE   H3S19054   5.848   4.905   7.022 -1.4458  0.8805 -0.6883
  169SOPE   C2419055   5.871   4.719   7.137 -0.0577  0.5870 -0.7390
  169SOPE   H4R19056   5.876   4.611   7.112  2.8241  1.0731 -2.6653
  169SOPE   H4S19057   5.960   4.752   7.194 -0.6213  1.6501 -0.4354
  169SOPE   C2519058   5.743   4.732   7.229 -0.3571 -0.6574 -0.3154
  169SOPE   H5R19059   5.743   4.839   7.259 -1.4276 -0.8007  0.2505
  169SOPE   H5S19060   5.653   4.710   7.167 -1.1220  0.3331  0.4056
  169SOPE   C2619061   5.752   4.649   7.356 -0.3251  0.2281  0.0832
  169SOPE   H6R19062   5.778   4.544   7.334 -0.6596 -0.3370  2.1193
  169SOPE   H6S19063   5.835   4.698   7.411 -0.2430 -1.3735  1.4625
  169SOPE   C2719064   5.630   4.658   7.449  0.1621  0.6275 -0.2728
  169SOPE   H7R19065   5.597   4.763   7.461  0.1190  0.5208  0.6133
  169SOPE   H7S19066   5.543   4.611   7.397 -3.4238  3.5461  2.5455
  169SOPE   C2819067   5.667   4.582   7.581 -0.3221 -0.2328 -0.1577
  169SOPE   H8R19068   5.578   4.539   7.632 -0.8406  0.9642 -0.0245
  169SOPE   H8S19069   5.739   4.500   7.560  1.0487  0.9908 -0.4246
  169SOPE   C2919070   5.733   4.673   7.684  0.5267 -0.3171 -0.0345
  169SOPE   H9119071   5.789   4.756   7.637 -2.9409  2.2643 -0.0903
  169SOPE  C21019072   5.751   4.660   7.816  0.1072 -0.5286  0.3377
  169SOPE  H10119073   5.815   4.739   7.859  1.4406 -0.7342 -1.1866
  169SOPE  C21119074   5.699   4.557   7.897  0.2373  0.3629  0.2587
  169SOPE  H11R19075   5.778   4.511   7.960  0.1568 -0.8902 -0.4994
  169SOPE  H11S19076   5.660   4.474   7.834 -0.1370 -1.0105  2.1794
  169SOPE  C21219077   5.572   4.596   7.983 -0.3652  0.4943  1.0511
  169SOPE  H12R19078   5.522   4.507   8.027 -1.3491  0.2343 -0.5274
  169SOPE  H12S19079   5.500   4.648   7.917 -0.4596  1.8196  2.1526
  169SOPE  C21319080   5.594   4.705   8.093 -1.0937  1.0230  0.5825
  169SOPE  H13R19081   5.499   4.735   8.141 -1.0630  3.3533 -0.7180
  169SOPE  H13S19082   5.645   4.796   8.055  0.5459 -0.9241 -2.2701
  169SOPE  C21419083   5.683   4.657   8.206  0.2043 -0.1555 -0.6586
  169SOPE  H14R19084   5.761   4.589   8.167  0.1156 -1.3914  1.2014
  169SOPE  H14S19085   5.614   4.593   8.266  2.6374 -1.2449  1.1358
  169SOPE  C21519086   5.750   4.773   8.285  0.1499 -0.0249  0.3837
  169SOPE  H15R19087   5.674   4.842   8.327 -1.4355 -2.2578  1.4142
  169SOPE  H15S19088   5.816   4.833   8.220  0.3135 -0.3094  0.2838
  169SOPE  C21619089   5.823   4.728   8.414 -0.0003  0.5875  0.2920
  169SOPE  H16R19090   5.922   4.691   8.380 -0.5188 -0.1379 -0.4636
  169SOPE  H16S19091   5.764   4.645   8.458 -0.4379 -0.6754 -2.4710
  169SOPE  C21719092   5.865   4.838   8.520  0.5254  0.0631  0.2939
  169SOPE  H17R19093   5.912   4.789   8.608  0.5280  0.2032  0.3703
  169SOPE  H17S19094   5.775   4.889   8.561 -0.8883  0.1286 -2.6293
  169SOPE  C21819095   5.969   4.942   8.471 -0.2507 -0.1851  0.3075
  169SOPE  H18R19096   6.066   4.901   8.438 -1.0934 -1.6695 -0.4042
  169SOPE  H18S19097   5.997   5.025   8.541 -0.8591  1.9487 -1.8450
  169SOPE  H18T19098   5.931   5.003   8.386 -0.7763 -1.3265 -0.3011
  169SOPE   C3319099   5.996   4.112   7.143 -0.9607 -0.0477 -0.2504
  169SOPE   H3X19100   6.057   4.020   7.139  1.1516  1.2626  0.0211
  169SOPE   H3Y19101   5.938   4.119   7.048 -0.1504  0.2099 -0.7375
  169SOPE   C3419102   5.890   4.116   7.256  0.3752  0.2574  1.3825
  169SOPE   H4X19103   5.816   4.035   7.241 -1.3238  1.4932  2.6152
  169SOPE   H4Y19104   5.832   4.211   7.253 -0.7569 -0.4170  1.3313
  169SOPE   C3519105   5.950   4.106   7.393 -0.0178 -0.2983 -0.4525
  169SOPE   H5X19106   6.026   4.181   7.420  0.6722 -1.4863  1.1216
  169SOPE   H5Y19107   6.009   4.012   7.398  1.8021  0.8169  3.1295
  169SOPE   C3619108   5.840   4.098   7.496 -0.6805 -0.1993 -0.0698
  169SOPE   H6X19109   5.786   4.002   7.481  0.8503 -0.7993 -2.2792
  169SOPE   H6Y19110   5.783   4.188   7.464  1.4565  0.8582 -1.0928
  169SOPE   C3719111   5.895   4.118   7.637 -0.1012  0.6814  0.7613
  169SOPE   H7X19112   5.799   4.132   7.689 -0.1304 -1.6659  1.4325
  169SOPE   H7Y19113   5.965   4.200   7.665  0.5375  0.8171 -1.0780
  169SOPE   C3819114   5.957   3.987   7.690  0.3102  0.1781 -0.1931
  169SOPE   H8X19115   5.900   3.896   7.663  0.4022 -0.9598  3.0432
  169SOPE   H8Y19116   6.059   3.979   7.646  0.3403  1.3743 -0.4014
  169SOPE   C3919117   5.976   3.999   7.842 -0.1654  0.1532 -0.0014
  169SOPE   H9X19118   5.873   4.009   7.884 -1.8758 -1.5219 -3.4071
  169SOPE   H9Y19119   6.028   4.090   7.878  1.8590 -0.5903 -0.8910
  169SOPE  C31019120   6.054   3.880   7.895 -0.2994  0.6365 -0.6310
  169SOPE  H10X19121   6.152   3.878   7.843 -1.2470  2.3233 -2.6100
  169SOPE  H10Y19122   6.013   3.784   7.859  2.7021 -1.8375  1.9015
  169SOPE  C31119123   6.075   3.899   8.044 -1.3888  0.3137 -0.7586
  169SOPE  H11X19124   5.979   3.900   8.099  1.0756 -0.7413  4.0771
  169SOPE  H11Y19125   6.114   4.001   8.064 -2.1354  0.3964  0.3314
  169SOPE  C31219126   6.166   3.793   8.103 -0.1327 -0.0613  0.2308
  169SOPE  H12X19127   6.274   3.819   8.094  0.1210 -1.0195  0.3628
  169SOPE  H12Y19128   6.154   3.705   8.036  2.3875  0.6221 -1.2868
  169SOPE  C31319129   6.146   3.754   8.247  0.1398 -0.3542 -0.1821
  169SOPE  H13X19130   6.045   3.710   8.261  0.7921 -2.4056 -1.5701
  169SOPE  H13Y19131   6.141   3.847   8.308 -0.0122 -0.1536 -0.4951
  169SOPE  C31419132   6.249   3.657   8.305 -0.5805  0.4135 -0.8723
  169SOPE  H14X19133   6.257   3.679   8.413 -1.6436  0.8472 -0.8660
  169SOPE  H14Y19134   6.347   3.668   8.254  1.3982 -1.4097  2.2268
  169SOPE  C31519135   6.202   3.512   8.293 -0.4976 -0.7318  0.2094
  169SOPE  H15X19136   6.188   3.489   8.186  0.1381 -0.0817 -0.0161
  169SOPE  H15Y19137   6.111   3.505   8.358  0.0452  1.6491  1.3552
  169SOPE  C31619138   6.303   3.411   8.326 -0.0555 -0.3063 -0.1077
  169SOPE  H16X19139   6.340   3.435   8.429 -0.9358 -1.6205  0.5408
  169SOPE  H16Y19140   6.396   3.423   8.267  0.0914  0.6116  0.2889
  169SOPE  C31719141   6.242   3.275   8.326  0.0181  0.4548 -0.3551
  169SOPE  H17X19142   6.189   3.243   8.233 -0.6194 -0.8855  0.4373
  169SOPE  H17Y19143   6.161   3.289   8.400 -0.8359 -1.8605 -0.7455
  169SOPE  C31819144   6.352   3.176   8.376  0.4440 -0.0989  0.2154
  169SOPE  H18X19145   6.357   3.200   8.484 -2.4489  1.7505  0.0471
  169SOPE  H18Y19146   6.449   3.196   8.326 -0.2767 -0.6499 -1.4778
  169SOPE  H18Z19147   6.335   3.067   8.360  0.1287  0.1708 -1.5067
  170SOPE     N19148   6.195   2.303   6.619  0.3990 -0.4310 -0.4423
  170SOPE   HN119149   6.215   2.210   6.576  0.3516 -0.6935  0.0983
  170SOPE   HN219150   6.213   2.384   6.557 -0.1819 -1.0883 -1.5022
  170SOPE   HN319151   6.242   2.322   6.710 -1.2781  1.6577  0.0460
  170SOPE   C1219152   6.055   2.308   6.675  0.6554  0.1506 -0.0967
  170SOPE  H12A19153   6.044   2.399   6.737  0.8125  0.6801 -0.8425
  170SOPE  H12B19154   6.051   2.224   6.748 -1.1655  0.7058  0.4997
  170SOPE   C1119155   5.954   2.286   6.562 -0.2765  0.6061  0.6597
  170SOPE  H11A19156   5.984   2.352   6.478 -0.6684 -1.3924 -1.1415
  170SOPE  H11B19157   5.849   2.310   6.591 -2.0434 -4.4099 -0.6274
  170SOPE     P19158   5.850   2.115   6.401 -0.0675 -0.0610 -0.2085
  170SOPE   O1319159   5.824   1.968   6.400  0.2269  0.0074  0.1118
  170SOPE   O1419160   5.901   2.173   6.278  0.0198  0.5080  0.1915
  170SOPE   O1219161   5.955   2.147   6.516 -0.1222 -0.2302 -0.3558
  170SOPE   O1119162   5.727   2.197   6.441 -0.1878 -0.1558 -0.0578
  170SOPE    C119163   5.597   2.134   6.465 -0.3583 -0.3887 -0.1465
  170SOPE    HA19164   5.576   2.047   6.398 -1.0560 -1.3948  1.3329
  170SOPE    HB19165   5.519   2.204   6.429  0.1071  0.5381  0.5996
  170SOPE    C219166   5.575   2.096   6.611 -0.2643 -0.1024 -0.1228
  170SOPE    HS19167   5.468   2.073   6.629 -0.6517  0.3045 -1.7281
  170SOPE   O2119168   5.621   2.195   6.697 -0.5446 -0.2977 -0.1039
  170SOPE   C2119169   5.564   2.315   6.686 -0.3963  0.3206  0.1191
  170SOPE   O2219170   5.462   2.335   6.622 -0.8535 -0.0980 -0.3767
  170SOPE   C2219171   5.630   2.415   6.771  0.0145 -0.1102  0.1140
  170SOPE   H2R19172   5.592   2.514   6.738 -0.9553 -0.6793 -0.5333
  170SOPE   H2S19173   5.739   2.398   6.760 -0.4369 -3.7853 -0.0995
  170SOPE    C319174   5.650   1.958   6.651  0.0423 -0.2796  0.3697
  170SOPE    HX19175   5.758   1.981   6.657 -0.0036 -0.1261  0.6262
  170SOPE    HY19176   5.629   1.888   6.567  0.6233 -2.7297  2.1587
  170SOPE   O3119177   5.617   1.896   6.775 -0.2382 -0.2110 -0.4959
  170SOPE   C3119178   5.498   1.865   6.785  0.4541 -0.3342 -0.3289
  170SOPE   O3219179   5.414   1.857   6.697  0.4507  0.0852  0.0740
  170SOPE   C3219180   5.467   1.840   6.940  0.0785  0.7768  0.2062
  170SOPE   H2X19181   5.493   1.935   6.993  0.8427  0.9864 -0.5188
  170SOPE   H2Y19182   5.526   1.751   6.970 -0.1388 -0.6615 -3.1905
  170SOPE   C2319183   5.595   2.404   6.920  0.3906  0.2674 -0.2944
  170SOPE   H3R19184   5.492   2.373   6.948  1.0960 -0.8422  1.2547
  170SOPE   H3S19185   5.618   2.508   6.950  1.1998 -0.2590  1.0392
  170SOPE   C2419186   5.678   2.307   6.997 -0.6423  0.1906 -0.1929
  170SOPE   H4R19187   5.647   2.201   6.993 -1.1977  0.2451  1.6146
  170SOPE   H4S19188   5.780   2.305   6.952 -1.4925 -1.2699 -2.1589
  170SOPE   C2519189   5.689   2.358   7.144  0.2234  0.4107 -0.2765
  170SOPE   H5R19190   5.721   2.464   7.152 -1.4854  1.0213 -1.1238
  170SOPE   H5S19191   5.585   2.357   7.182 -0.3697 -0.6955 -1.8376
  170SOPE   C2619192   5.784   2.271   7.225  0.0787  0.1919  0.6310
  170SOPE   H6R19193   5.778   2.173   7.172 -0.8427  1.6019 -2.0642
  170SOPE   H6S19194   5.883   2.309   7.192  0.6255 -0.3919  1.5516
  170SOPE   C2719195   5.765   2.270   7.378  0.1411  0.5508  0.7179
  170SOPE   H7R19196   5.813   2.363   7.413  0.6157  0.1484  1.1494
  170SOPE   H7S19197   5.656   2.276   7.399  0.0649 -0.8194  0.8385
  170SOPE   C2819198   5.834   2.142   7.423  0.9363 -0.2614 -0.1359
  170SOPE   H8R19199   5.834   2.066   7.343 -1.2967 -0.6135  0.1205
  170SOPE   H8S19200   5.936   2.181   7.441  0.9013 -0.8004  1.4047
  170SOPE   C2919201   5.776   2.089   7.549  0.2409  0.4040  0.4697
  170SOPE   H9119202   5.702   2.007   7.547  0.2951  0.1683  3.2506
  170SOPE  C21019203   5.791   2.147   7.670 -0.9001  0.2382  1.0147
  170SOPE  H10119204   5.744   2.096   7.755 -2.2920 -1.8045 -0.8837
  170SOPE  C21119205   5.875   2.273   7.700 -0.7600 -0.4721 -0.2538
  170SOPE  H11R19206   5.816   2.364   7.722 -2.2910 -1.0401 -1.7637
  170SOPE  H11S19207   5.931   2.310   7.611 -0.9898  2.9541  0.8945
  170SOPE  C21219208   5.980   2.258   7.805  0.4579 -0.1397 -0.2195
  170SOPE  H12R19209   6.023   2.360   7.814 -0.5117  0.3572 -1.0520
  170SOPE  H12S19210   6.058   2.187   7.770 -0.6074 -2.0678  1.1268
  170SOPE  C21319211   5.953   2.210   7.955  0.3185  0.2765 -0.1605
  170SOPE  H13R19212   5.861   2.148   7.951 -0.5126  1.4805 -0.0664
  170SOPE  H13S19213   5.919   2.299   8.012  1.0514  0.4204  0.0614
  170SOPE  C21419214   6.074   2.135   8.013  0.2147  0.1893  0.0838
  170SOPE  H14R19215   6.152   2.210   8.038  0.2157  1.4993 -3.3374
  170SOPE  H14S19216   6.098   2.066   7.929  0.0881 -0.2403  0.3985
  170SOPE  C21519217   6.028   2.052   8.132  0.0562  0.0908  0.8126
  170SOPE  H15R19218   5.932   2.004   8.103 -0.7893  3.8657 -3.9360
  170SOPE  H15S19219   5.999   2.123   8.212  1.5382 -1.6089  2.9692
  170SOPE  C21619220   6.138   1.955   8.173 -0.0536 -0.6069  0.2581
  170SOPE  H16R19221   6.205   1.999   8.250 -3.0484  1.2366  2.0048
  170SOPE  H16S19222   6.195   1.910   8.088 -0.6224 -2.0585  0.6069
  170SOPE  C21719223   6.079   1.832   8.239 -0.8072 -0.1047 -0.1349
  170SOPE  H17R19224   6.157   1.755   8.260 -0.9608  0.0166  0.9457
  170SOPE  H17S19225   6.001   1.783   8.178 -1.7900  0.9623  0.2305
  170SOPE  C21819226   6.013   1.880   8.368 -0.3475  0.1771  0.5022
  170SOPE  H18R19227   5.982   1.791   8.427 -0.6002 -0.0986 -0.0471
  170SOPE  H18S19228   5.922   1.937   8.337  1.7715  2.1912 -2.5385
  170SOPE  H18T19229   6.091   1.936   8.424  1.2147 -1.7006  0.2860
  170SOPE   C3319230   5.311   1.817   6.975 -0.4693  0.5552 -0.5406
  170SOPE   H3X19231   5.298   1.788   7.081  2.7562 -0.2228 -0.2635
  170SOPE   H3Y19232   5.289   1.725   6.916  1.5091 -1.7266  2.0394
  170SOPE   C3419233   5.220   1.934   6.935 -0.2111  0.5455 -0.5219
  170SOPE   H4X19234   5.117   1.892   6.941  0.3116 -0.6314  0.6146
  170SOPE   H4Y19235   5.227   1.953   6.826  1.2335  1.0281 -0.3669
  170SOPE   C3519236   5.247   2.065   7.011  0.8137  0.2216  0.0611
  170SOPE   H5X19237   5.171   2.138   6.976  0.6218 -0.3280 -0.6854
  170SOPE   H5Y19238   5.342   2.104   6.969  0.7956  0.3793  0.1627
  170SOPE   C3619239   5.250   2.043   7.166 -0.3534  0.0422  0.8485
  170SOPE   H6X19240   5.335   1.974   7.187 -1.1169 -0.6064  1.9125
  170SOPE   H6Y19241   5.159   1.985   7.193  0.6969 -1.7977  0.6181
  170SOPE   C3719242   5.273   2.177   7.247  0.6142  0.0802 -0.1098
  170SOPE   H7X19243   5.177   2.232   7.239 -0.7666 -2.1259  0.2345
  170SOPE   H7Y19244   5.352   2.229   7.189 -0.5649  0.7464 -1.1688
  170SOPE   C3819245   5.318   2.163   7.388 -0.5911  0.5797 -0.1767
  170SOPE   H8X19246   5.383   2.074   7.407 -1.9538 -0.1752  1.1468
  170SOPE   H8Y19247   5.224   2.144   7.443  0.6499 -1.2244  1.4954
  170SOPE   C3919248   5.378   2.303   7.442 -0.3388 -0.0280  0.2128
  170SOPE   H9X19249   5.293   2.375   7.439 -0.8998 -0.6925 -2.5856
  170SOPE   H9Y19250   5.442   2.355   7.368  0.3225 -0.0899  0.7397
  170SOPE  C31019251   5.454   2.288   7.581  0.4410 -0.4204  0.2125
  170SOPE  H10X19252   5.477   2.393   7.608  0.7321 -0.9172  2.0138
  170SOPE  H10Y19253   5.553   2.240   7.561  0.7206  1.2177 -3.0183
  170SOPE  C31119254   5.382   2.216   7.693 -0.0633 -0.3752 -0.2003
  170SOPE  H11X19255   5.373   2.108   7.666  1.9394 -0.8138  0.7259
  170SOPE  H11Y19256   5.274   2.242   7.704 -0.0222 -0.5844  0.7670
  170SOPE  C31219257   5.453   2.242   7.826  0.5790 -0.0106  0.5548
  170SOPE  H12X19258   5.458   2.352   7.840 -3.3028  0.4671 -0.4147
  170SOPE  H12Y19259   5.557   2.205   7.838  0.1614 -1.0867  1.0061
  170SOPE  C31319260   5.375   2.204   7.954 -0.0868 -0.7923  0.3678
  170SOPE  H13X19261   5.343   2.098   7.942 -1.4468 -0.3129 -0.4914
  170SOPE  H13Y19262   5.283   2.266   7.952  0.5214  0.1153  0.1430
  170SOPE  C31419263   5.454   2.230   8.083 -0.1004 -1.2076 -0.3276
  170SOPE  H14X19264   5.383   2.224   8.168 -0.0424  0.3220 -0.1572
  170SOPE  H14Y19265   5.479   2.338   8.081 -0.3973 -1.1454 -1.2187
  170SOPE  C31519266   5.572   2.124   8.097  0.0439  0.2896  0.3407
  170SOPE  H15X19267   5.653   2.146   8.024 -0.0938 -0.3623 -0.0197
  170SOPE  H15Y19268   5.532   2.021   8.082  1.4171 -0.1359 -0.6210
  170SOPE  C31619269   5.635   2.135   8.238 -0.0612  1.0310  0.0236
  170SOPE  H16X19270   5.696   2.046   8.265 -1.5356 -0.3315 -0.9454
  170SOPE  H16Y19271   5.562   2.152   8.320  1.4448 -0.4272  1.7538
  170SOPE  C31719272   5.726   2.254   8.251 -0.0917 -0.1783  0.3677
  170SOPE  H17X19273   5.684   2.339   8.194 -2.9134 -2.6019 -1.4272
  170SOPE  H17Y19274   5.834   2.245   8.224  0.4399 -0.0264  2.2630
  170SOPE  C31819275   5.750   2.295   8.399 -0.5362 -0.2235 -0.0697
  170SOPE  H18X19276   5.800   2.205   8.439 -0.8173 -0.5980 -0.5414
  170SOPE  H18Y19277   5.648   2.305   8.443 -0.4549  2.2388 -0.2701
  170SOPE  H18Z19278   5.794   2.394   8.423 -0.5346 -0.2045 -0.1485
  171SOPE     N19279   5.235   4.821   6.549 -0.2917 -0.0827 -0.1416
  171SOPE   HN119280   5.285   4.768   6.475 -0.8346 -0.8986  0.0589
  171SOPE   HN219281   5.282   4.816   6.642  1.4178 -0.7992 -1.0133
  171SOPE   HN319282   5.144   4.770   6.557  0.8987 -2.0701  2.2136
  171SOPE   C1219283   5.215   4.956   6.504  0.3038  0.3173  0.0365
  171SOPE  H12A19284   5.140   5.001   6.572 -1.9581 -2.2895 -0.5390
  171SOPE  H12B19285   5.179   4.947   6.399  1.6186  0.0905 -0.4146
  171SOPE   C1119286   5.352   5.028   6.483  0.0187 -0.8658 -0.6683
  171SOPE  H11A19287   5.324   5.126   6.438 -1.7602 -1.8262 -1.7845
  171SOPE  H11B19288   5.410   4.970   6.409 -0.0216  0.7173 -2.0062
  171SOPE     P19289   5.481   5.158   6.654 -0.5192  0.4796 -0.3124
  171SOPE   O1319290   5.570   5.220   6.550 -0.1774  0.6354  0.3887
  171SOPE   O1419291   5.535   5.145   6.793 -0.0167 -0.0660  0.1283
  171SOPE   O1219292   5.424   5.025   6.607  0.6597  0.1700 -0.2665
  171SOPE   O1119293   5.354   5.248   6.662  0.3725 -0.5192  0.1278
  171SOPE    C119294   5.344   5.391   6.633  0.0670  0.2600  0.5612
  171SOPE    HA19295   5.241   5.429   6.652  0.2951  1.6196 -0.7948
  171SOPE    HB19296   5.357   5.405   6.524 -1.5949  2.3946  0.5688
  171SOPE    C219297   5.448   5.479   6.709 -0.3092 -0.3943  0.1685
  171SOPE    HS19298   5.549   5.437   6.693  1.3965  2.9504  1.0817
  171SOPE   O2119299   5.419   5.484   6.848  0.6049 -0.5242 -0.9442
  171SOPE   C2119300   5.518   5.515   6.940 -0.0660  0.0125  0.4031
  171SOPE   O2219301   5.637   5.520   6.921 -0.7413  0.0616  0.1633
  171SOPE   C2219302   5.444   5.521   7.071 -0.1353  1.1234 -0.7108
  171SOPE   H2R19303   5.358   5.452   7.077  1.3241 -0.6618  0.4420
  171SOPE   H2S19304   5.397   5.622   7.073 -1.3360  0.6381 -2.2764
  171SOPE    C319305   5.445   5.624   6.658 -0.6994 -0.0217  0.5274
  171SOPE    HX19306   5.339   5.660   6.659 -1.1110 -1.1871  0.1349
  171SOPE    HY19307   5.480   5.614   6.553  0.2374 -1.5173  0.9545
  171SOPE   O3119308   5.528   5.708   6.740 -0.4075 -0.2374  0.0590
  171SOPE   C3119309   5.641   5.761   6.693 -0.5017  0.0970  0.0606
  171SOPE   O3219310   5.694   5.730   6.593  0.3125 -0.4440 -0.3011
  171SOPE   C3219311   5.714   5.838   6.793  0.3678  0.3120  0.3328
  171SOPE   H2X19312   5.810   5.867   6.746  0.8912 -0.2602  1.0327
  171SOPE   H2Y19313   5.745   5.777   6.880  0.4769  0.1771  0.1996
  171SOPE   C2319314   5.549   5.487   7.177 -0.1572 -0.0237 -0.3891
  171SOPE   H3R19315   5.628   5.565   7.163 -0.0139 -0.4046 -1.9552
  171SOPE   H3S19316   5.595   5.389   7.152  0.3157  0.5089 -1.7620
  171SOPE   C2419317   5.498   5.493   7.318  0.1256  0.1202  0.2466
  171SOPE   H4R19318   5.438   5.399   7.325 -0.8034  0.6968  0.1901
  171SOPE   H4S19319   5.580   5.479   7.392 -1.2738  0.8225  1.9984
  171SOPE   C2519320   5.400   5.605   7.355 -0.0798 -0.5351  0.4818
  171SOPE   H5R19321   5.459   5.698   7.347  0.3210 -0.8196  0.0718
  171SOPE   H5S19322   5.326   5.614   7.274  1.6773 -0.2892 -1.1667
  171SOPE   C2619323   5.329   5.595   7.494  0.8196 -0.1870  0.4506
  171SOPE   H6R19324   5.263   5.684   7.503 -0.8800 -1.2903 -0.6342
  171SOPE   H6S19325   5.259   5.509   7.489  0.4767  0.1328 -0.6082
  171SOPE   C2719326   5.417   5.589   7.618  0.6172 -0.6372  0.1078
  171SOPE   H7R19327   5.496   5.512   7.604  1.1431  0.0298 -0.7422
  171SOPE   H7S19328   5.467   5.689   7.611 -3.3050  1.4179 -1.5631
  171SOPE   C2819329   5.346   5.570   7.750 -0.5153  0.1596 -0.9250
  171SOPE   H8R19330   5.281   5.655   7.782  0.4986  1.1052 -1.3069
  171SOPE   H8S19331   5.282   5.481   7.733 -0.0136 -0.3559 -0.1867
  171SOPE   C2919332   5.453   5.527   7.857 -0.7692 -0.1653 -0.7339
  171SOPE   H9119333   5.542   5.472   7.821  1.2036 -0.1676  3.5187
  171SOPE  C21019334   5.467   5.568   7.987 -0.0247 -0.4674  0.0284
  171SOPE  H10119335   5.556   5.549   8.047  0.9879  1.1916 -0.8708
  171SOPE  C21119336   5.356   5.651   8.054 -0.7239 -0.1887 -0.2796
  171SOPE  H11R19337   5.262   5.599   8.026 -1.2239  1.3849 -1.7227
  171SOPE  H11S19338   5.349   5.757   8.020  2.0244  0.7942  1.8268
  171SOPE  C21219339   5.372   5.660   8.209 -0.5449 -0.5852 -0.8461
  171SOPE  H12R19340   5.394   5.567   8.266 -0.4400  0.2233  0.4876
  171SOPE  H12S19341   5.274   5.694   8.249 -0.5944  0.8203 -2.0559
  171SOPE  C21319342   5.486   5.765   8.247  1.0822  0.5370 -0.6924
  171SOPE  H13R19343   5.481   5.853   8.180 -2.8751  1.2818  0.3242
  171SOPE  H13S19344   5.574   5.704   8.216 -0.6991 -2.5975 -0.1217
  171SOPE  C21419345   5.496   5.798   8.397  0.5633 -0.2386 -0.1966
  171SOPE  H14R19346   5.600   5.834   8.416 -0.3919  1.0763  3.2628
  171SOPE  H14S19347   5.485   5.707   8.459  1.9557  0.2767  0.8592
  171SOPE  C21519348   5.384   5.895   8.438  0.2518  0.1109  0.2375
  171SOPE  H15R19349   5.283   5.854   8.419  0.7993 -1.0542 -0.2864
  171SOPE  H15S19350   5.392   5.983   8.371  0.5124  1.9675  2.5852
  171SOPE  C21619351   5.408   5.931   8.580 -0.1612  0.1402  0.0613
  171SOPE  H16R19352   5.498   5.996   8.581 -1.3284  1.8830  2.9040
  171SOPE  H16S19353   5.433   5.835   8.631  0.8099  0.2160 -0.2459
  171SOPE  C21719354   5.294   5.995   8.661  0.7839 -0.0596  0.1421
  171SOPE  H17R19355   5.212   5.919   8.660 -2.1872  2.9399 -0.5107
  171SOPE  H17S19356   5.253   6.083   8.609  0.7258 -1.0298 -1.5215
  171SOPE  C21819357   5.322   6.031   8.813 -0.6379 -0.4635 -0.4128
  171SOPE  H18R19358   5.395   6.114   8.810 -0.5337 -0.5717 -1.2386
  171SOPE  H18S19359   5.370   5.946   8.865 -0.6051 -0.9279 -1.1784
  171SOPE  H18T19360   5.234   6.059   8.875  0.6322  0.7618  0.9130
  171SOPE   C3319361   5.628   5.961   6.832  0.1822  0.0092  0.3928
  171SOPE   H3X19362   5.573   5.943   6.927 -1.9266 -1.3907 -0.9813
  171SOPE   H3Y19363   5.555   5.975   6.750  2.0717 -0.7991 -1.5207
  171SOPE   C3419364   5.721   6.085   6.843  0.7950 -0.1212  0.8052
  171SOPE   H4X19365   5.665   6.179   6.827 -1.6991 -1.3697  1.7678
  171SOPE   H4Y19366   5.793   6.083   6.758 -1.7118 -1.0862 -1.4280
  171SOPE   C3519367   5.803   6.095   6.972 -0.3336 -0.0350  0.1306
  171SOPE   H5X19368   5.877   6.177   6.975  1.1426 -1.3413  2.7833
  171SOPE   H5Y19369   5.866   6.004   6.981 -0.2004 -0.1396 -1.4504
  171SOPE   C3619370   5.719   6.094   7.101 -0.8480 -0.1981  0.1742
  171SOPE   H6X19371   5.647   6.010   7.109 -0.4388 -0.5071  0.6350
  171SOPE   H6Y19372   5.659   6.187   7.103 -0.1855  0.2183  2.1784
  171SOPE   C3719373   5.802   6.093   7.235 -0.8877  0.7008  0.2716
  171SOPE   H7X19374   5.869   6.181   7.231  0.6915 -0.4799 -0.7581
  171SOPE   H7Y19375   5.873   6.007   7.242 -1.3110  0.4411  1.6259
  171SOPE   C3819376   5.715   6.095   7.363  0.5213 -0.0288 -0.5252
  171SOPE   H8X19377   5.658   6.000   7.360 -0.8297  0.6914  1.1138
  171SOPE   H8Y19378   5.642   6.178   7.357  1.6837  1.1225  0.7358
  171SOPE   C3919379   5.789   6.105   7.496 -0.2389  0.3872  0.2389
  171SOPE   H9X19380   5.827   6.208   7.509 -1.7272  0.9460  0.3106
  171SOPE   H9Y19381   5.878   6.038   7.506 -0.2250  0.3839  0.1046
  171SOPE  C31019382   5.692   6.102   7.609 -0.2925 -1.1465 -0.1722
  171SOPE  H10X19383   5.623   6.189   7.600  1.3860  0.6956  3.0800
  171SOPE  H10Y19384   5.753   6.133   7.696  0.9222 -0.0064 -1.3839
  171SOPE  C31119385   5.614   5.974   7.627  0.0765 -0.6055 -0.0260
  171SOPE  H11X19386   5.678   5.887   7.650  0.3476 -0.1853  0.8694
  171SOPE  H11Y19387   5.550   5.959   7.537  0.2355  0.3221 -0.3118
  171SOPE  C31219388   5.511   5.968   7.739 -0.2186 -0.1488  0.1453
  171SOPE  H12X19389   5.457   5.871   7.736 -2.5218  1.0890 -1.9691
  171SOPE  H12Y19390   5.422   6.032   7.721 -0.0930  0.0517  0.2241
  171SOPE  C31319391   5.564   6.016   7.872  0.5658  0.2162 -0.2364
  171SOPE  H13X19392   5.486   6.011   7.951 -0.3599  2.5704 -0.8966
  171SOPE  H13Y19393   5.587   6.124   7.861  1.8723 -0.2300 -2.3015
  171SOPE  C31419394   5.695   5.955   7.916  0.4162 -0.0205 -0.0947
  171SOPE  H14X19395   5.770   5.982   7.839 -1.5691  0.9933 -1.7849
  171SOPE  H14Y19396   5.680   5.845   7.915  1.8464 -0.2304 -0.9616
  171SOPE  C31519397   5.746   6.004   8.055  0.6690  0.1376  0.5374
  171SOPE  H15X19398   5.664   5.983   8.127 -0.8156  0.4525 -1.0139
  171SOPE  H15Y19399   5.754   6.113   8.036  0.1398  0.2494  0.9544
  171SOPE  C31619400   5.875   5.937   8.102  1.2153 -0.0548 -0.5492
  171SOPE  H16X19401   5.955   5.977   8.036  0.1535  3.3165  0.0545
  171SOPE  H16Y19402   5.864   5.827   8.086  0.7409  0.0069 -0.6483
  171SOPE  C31719403   5.911   5.958   8.249  0.0529  0.2898  0.3750
  171SOPE  H17X19404   5.993   5.893   8.285  1.7407  1.7519 -0.6621
  171SOPE  H17Y19405   5.820   5.940   8.311 -0.2889  1.4985  0.2616
  171SOPE  C31819406   5.947   6.103   8.281  0.5984 -0.3192 -0.4835
  171SOPE  H18X19407   6.045   6.134   8.241  0.3556  0.6640 -0.3507
  171SOPE  H18Y19408   5.948   6.129   8.389  0.1161  1.5003 -0.8918
  171SOPE  H18Z19409   5.874   6.174   8.236  3.0028  0.5755 -3.2468
  172SOPE     N19410   6.450   0.495   6.262  0.7041  0.3507  0.5504
  172SOPE   HN119411   6.469   0.533   6.167 -0.2861 -1.2733 -0.3385
  172SOPE   HN219412   6.519   0.423   6.290  1.1169  1.3905  2.3373
  172SOPE   HN319413   6.358   0.450   6.249  1.7610 -1.2421 -2.7999
  172SOPE   C1219414   6.444   0.613   6.354  0.4335 -0.6179 -0.7089
  172SOPE  H12A19415   6.415   0.580   6.455  1.5903  1.5312  0.4013
  172SOPE  H12B19416   6.373   0.684   6.307  1.5857  1.1479  0.1009
  172SOPE   C1119417   6.584   0.678   6.349 -0.7008  0.5354 -0.1050
  172SOPE  H11A19418   6.582   0.765   6.418  0.1847 -0.2240  0.9276
  172SOPE  H11B19419   6.599   0.714   6.245 -1.9522  1.4041 -0.0077
  172SOPE     P19420   6.833   0.594   6.366  0.0665 -0.1188  0.3254
  172SOPE   O1319421   6.853   0.642   6.231 -0.3843  0.7613  0.2608
  172SOPE   O1419422   6.902   0.469   6.397  0.3062 -0.8126  0.6465
  172SOPE   O1219423   6.684   0.584   6.388  0.2919 -0.2557  0.3336
  172SOPE   O1119424   6.883   0.699   6.467 -0.1648 -0.2347  0.8130
  172SOPE    C119425   6.840   0.719   6.595  0.6194  0.0604 -0.1289
  172SOPE    HA19426   6.797   0.629   6.645  0.3622 -0.9175 -2.0032
  172SOPE    HB19427   6.749   0.783   6.602 -0.2940 -1.1252 -0.8110
  172SOPE    C219428   6.946   0.778   6.684  0.4122  0.3477 -0.0403
  172SOPE    HS19429   7.046   0.732   6.671  0.6770  0.1610  2.2090
  172SOPE   O2119430   6.898   0.768   6.818 -0.2196 -0.0177  0.0483
  172SOPE   C2119431   6.995   0.738   6.909 -0.0197 -0.6485 -0.3086
  172SOPE   O2219432   7.103   0.689   6.875  0.5236  0.0527  0.2975
  172SOPE   C2219433   6.959   0.770   7.058  0.2143  0.5484 -0.2516
  172SOPE   H2R19434   6.863   0.720   7.079  1.0090 -1.2915 -0.8108
  172SOPE   H2S19435   6.953   0.880   7.075  0.3487  0.7930 -1.6481
  172SOPE    C319436   6.952   0.922   6.640  0.0830 -0.4732  0.3458
  172SOPE    HX19437   6.848   0.961   6.635 -0.7705 -2.3628  1.8565
  172SOPE    HY19438   6.998   0.920   6.539  0.9544  0.3104  0.7110
  172SOPE   O3119439   7.024   0.999   6.739  0.2038  0.2712  0.6030
  172SOPE   C3119440   7.161   1.005   6.717  0.5506 -0.6295  0.2961
  172SOPE   O3219441   7.214   0.981   6.606  0.1122  0.2675 -0.0672
  172SOPE   C3219442   7.227   1.047   6.838  0.2652  0.0993 -0.4225
  172SOPE   H2X19443   7.195   0.979   6.919 -1.7934  1.0555 -0.3828
  172SOPE   H2Y19444   7.199   1.152   6.860  0.0072 -0.3662  1.5964
  172SOPE   C2319445   7.067   0.706   7.153  0.4401 -0.3682 -0.1112
  172SOPE   H3R19446   7.166   0.754   7.139  0.1587 -0.2714 -1.9617
  172SOPE   H3S19447   7.068   0.599   7.123 -1.0703 -0.2847 -0.4937
  172SOPE   C2419448   7.023   0.722   7.300 -0.2504 -0.5917 -0.7691
  172SOPE   H4R19449   7.001   0.829   7.318  0.9450 -0.2781 -1.0987
  172SOPE   H4S19450   6.930   0.662   7.309  0.3154 -1.9309 -3.0266
  172SOPE   C2519451   7.134   0.683   7.396  0.0828 -0.3858  0.8777
  172SOPE   H5R19452   7.166   0.584   7.357  1.1607  0.1219  0.4375
  172SOPE   H5S19453   7.211   0.764   7.393 -0.9193  0.6874  2.3574
  172SOPE   C2619454   7.098   0.651   7.540  0.4272  0.3676 -0.3090
  172SOPE   H6R19455   7.197   0.624   7.585  1.6343 -1.9288 -3.9295
  172SOPE   H6S19456   7.066   0.742   7.595  1.2109  1.2529 -1.2871
  172SOPE   C2719457   7.002   0.527   7.544 -0.6759 -0.4420  0.1008
  172SOPE   H7R19458   6.902   0.541   7.497 -1.5089 -0.1777  1.8552
  172SOPE   H7S19459   7.051   0.443   7.490  1.6928 -0.7374  2.4812
  172SOPE   C2819460   6.998   0.467   7.688  0.3705 -0.3985 -0.4327
  172SOPE   H8R19461   6.944   0.371   7.673  0.2507 -0.3321 -0.4238
  172SOPE   H8S19462   7.100   0.440   7.723 -0.2933 -1.1678  1.0191
  172SOPE   C2919463   6.910   0.561   7.766 -0.1176  0.6345  0.6818
  172SOPE   H9119464   6.820   0.593   7.711 -1.0555  1.1951  2.4461
  172SOPE  C21019465   6.915   0.594   7.894  0.5057  0.3022 -0.3233
  172SOPE  H10119466   6.833   0.658   7.927 -1.0135 -1.0147 -1.4084
  172SOPE  C21119467   7.013   0.560   7.997 -0.1083 -0.1414 -0.2434
  172SOPE  H11R19468   7.047   0.649   8.054  0.7309  0.3583 -1.4779
  172SOPE  H11S19469   7.106   0.516   7.956  0.7312  2.3105 -1.1446
  172SOPE  C21219470   6.968   0.484   8.127 -0.8210  0.1589 -0.0687
  172SOPE  H12R19471   7.059   0.479   8.191 -0.7218 -2.7045 -0.3435
  172SOPE  H12S19472   6.928   0.384   8.100  0.3135 -0.5461  0.7662
  172SOPE  C21319473   6.861   0.565   8.200 -0.5821  0.8264 -0.7602
  172SOPE  H13R19474   6.776   0.557   8.129 -0.5932 -0.3162 -0.6478
  172SOPE  H13S19475   6.899   0.668   8.216  1.0619  0.1078  0.2015
  172SOPE  C21419476   6.812   0.498   8.331  1.0794  0.4452  0.3413
  172SOPE  H14R19477   6.892   0.479   8.406 -0.2080 -1.4913  1.2903
  172SOPE  H14S19478   6.772   0.397   8.309 -0.8154  1.1124  0.4903
  172SOPE  C21519479   6.696   0.571   8.406  0.0693  0.2894 -0.2979
  172SOPE  H15R19480   6.715   0.653   8.479 -1.6250  1.2196 -0.8326
  172SOPE  H15S19481   6.635   0.496   8.461  0.5831  0.7876  0.9970
  172SOPE  C21619482   6.586   0.630   8.312  0.1360 -0.0202  0.0002
  172SOPE  H16R19483   6.563   0.573   8.220 -1.1817  2.4482 -1.2976
  172SOPE  H16S19484   6.632   0.725   8.278  1.0639  0.9207  3.4267
  172SOPE  C21719485   6.453   0.651   8.378  0.0658  0.1404  0.1266
  172SOPE  H17R19486   6.459   0.732   8.454 -2.3818  1.9565 -1.4756
  172SOPE  H17S19487   6.421   0.550   8.410 -0.8334 -0.6086 -2.8281
  172SOPE  C21819488   6.349   0.684   8.281  0.2478  0.4615  0.6107
  172SOPE  H18R19489   6.251   0.699   8.331 -0.6618  0.1512 -1.0034
  172SOPE  H18S19490   6.324   0.600   8.213  0.3472  1.9818 -1.3979
  172SOPE  H18T19491   6.381   0.769   8.217 -0.0216 -0.9638 -1.5499
  172SOPE   C3319492   7.386   1.033   6.833 -0.9400  0.7492  0.3696
  172SOPE   H3X19493   7.438   1.100   6.762  3.1582  1.3533  3.5468
  172SOPE   H3Y19494   7.413   0.928   6.808  0.9614  0.9989  1.2276
  172SOPE   C3419495   7.453   1.073   6.969 -0.1982 -0.1407 -0.3303
  172SOPE   H4X19496   7.404   1.168   6.998  0.6728 -0.4327  2.4219
  172SOPE   H4Y19497   7.558   1.106   6.952 -0.6356  1.8273  0.5512
  172SOPE   C3519498   7.447   0.959   7.065  0.2815  0.6085 -0.2003
  172SOPE   H5X19499   7.486   0.862   7.027  0.4419  0.1203  1.1258
  172SOPE   H5Y19500   7.340   0.942   7.091  0.8582 -0.0433  1.9934
  172SOPE   C3619501   7.540   0.982   7.190  0.3243 -0.3554 -0.2627
  172SOPE   H6X19502   7.517   1.086   7.222 -0.5143 -0.7497  0.5068
  172SOPE   H6Y19503   7.648   0.986   7.167 -0.1331  1.4073 -2.4933
  172SOPE   C3719504   7.510   0.873   7.290 -0.5128  0.4209  0.5316
  172SOPE   H7X19505   7.579   0.788   7.275 -0.3594  0.7707 -0.9054
  172SOPE   H7Y19506   7.404   0.838   7.289 -0.6611  0.8466 -0.9283
  172SOPE   C3819507   7.545   0.918   7.432 -0.0684  0.4084 -1.0525
  172SOPE   H8X19508   7.507   1.023   7.439 -1.9788 -0.3518  1.6024
  172SOPE   H8Y19509   7.655   0.931   7.437 -0.2337  1.3988  1.0179
  172SOPE   C3919510   7.491   0.830   7.544 -0.1803  0.1521 -0.7184
  172SOPE   H9X19511   7.546   0.734   7.550 -1.0564 -0.2727  2.6654
  172SOPE   H9Y19512   7.382   0.810   7.538 -0.2647 -0.7320  2.1281
  172SOPE  C31019513   7.499   0.899   7.681 -0.3146 -0.3488  0.8268
  172SOPE  H10X19514   7.439   0.992   7.676  0.5443  0.1685 -0.0729
  172SOPE  H10Y19515   7.606   0.921   7.703  0.0601 -1.9444  0.7295
  172SOPE  C31119516   7.442   0.818   7.797 -0.2499  0.3838 -0.0195
  172SOPE  H11X19517   7.498   0.722   7.791  1.5170  1.3945 -0.5386
  172SOPE  H11Y19518   7.333   0.807   7.782 -0.2832  1.8750 -1.1142
  172SOPE  C31219519   7.483   0.883   7.927 -0.5299  0.2752 -0.3366
  172SOPE  H12X19520   7.459   0.991   7.921 -0.3449  0.4169  1.1073
  172SOPE  H12Y19521   7.593   0.866   7.927 -0.7541 -1.3579 -0.4326
  172SOPE  C31319522   7.430   0.811   8.049  0.6494  0.0298 -0.2916
  172SOPE  H13X19523   7.489   0.717   8.050  1.2411  0.3761 -1.1419
  172SOPE  H13Y19524   7.324   0.779   8.039  0.9211 -1.0696  0.1085
  172SOPE  C31419525   7.464   0.889   8.171 -1.0021 -0.8228  0.2739
  172SOPE  H14X19526   7.410   0.985   8.163  0.3320 -0.1325 -0.8277
  172SOPE  H14Y19527   7.573   0.909   8.159 -0.7085 -2.7057 -0.7273
  172SOPE  C31519528   7.447   0.815   8.303  0.6764  0.1602 -0.8056
  172SOPE  H15X19529   7.528   0.739   8.304  1.2560  0.7681 -0.5004
  172SOPE  H15Y19530   7.348   0.766   8.297  0.4261  0.5153  0.1426
  172SOPE  C31619531   7.459   0.904   8.421 -0.2142  0.1235  0.1475
  172SOPE  H16X19532   7.379   0.981   8.415 -0.8122 -0.3823  1.2847
  172SOPE  H16Y19533   7.558   0.954   8.420  0.5475 -0.6367  5.7520
  172SOPE  C31719534   7.456   0.827   8.558 -0.5838 -0.1148  0.0552
  172SOPE  H17X19535   7.539   0.755   8.543 -1.5646 -1.3054  0.1349
  172SOPE  H17Y19536   7.361   0.768   8.564 -0.8040  0.3196  1.2303
  172SOPE  C31819537   7.456   0.903   8.688 -0.3802 -0.6853 -0.3354
  172SOPE  H18X19538   7.370   0.973   8.680  1.7871  2.3272  0.6848
  172SOPE  H18Y19539   7.542   0.973   8.700 -1.1116  0.3490 -1.0017
  172SOPE  H18Z19540   7.441   0.850   8.784  0.5897  0.6697  0.6095
  173SAPI   C1219541   2.969   5.773  11.067  0.1021 -0.9026 -0.2070
  173SAPI    H219542   2.929   5.670  11.069  1.3680 -1.4541 -1.5613
  173SAPI    O219543   2.894   5.848  11.168 -0.1871  0.1570  0.1295
  173SAPI   HO219544   2.872   5.782  11.233 -0.8581  1.0962  0.8889
  173SAPI   C1319545   3.112   5.752  11.113  0.1109 -0.2144  0.4545
  173SAPI    H319546   3.154   5.685  11.035 -2.5380 -2.1632  0.5421
  173SAPI    O319547   3.112   5.682  11.242  0.6175 -0.0745  0.1944
  173SAPI   HO319548   3.199   5.642  11.247  0.7307  0.3047  2.6946
  173SAPI   C1419549   3.189   5.879  11.113 -0.3244  1.0044  0.1211
  173SAPI    H419550   3.146   5.949  11.189  0.4634  2.7904 -1.0065
  173SAPI    O419551   3.325   5.854  11.155  0.6606  0.0492 -0.6558
  173SAPI   HO419552   3.324   5.907  11.236 -0.6068 -1.0967  0.1283
  173SAPI   C1519553   3.174   5.945  10.984  0.6357 -0.2126  0.6872
  173SAPI    H519554   3.226   5.882  10.909 -1.2281 -0.5848 -0.3544
  173SAPI    O519555   3.235   6.075  10.997  0.0246 -0.2223 -1.0749
  173SAPI   HO519556   3.324   6.068  10.961  0.0939 -1.2993 -0.7390
  173SAPI   C1619557   3.028   5.959  10.930  0.5688  0.1877  0.3132
  173SAPI    H619558   2.973   6.021  11.005  1.6411 -1.0880  2.2307
  173SAPI    O619559   3.013   6.027  10.809  0.2500 -0.2604  0.2436
  173SAPI   HO619560   2.969   6.108  10.835  1.2757  0.5497 -0.5150
  173SAPI   C1119561   2.958   5.828  10.929  0.0483 -0.1963  0.3987
  173SAPI    H119562   3.014   5.768  10.854  0.0692 -1.1205  1.1435
  173SAPI     P19563   2.738   5.711  10.806 -0.2744 -0.2881  0.2642
  173SAPI   O1319564   2.594   5.717  10.834  0.2526 -0.6171  0.0043
  173SAPI   O1419565   2.811   5.587  10.840 -0.0392  0.4235 -0.0589
  173SAPI   O1219566   2.816   5.829  10.895 -0.1328 -0.7541  0.2323
  173SAPI   O1119567   2.762   5.752  10.654 -0.0772 -0.7191  0.7450
  173SAPI    C119568   2.760   5.885  10.607  1.3967 -0.1096  0.0665
  173SAPI    HA19569   2.660   5.928  10.627  1.1751 -0.9662  0.8538
  173SAPI    HB19570   2.825   5.960  10.658  0.2760  1.2210 -0.3913
  173SAPI    C219571   2.812   5.891  10.458  0.0619  0.3578 -0.4152
  173SAPI    HS19572   2.798   5.997  10.427 -1.1039 -0.6495 -3.7898
  173SAPI   O2119573   2.738   5.803  10.371  0.0297 -0.5061 -0.1684
  173SAPI   C2119574   2.628   5.855  10.321 -0.4572 -0.7796 -0.2615
  173SAPI   O2219575   2.578   5.965  10.344  0.1632 -0.1998 -0.2670
  173SAPI   C2219576   2.560   5.768  10.217 -0.5150  0.5279 -0.2148
  173SAPI   H2R19577   2.508   5.687  10.273  2.2689 -0.7767  0.6883
  173SAPI   H2S19578   2.502   5.835  10.150  0.0293  1.5661  0.3351
  173SAPI    C319579   2.963   5.844  10.457  0.6213  0.2162 -0.2528
  173SAPI    HX19580   2.972   5.734  10.470  0.2523  0.1442 -0.5932
  173SAPI    HY19581   3.006   5.895  10.546  0.7120 -0.0408 -0.1485
  173SAPI   O3119582   3.019   5.885  10.331  0.0600  0.1023 -0.5078
  173SAPI   C3119583   3.124   5.969  10.343 -0.1444 -0.3796 -0.0287
  173SAPI   O3219584   3.168   6.022  10.448 -0.1119  0.3631  0.3425
  173SAPI   C3219585   3.174   5.999  10.204  0.6162  0.3229  0.3089
  173SAPI   H2X19586   3.220   5.910  10.158 -2.2607 -1.2081  0.1914
  173SAPI   H2Y19587   3.240   6.089  10.211  0.7982  0.1321  1.2548
  173SAPI   C2319588   2.652   5.716  10.098 -0.8562 -0.2311 -0.0248
  173SAPI   H3R19589   2.588   5.644  10.042 -1.4750  1.2332 -1.2886
  173SAPI   H3S19590   2.731   5.655  10.147 -0.8978  0.3658  0.8020
  173SAPI   C2419591   2.701   5.830  10.011 -0.0860 -0.0971  0.1098
  173SAPI   H4R19592   2.770   5.899  10.064  1.7457 -2.3711  0.8704
  173SAPI   H4S19593   2.620   5.898   9.976 -0.0974 -0.0480  0.2319
  173SAPI   C2519594   2.777   5.771   9.901 -0.3475 -0.0154 -0.5966
  173SAPI   H5R19595   2.877   5.739   9.932 -0.7586 -1.6412 -0.8726
  173SAPI   C2619596   2.728   5.738   9.783 -1.0317 -0.4097  0.7480
  173SAPI   H6R19597   2.791   5.677   9.715 -0.2312 -0.6427  1.6767
  173SAPI   C2719598   2.592   5.758   9.720  0.0039  0.4329  0.0170
  173SAPI   H7R19599   2.507   5.779   9.788  0.4160 -1.0469  1.0319
  173SAPI   H7S19600   2.557   5.665   9.671  0.8757 -0.6146  1.3202
  173SAPI   C2819601   2.599   5.878   9.627  0.1703 -0.2897 -0.1782
  173SAPI   H8R19602   2.609   5.976   9.674  1.2243 -1.0803  1.3328
  173SAPI   C2919603   2.609   5.882   9.493 -0.6771  0.6299 -0.2211
  173SAPI   H9R19604   2.621   5.985   9.459 -1.2361  0.0586 -2.3158
  173SAPI  C21019605   2.615   5.765   9.391  0.4735 -0.3859  0.0618
  173SAPI  H10R19606   2.680   5.687   9.437  1.1999 -0.1377 -0.5292
  173SAPI  H10S19607   2.656   5.805   9.296  1.4317 -2.2575 -0.3747
  173SAPI  C21119608   2.481   5.699   9.383  0.3708  0.0907 -0.5137
  173SAPI  H11R19609   2.407   5.734   9.457 -0.8967  0.2041 -1.7931
  173SAPI  C21219610   2.449   5.623   9.276  0.2051  0.4805  0.1923
  173SAPI  H12R19611   2.356   5.564   9.284 -0.1635  1.0207 -0.0748
  173SAPI  C21319612   2.542   5.589   9.162 -0.4920  0.4999 -0.0010
  173SAPI  H13R19613   2.585   5.488   9.182  1.3426  1.1898 -0.1919
  173SAPI  H13S19614   2.637   5.647   9.155  1.7295 -2.8966 -0.8428
  173SAPI  C21419615   2.476   5.578   9.028 -0.5508 -0.0340  1.3068
  173SAPI  H14R19616   2.404   5.495   9.025 -0.2273 -0.3283  1.5908
  173SAPI  C21519617   2.490   5.656   8.915  0.7050  0.0310 -0.4152
  173SAPI  H15R19618   2.431   5.626   8.828 -1.3678  0.3715  0.8187
  173SAPI  C21619619   2.577   5.777   8.906  0.0651  0.2926  0.3612
  173SAPI  H16R19620   2.646   5.774   8.818 -0.3405 -0.6774  0.0646
  173SAPI  H16S19621   2.632   5.795   9.001  0.9055  2.5441 -0.4638
  173SAPI  C21719622   2.496   5.908   8.885  0.4524 -0.0436  0.2517
  173SAPI  H17R19623   2.571   5.984   8.916  0.4766 -0.2370  0.6721
  173SAPI  H17S19624   2.426   5.915   8.971  0.5169  0.1406  0.2906
  173SAPI  C21819625   2.426   5.929   8.754  0.1988 -0.0092  0.1483
  173SAPI  H18R19626   2.359   5.844   8.727 -0.0608 -0.4867  2.1141
  173SAPI  H18S19627   2.495   5.946   8.669  0.6763  0.6991  0.6642
  173SAPI  C21919628   2.340   6.063   8.755  1.1017 -0.2458  0.0382
  173SAPI  H19R19629   2.412   6.133   8.802  0.8803  0.1950 -0.2750
  173SAPI  H19S19630   2.252   6.052   8.822  1.7825  1.3796  1.2477
  173SAPI  C22019631   2.301   6.142   8.632  0.3187 -0.1827 -0.0678
  173SAPI  H20R19632   2.247   6.232   8.667  0.5281 -1.1814  3.1918
  173SAPI  H20S19633   2.238   6.088   8.558  0.7748  1.1776 -1.5002
  173SAPI  H20T19634   2.392   6.170   8.575  0.4805  0.8344  0.6563
  173SAPI   C3319635   3.053   6.038  10.112  0.5205 -0.0622 -0.1372
  173SAPI   H3X19636   3.004   6.122  10.165  0.7476  1.2335 -1.8995
  173SAPI   H3Y19637   2.989   5.947  10.105 -0.8098  0.8326 -0.1338
  173SAPI   C3419638   3.094   6.095   9.982 -0.3594 -0.2276  0.9553
  173SAPI   H4X19639   3.177   6.034   9.940 -0.9783  0.7958 -1.9578
  173SAPI   H4Y19640   3.155   6.187   9.995  1.0727 -1.0826  0.5052
  173SAPI   C3519641   2.974   6.122   9.885 -0.8396  0.2758  0.0553
  173SAPI   H5X19642   2.928   6.220   9.910 -0.2992  0.3018  0.9681
  173SAPI   H5Y19643   2.902   6.039   9.897 -0.7652  0.2657  0.4247
  173SAPI   C3619644   3.015   6.137   9.743  0.8077 -0.7867  0.0737
  173SAPI   H6X19645   3.118   6.177   9.726 -0.1981  1.8135 -0.4484
  173SAPI   H6Y19646   2.948   6.204   9.685 -0.6362 -1.8948  0.4206
  173SAPI   C3719647   3.009   6.006   9.665  0.3565 -0.0511 -0.5328
  173SAPI   H7X19648   2.905   5.969   9.660  0.1401  0.6402 -1.4887
  173SAPI   H7Y19649   3.071   5.928   9.714  0.2097  0.4193  0.4273
  173SAPI   C3819650   3.064   6.031   9.530 -0.3137 -0.1230  0.1173
  173SAPI   H8X19651   3.165   6.076   9.525  0.3108 -1.5863 -1.2048
  173SAPI   H8Y19652   3.001   6.109   9.482  0.6228 -0.5377 -1.8956
  173SAPI   C3919653   3.060   5.917   9.427 -0.8223 -0.3918 -0.6455
  173SAPI   H9X19654   2.980   5.848   9.461  0.5065 -0.7346  2.0926
  173SAPI   H9Y19655   3.158   5.865   9.421 -0.0783  1.0370 -1.5055
  173SAPI  C31019656   3.032   5.965   9.282 -0.2710 -0.3941  0.1384
  173SAPI  H10X19657   3.116   6.025   9.241  1.7869 -2.5459  0.9991
  173SAPI  H10Y19658   2.935   6.019   9.285  0.5343  1.4038 -2.5462
  173SAPI  C31119659   3.009   5.848   9.187  0.1710 -0.1986  0.2610
  173SAPI  H11X19660   2.926   5.790   9.234 -0.6838  1.3533  0.7484
  173SAPI  H11Y19661   3.104   5.790   9.190  0.6899  0.6789  1.3103
  173SAPI  C31219662   2.980   5.898   9.040  0.1383 -0.1457 -0.2649
  173SAPI  H12X19663   3.062   5.959   8.997 -0.8530  0.3887 -1.4403
  173SAPI  H12Y19664   2.889   5.962   9.032  1.6036  2.1296  0.4468
  173SAPI  C31319665   2.974   5.778   8.929 -0.3576 -0.4455 -0.3756
  173SAPI  H13X19666   2.907   5.699   8.968  0.8613 -1.1304  0.3935
  173SAPI  H13Y19667   3.075   5.734   8.913 -0.7676 -1.2256 -0.9075
  173SAPI  C31419668   2.926   5.825   8.788  0.0128  0.2107 -0.3120
  173SAPI  H14X19669   2.993   5.908   8.757  1.8510 -0.1753  2.2734
  173SAPI  H14Y19670   2.824   5.868   8.794  0.5856  1.5413  0.3975
  173SAPI  C31519671   2.930   5.721   8.680 -0.0329  0.7799 -0.0025
  173SAPI  H15X19672   2.849   5.657   8.719 -1.6777  3.6314  1.6395
  173SAPI  H15Y19673   3.024   5.670   8.710 -0.5497  0.5595  1.2966
  173SAPI  C31619674   2.913   5.785   8.537 -0.0943  0.7210 -0.2669
  173SAPI  H16X19675   2.871   5.887   8.552  0.4387  0.6348  2.2028
  173SAPI  H16Y19676   2.843   5.734   8.467  2.5517 -1.1901 -1.6782
  173SAPI  C31719677   3.043   5.802   8.462  0.2180  0.8317  0.4093
  173SAPI  H17X19678   3.063   5.710   8.404 -0.0006  0.8820  0.2522
  173SAPI  H17Y19679   3.125   5.804   8.537  0.9630 -2.8896 -0.1311
  173SAPI  C31819680   3.037   5.925   8.378 -0.0906 -0.9345  0.1278
  173SAPI  H18X19681   3.120   5.927   8.304 -2.2714  1.8131 -2.4720
  173SAPI  H18Y19682   3.056   6.019   8.434  1.6992 -0.0806 -1.7767
  173SAPI  H18Z19683   2.939   5.944   8.330  0.6520  2.0980 -0.3523
  174SAPI   C1219684   4.939   1.063  10.888 -0.3563 -0.0552  0.2582
  174SAPI    H219685   4.934   1.166  10.931  0.0228  0.7267 -1.4841
  174SAPI    O219686   5.056   1.009  10.941  0.5062  0.0931  0.5312
  174SAPI   HO219687   5.120   1.037  10.876  1.6755 -2.5937  0.3897
  174SAPI   C1319688   4.815   0.984  10.925  0.1410  0.8022  0.0375
  174SAPI    H319689   4.731   1.043  10.883  0.9006  0.0874 -2.7248
  174SAPI    O319690   4.792   0.972  11.068  0.5786 -0.0342 -0.2786
  174SAPI   HO319691   4.872   0.992  11.117 -1.5557  1.5662  2.9053
  174SAPI   C1419692   4.805   0.849  10.851 -0.2330 -0.6588 -0.8191
  174SAPI    H419693   4.895   0.797  10.890  1.6074  1.5917 -1.8770
  174SAPI    O419694   4.689   0.778  10.892 -0.5477  0.0748  0.2997
  174SAPI   HO419695   4.621   0.822  10.840  2.6108  2.0895 -2.6256
  174SAPI   C1519696   4.824   0.863  10.706 -0.6867 -0.4684 -1.0395
  174SAPI    H519697   4.745   0.929  10.664  1.1005  2.5072 -0.0782
  174SAPI    O519698   4.826   0.735  10.639  0.8915 -0.5379  0.1210
  174SAPI   HO519699   4.874   0.677  10.698  0.2656  0.5559  1.7960
  174SAPI   C1619700   4.958   0.942  10.680 -0.1878  0.7396  0.0226
  174SAPI    H619701   5.047   0.898  10.729  0.0795 -2.2726 -2.7783
  174SAPI    O619702   4.979   0.953  10.538 -0.4361  0.0417  0.7022
  174SAPI   HO619703   5.010   1.043  10.527 -0.0063 -0.0483  1.1340
  174SAPI   C1119704   4.949   1.081  10.739  0.5823 -0.4871 -0.0420
  174SAPI    H119705   4.859   1.131  10.697  0.3154  0.0237  1.0805
  174SAPI     P19706   5.053   1.306  10.653 -0.1107 -0.5654 -0.4385
  174SAPI   O1319707   5.186   1.371  10.665  0.2659  0.3479 -0.0832
  174SAPI   O1419708   4.938   1.374  10.726 -0.2782 -0.0616 -0.4715
  174SAPI   O1219709   5.070   1.150  10.703  0.0976 -0.4246 -0.3252
  174SAPI   O1119710   5.016   1.282  10.505  0.5240 -0.8559  0.7198
  174SAPI    C119711   4.921   1.371  10.436  0.3441 -0.1645  0.0267
  174SAPI    HA19712   4.923   1.476  10.474  3.1716  0.3400 -1.2109
  174SAPI    HB19713   4.964   1.385  10.335  2.8938  2.7087  1.3206
  174SAPI    C219714   4.786   1.298  10.413  0.2674 -1.1467 -0.0656
  174SAPI    HS19715   4.738   1.280  10.512 -0.8332 -2.2827 -0.7720
  174SAPI   O2119716   4.818   1.175  10.342  0.2775  0.1149  0.1603
  174SAPI   C2119717   4.729   1.078  10.359 -0.4595  0.4522  1.2079
  174SAPI   O2219718   4.643   1.075  10.447  0.3503  0.3408 -0.1124
  174SAPI   C2219719   4.759   0.967  10.255  0.1129  0.1025 -0.1986
  174SAPI   H2R19720   4.743   0.873  10.311 -0.9104  1.1771  1.4271
  174SAPI   H2S19721   4.674   0.972  10.183  0.8590  1.2937 -1.0318
  174SAPI    C319722   4.681   1.389  10.339 -0.1318  0.2506  0.3277
  174SAPI    HX19723   4.665   1.483  10.397 -3.4149  0.0818 -0.1068
  174SAPI    HY19724   4.579   1.350  10.360 -1.3906  3.9428  2.0459
  174SAPI   O3119725   4.695   1.415  10.197  0.1481  0.0824  0.3829
  174SAPI   C3119726   4.582   1.400  10.122  0.4009  0.2328  0.6713
  174SAPI   O3219727   4.476   1.351  10.158 -0.0414 -0.5901  0.2815
  174SAPI   C3219728   4.622   1.435   9.980 -0.5724  0.3449  0.4775
  174SAPI   H2X19729   4.685   1.526   9.984  1.5748 -1.0226 -0.3051
  174SAPI   H2Y19730   4.529   1.469   9.930 -0.3911  2.4145  1.4437
  174SAPI   C2319731   4.893   0.975  10.181  0.4917  0.1446  0.0108
  174SAPI   H3R19732   4.978   1.000  10.249 -0.1222  1.8756  0.2005
  174SAPI   H3S19733   4.886   1.070  10.123  0.4846  0.3028  0.2726
  174SAPI   C2419734   4.925   0.847  10.096 -0.5622  0.5505  0.2284
  174SAPI   H4R19735   4.952   0.765  10.166 -0.9490  1.7807  1.8793
  174SAPI   H4S19736   5.021   0.875  10.048 -0.6958  0.4427 -0.1077
  174SAPI   C2519737   4.820   0.821   9.994  0.2937  0.0108  0.0364
  174SAPI   H5R19738   4.722   0.793  10.035  0.5978  0.3720  1.0413
  174SAPI   C2619739   4.828   0.828   9.858 -0.2762  0.7377 -0.7016
  174SAPI   H6R19740   4.733   0.809   9.806  0.2471 -0.5904 -1.2150
  174SAPI   C2719741   4.949   0.862   9.770  0.5691  0.3474  0.6160
  174SAPI   H7R19742   4.957   0.783   9.692 -3.2465 -0.1682  0.5260
  174SAPI   H7S19743   5.041   0.864   9.831  0.4796 -0.4173  0.7861
  174SAPI   C2819744   4.926   0.991   9.694  0.4123 -0.1967 -0.4886
  174SAPI   H8R19745   4.941   1.082   9.755 -0.0103  0.1656 -0.9125
  174SAPI   C2919746   4.896   1.010   9.566 -1.0835 -0.2677 -0.1559
  174SAPI   H9R19747   4.890   1.117   9.540  2.2892  0.2515  0.7139
  174SAPI  C21019748   4.889   0.906   9.457 -0.6600 -0.1229 -0.2229
  174SAPI  H10R19749   4.932   0.809   9.490 -2.1479 -1.4755 -2.0299
  174SAPI  H10S19750   4.961   0.935   9.377 -2.2448  1.6313 -1.0839
  174SAPI  C21119751   4.755   0.883   9.406  0.1970  0.1275  0.2826
  174SAPI  H11R19752   4.688   0.826   9.472 -2.5145  0.8347 -1.6856
  174SAPI  C21219753   4.709   0.926   9.281 -0.3040  0.7698 -0.5074
  174SAPI  H12R19754   4.614   0.884   9.245 -0.5700  0.1155  0.9072
  174SAPI  C21319755   4.791   1.000   9.169 -0.0391 -0.4668  0.2842
  174SAPI  H13R19756   4.873   1.067   9.203 -2.3088  2.7587 -0.1863
  174SAPI  H13S19757   4.716   1.063   9.118  0.5843 -1.8490 -2.4869
  174SAPI  C21419758   4.853   0.888   9.090 -0.0299  1.2595  0.0911
  174SAPI  H14R19759   4.920   0.823   9.148  0.8827  1.5114 -0.6554
  174SAPI  C21519760   4.827   0.866   8.962 -0.7447  0.2592  0.1222
  174SAPI  H15R19761   4.876   0.778   8.917  0.1345 -0.2146  1.9335
  174SAPI  C21619762   4.733   0.942   8.873  0.8748  0.7202  1.1899
  174SAPI  H16R19763   4.660   1.001   8.932 -2.4182 -0.0063 -1.7657
  174SAPI  H16S19764   4.685   0.864   8.810  1.0215  1.3041  0.3355
  174SAPI  C21719765   4.809   1.040   8.779 -0.2465  0.0377 -0.0844
  174SAPI  H17R19766   4.735   1.075   8.704  0.1294  0.0085 -0.4725
  174SAPI  H17S19767   4.893   0.989   8.727 -0.0401 -1.5443  1.6705
  174SAPI  C21819768   4.859   1.171   8.858  0.2795 -0.0829  0.6762
  174SAPI  H18R19769   4.943   1.145   8.925  1.5034 -0.8829 -1.0705
  174SAPI  H18S19770   4.770   1.209   8.912  1.6406  2.7778  1.1013
  174SAPI  C21919771   4.917   1.273   8.759  0.3728 -0.0367  0.5397
  174SAPI  H19R19772   4.843   1.270   8.676  1.6120  0.1637 -0.5896
  174SAPI  H19S19773   5.022   1.253   8.729  0.2905  1.4754 -0.8952
  174SAPI  C22019774   4.924   1.413   8.819 -0.0872  0.6419 -0.9386
  174SAPI  H20R19775   4.939   1.493   8.743  1.0908  1.1468 -0.2069
  174SAPI  H20S19776   5.006   1.413   8.894 -1.2662 -0.2050  0.4035
  174SAPI  H20T19777   4.832   1.430   8.879  0.8281 -0.8327  0.9750
  174SAPI   C3319778   4.685   1.303   9.916  0.2183 -0.8757 -1.2717
  174SAPI   H3X19779   4.767   1.261   9.978  0.0526 -1.2146 -1.2786
  174SAPI   H3Y19780   4.716   1.342   9.817 -0.6990  1.5506 -0.6905
  174SAPI   C3419781   4.573   1.195   9.901  0.0933 -0.2076 -0.7627
  174SAPI   H4X19782   4.535   1.159   9.999  1.3832 -1.4749 -0.6922
  174SAPI   H4Y19783   4.631   1.114   9.853  0.9020  0.5893 -1.1716
  174SAPI   C3519784   4.451   1.223   9.811 -0.1349  0.1118  0.3845
  174SAPI   H5X19785   4.479   1.295   9.731 -3.4859  1.2667  0.0782
  174SAPI   H5Y19786   4.369   1.275   9.865 -0.7219  1.6102 -1.8134
  174SAPI   C3619787   4.390   1.100   9.742  0.4373  0.9856 -0.1517
  174SAPI   H6X19788   4.283   1.123   9.725 -0.2256 -2.1725 -0.9021
  174SAPI   H6Y19789   4.372   1.010   9.804 -0.2434  2.2336  1.5264
  174SAPI   C3719790   4.430   1.063   9.595 -0.5548  0.2319 -0.2401
  174SAPI   H7X19791   4.364   0.981   9.559 -2.3238  0.5031  2.1127
  174SAPI   H7Y19792   4.532   1.020   9.593 -1.2024 -1.4749  1.0800
  174SAPI   C3819793   4.435   1.179   9.495  0.2679 -0.2057  0.3040
  174SAPI   H8X19794   4.377   1.259   9.546 -1.5939  0.1036 -2.1100
  174SAPI   H8Y19795   4.382   1.151   9.401 -0.0341 -1.4691  0.8252
  174SAPI   C3919796   4.572   1.231   9.458 -0.5701  0.1377 -0.2024
  174SAPI   H9X19797   4.644   1.157   9.415  1.8822  2.6646 -0.7107
  174SAPI   H9Y19798   4.621   1.266   9.552  1.5406 -1.7760 -0.4717
  174SAPI  C31019799   4.571   1.353   9.361  0.1843  0.6779 -0.3793
  174SAPI  H10X19800   4.677   1.383   9.353 -0.1790  1.9373 -0.8182
  174SAPI  H10Y19801   4.511   1.434   9.408 -1.1508 -0.2334 -0.4561
  174SAPI  C31119802   4.518   1.321   9.219 -0.0873  0.3292  0.7823
  174SAPI  H11X19803   4.409   1.303   9.216 -0.0056 -0.1633  0.6804
  174SAPI  H11Y19804   4.561   1.226   9.180 -1.6337 -0.2128  0.3145
  174SAPI  C31219805   4.540   1.431   9.115 -0.2679 -0.7460 -0.3147
  174SAPI  H12X19806   4.643   1.467   9.135 -0.5839  0.6445 -1.0786
  174SAPI  H12Y19807   4.485   1.522   9.147  2.9967  2.2845 -2.5120
  174SAPI  C31319808   4.505   1.390   8.973  0.1370 -0.4704 -0.5235
  174SAPI  H13X19809   4.400   1.355   8.965  1.0323 -3.9839  1.0263
  174SAPI  H13Y19810   4.567   1.302   8.946  0.7009  0.5223 -2.6762
  174SAPI  C31419811   4.526   1.496   8.872 -0.0957 -0.6891 -0.4081
  174SAPI  H14X19812   4.556   1.438   8.782  2.2405  1.0271 -0.8364
  174SAPI  H14Y19813   4.620   1.550   8.896  1.3049 -2.6890 -1.1418
  174SAPI  C31519814   4.409   1.593   8.843 -0.2047  0.5606 -0.3171
  174SAPI  H15X19815   4.394   1.636   8.944 -0.8824 -1.6320  0.5764
  174SAPI  H15Y19816   4.317   1.535   8.817 -0.2762  0.1248  0.8263
  174SAPI  C31619817   4.454   1.700   8.736  0.0434 -0.2055  0.0043
  174SAPI  H16X19818   4.526   1.771   8.782 -1.5855  2.7014 -1.6831
  174SAPI  H16Y19819   4.365   1.758   8.704  1.0655  1.0934 -0.5538
  174SAPI  C31719820   4.516   1.646   8.604  0.3090  0.2135 -0.4772
  174SAPI  H17X19821   4.466   1.701   8.521  1.5618 -1.4017 -2.4159
  174SAPI  H17Y19822   4.482   1.542   8.583  2.3343  0.0813 -3.8423
  174SAPI  C31819823   4.662   1.676   8.593 -0.0233 -0.2254  0.0802
  174SAPI  H18X19824   4.671   1.782   8.623 -3.7711 -0.1085  1.3698
  174SAPI  H18Y19825   4.711   1.667   8.494 -0.2841 -0.5103 -0.0251
  174SAPI  H18Z19826   4.707   1.611   8.671 -1.5183 -0.1079  1.0709
  175SAPI   C1219827   0.706   6.160   5.976 -0.9461 -0.5055 -0.4703
  175SAPI    H219828   0.675   6.054   5.963  1.0576 -1.2540  0.4404
  175SAPI    O219829   0.787   6.190   5.859 -0.1585  0.4931 -1.0795
  175SAPI   HO219830   0.751   6.150   5.780 -0.1007 -1.8797  0.0092
  175SAPI   C1319831   0.584   6.254   5.988 -0.0866 -0.1081 -0.4461
  175SAPI    H319832   0.527   6.222   6.078 -0.7349  0.3619 -0.6852
  175SAPI    O319833   0.495   6.228   5.880  0.4114 -0.1227  0.0162
  175SAPI   HO319834   0.405   6.228   5.914  0.2218  1.5426 -0.3979
  175SAPI   C1419835   0.638   6.403   5.998 -0.3750  0.3239 -0.4332
  175SAPI    H419836   0.714   6.420   5.919 -0.7210  2.3563 -0.3798
  175SAPI    O419837   0.537   6.502   5.991 -0.3950 -0.0386 -0.2848
  175SAPI   HO419838   0.520   6.543   6.076  0.1046 -0.6692  0.1306
  175SAPI   C1519839   0.714   6.413   6.127  0.3096  0.2340 -0.7043
  175SAPI    H519840   0.649   6.381   6.212 -0.5854 -0.5956 -1.6638
  175SAPI    O519841   0.749   6.549   6.158 -0.1963 -0.0569 -0.3663
  175SAPI   HO519842   0.725   6.565   6.250 -3.1359 -1.7069 -0.7216
  175SAPI   C1619843   0.834   6.324   6.125  0.7494 -0.4365  0.4499
  175SAPI    H619844   0.904   6.366   6.049 -1.2858  1.8968 -0.2724
  175SAPI    O619845   0.897   6.333   6.251 -0.2866  0.0920 -0.4956
  175SAPI   HO619846   0.984   6.302   6.224 -0.6194  0.6618 -2.3699
  175SAPI   C1119847   0.798   6.181   6.098 -0.6229  0.1115 -0.2395
  175SAPI    H119848   0.739   6.144   6.184  0.6180  0.0157  0.6020
  175SAPI     P19849   0.923   5.938   6.142  0.1107 -0.4288  0.0633
  175SAPI   O1319850   1.005   5.846   6.061  0.3671  0.4365  0.7346
  175SAPI   O1419851   0.783   5.893   6.163  0.1726  1.0297 -0.3119
  175SAPI   O1219852   0.921   6.101   6.089 -0.0540 -0.2083  0.0226
  175SAPI   O1119853   0.988   5.950   6.288 -0.3088  0.0055 -0.0948
  175SAPI    C119854   1.121   5.971   6.320  0.1873 -0.3304 -0.4751
  175SAPI    HA19855   1.188   5.882   6.320  1.2478  0.3071  3.2791
  175SAPI    HB19856   1.167   6.045   6.251  0.7249 -0.7289 -0.5613
  175SAPI    C219857   1.142   6.016   6.469  0.4620  0.5027 -0.0208
  175SAPI    HS19858   1.252   6.020   6.486  0.3799  0.8089  0.4473
  175SAPI   O2119859   1.087   5.920   6.556 -0.2241 -0.9182 -0.4884
  175SAPI   C2119860   1.143   5.894   6.673 -0.0440  0.6420 -0.0117
  175SAPI   O2219861   1.239   5.951   6.720 -0.6423  0.6338 -0.4411
  175SAPI   C2219862   1.064   5.768   6.723 -0.5089 -0.2491 -0.3199
  175SAPI   H2R19863   0.957   5.782   6.698 -0.8337 -0.3903  0.9389
  175SAPI   H2S19864   1.091   5.677   6.664 -2.6085 -0.2382 -1.3876
  175SAPI    C319865   1.063   6.143   6.500  0.1029  0.6082 -0.0905
  175SAPI    HX19866   0.955   6.119   6.491 -0.2398  2.2373 -0.5860
  175SAPI    HY19867   1.095   6.217   6.423  0.9777  1.5589  1.1430
  175SAPI   O3119868   1.102   6.185   6.636  0.1476 -0.3925  0.7975
  175SAPI   C3119869   1.065   6.302   6.674 -0.1390  0.2726  0.0050
  175SAPI   O3219870   1.002   6.384   6.607 -0.1371 -0.0366 -0.1999
  175SAPI   C3219871   1.119   6.328   6.810 -0.1680 -0.2037  0.8258
  175SAPI   H2X19872   1.062   6.402   6.871  0.1559 -0.4268  1.4047
  175SAPI   H2Y19873   1.218   6.377   6.803  0.5797 -1.7672  0.1331
  175SAPI   C2319874   1.076   5.754   6.876 -0.0340  0.0488 -0.9165
  175SAPI   H3R19875   1.165   5.811   6.913 -0.6938  0.4238  0.1541
  175SAPI   H3S19876   1.108   5.657   6.919 -0.2174  0.7886  0.9893
  175SAPI   C2419877   0.953   5.795   6.959 -0.4381  0.5935 -0.5933
  175SAPI   H4R19878   0.910   5.888   6.915 -0.3328  0.0857 -1.7998
  175SAPI   H4S19879   0.990   5.818   7.061 -2.4556  0.5980  0.1950
  175SAPI   C2519880   0.835   5.699   6.974 -0.3471 -0.3955 -0.5231
  175SAPI   H5R19881   0.837   5.619   6.898 -1.0414 -0.8694 -0.0562
  175SAPI   C2619882   0.744   5.700   7.076 -0.3528  0.0528 -0.3035
  175SAPI   H6R19883   0.671   5.618   7.075 -0.0943 -0.1818 -1.5621
  175SAPI   C2719884   0.742   5.792   7.197  0.1920  0.7542  0.2192
  175SAPI   H7R19885   0.803   5.884   7.183 -0.0671  1.3226  2.4394
  175SAPI   H7S19886   0.781   5.724   7.276  0.0818  1.0322  0.5150
  175SAPI   C2819887   0.614   5.852   7.243 -0.0632 -0.5037  0.9464
  175SAPI   H8R19888   0.544   5.881   7.164  0.6278  0.3923  0.6484
  175SAPI   C2919889   0.588   5.881   7.378 -0.8743 -0.8847 -0.4934
  175SAPI   H9R19890   0.496   5.935   7.406 -0.6531 -2.0665  2.9538
  175SAPI  C21019891   0.695   5.868   7.487  0.0184  0.4485 -0.0944
  175SAPI  H10R19892   0.733   5.972   7.489 -0.0551  0.5259 -1.4815
  175SAPI  H10S19893   0.780   5.802   7.460  0.0186  0.3769  0.0820
  175SAPI  C21119894   0.626   5.824   7.605  0.3484  0.1910  0.6616
  175SAPI  H11R19895   0.546   5.750   7.589 -2.8260  3.8029 -2.0196
  175SAPI  C21219896   0.661   5.853   7.730 -0.7548 -0.0684 -0.7471
  175SAPI  H12R19897   0.600   5.821   7.816  0.4011  0.1334  0.1630
  175SAPI  C21319898   0.776   5.942   7.774  0.1179  0.3590  0.2635
  175SAPI  H13R19899   0.737   6.024   7.837  1.5517  1.4656 -0.2228
  175SAPI  H13S19900   0.821   5.992   7.685  2.0027 -0.5628  0.6287
  175SAPI  C21419901   0.888   5.863   7.834  0.6172 -0.2383  1.0412
  175SAPI  H14R19902   0.925   5.775   7.780 -0.4286 -1.2176  1.8692
  175SAPI  C21519903   0.954   5.888   7.948  0.3639  0.8213  0.2465
  175SAPI  H15R19904   1.035   5.820   7.977  0.1977  0.6243  0.2470
  175SAPI  C21619905   0.923   6.006   8.042 -0.1596  0.0596  0.0068
  175SAPI  H16R19906   0.880   6.096   7.992 -0.1877 -1.1029 -2.2086
  175SAPI  H16S19907   1.020   6.051   8.071 -0.8538  1.6547 -0.0210
  175SAPI  C21719908   0.854   5.965   8.169 -0.1387 -0.3276  0.1687
  175SAPI  H17R19909   0.750   5.932   8.147 -0.4773  0.9468 -0.2501
  175SAPI  H17S19910   0.826   6.051   8.235  2.3648  0.3453  0.4405
  175SAPI  C21819911   0.932   5.861   8.253  1.2060 -0.4930  0.7934
  175SAPI  H18R19912   1.013   5.906   8.314  1.8796 -0.9646  0.2502
  175SAPI  H18S19913   0.971   5.780   8.188  1.4997 -0.0148  0.3657
  175SAPI  C21919914   0.851   5.781   8.354 -0.6512  0.1339 -0.0423
  175SAPI  H19R19915   0.775   5.709   8.315 -0.3331 -0.7085  0.8365
  175SAPI  H19S19916   0.779   5.843   8.413 -1.0549 -2.1598  2.0691
  175SAPI  C22019917   0.945   5.710   8.449  0.2871 -0.0405  0.3177
  175SAPI  H20R19918   0.885   5.658   8.526  0.7999 -1.6472 -0.3342
  175SAPI  H20S19919   1.015   5.780   8.500 -0.1463  1.1265 -0.6283
  175SAPI  H20T19920   0.993   5.627   8.392  0.5826 -0.9778  1.8733
  175SAPI   C3319921   1.136   6.200   6.901  0.0694  0.2640  0.7839
  175SAPI   H3X19922   1.216   6.141   6.852 -1.1257 -1.8368  1.2366
  175SAPI   H3Y19923   1.041   6.142   6.897 -0.4413  1.0935 -2.1672
  175SAPI   C3419924   1.151   6.238   7.048  0.1697 -0.5622 -0.3813
  175SAPI   H4X19925   1.092   6.331   7.063  0.8389 -0.0904 -0.5871
  175SAPI   H4Y19926   1.257   6.269   7.063 -0.0330  1.1254 -2.0469
  175SAPI   C3519927   1.110   6.131   7.154  0.6022 -0.6721  0.1585
  175SAPI   H5X19928   1.166   6.041   7.121 -1.0298 -1.8089  0.3901
  175SAPI   H5Y19929   1.003   6.104   7.143  0.5785 -1.1321  1.3169
  175SAPI   C3619930   1.148   6.168   7.299  0.0855 -0.0289  0.2821
  175SAPI   H6X19931   1.092   6.260   7.325 -0.9755 -0.2714 -1.0251
  175SAPI   H6Y19932   1.256   6.186   7.316  0.8692 -3.1610 -0.6730
  175SAPI   C3719933   1.089   6.055   7.383  0.1239 -0.8686 -0.4913
  175SAPI   H7X19934   1.142   5.958   7.369 -0.8375 -1.4418 -0.2485
  175SAPI   H7Y19935   0.983   6.036   7.354  0.4140 -1.5612 -1.1330
  175SAPI   C3819936   1.092   6.095   7.531  0.1716 -0.3966 -0.0820
  175SAPI   H8X19937   1.034   6.018   7.586 -0.7243  0.4377  0.1635
  175SAPI   H8Y19938   1.057   6.200   7.543  1.2097 -0.1304  0.8007
  175SAPI   C3919939   1.240   6.079   7.583  0.2688 -0.3659 -0.3712
  175SAPI   H9X19940   1.318   6.149   7.545  0.9300  0.8125  2.8375
  175SAPI   H9Y19941   1.277   5.984   7.539  1.1185  0.0800 -0.6292
  175SAPI  C31019942   1.254   6.089   7.737 -0.4292  0.5772 -0.2116
  175SAPI  H10X19943   1.195   6.009   7.788 -0.8121 -0.8274 -2.6998
  175SAPI  H10Y19944   1.211   6.187   7.767 -1.1699  0.9314 -2.2921
  175SAPI  C31119945   1.403   6.109   7.788  0.1578  0.0213  0.3146
  175SAPI  H11X19946   1.440   6.192   7.724 -3.5364  0.1922 -1.9024
  175SAPI  H11Y19947   1.466   6.024   7.753 -1.2785 -0.4520 -1.2539
  175SAPI  C31219948   1.406   6.141   7.936  0.4888  0.3073  0.4404
  175SAPI  H12X19949   1.346   6.232   7.956  1.6671  1.3020 -0.4075
  175SAPI  H12Y19950   1.513   6.164   7.956  0.1603  1.1350  1.3326
  175SAPI  C31319951   1.347   6.036   8.028 -0.1334  0.3017 -0.0927
  175SAPI  H13X19952   1.390   5.938   7.999  1.6069  1.1722 -0.6078
  175SAPI  H13Y19953   1.237   6.034   8.018  0.0475 -0.2468 -2.7105
  175SAPI  C31419954   1.380   6.057   8.173  0.1935  0.0146  0.2158
  175SAPI  H14X19955   1.367   6.167   8.182  0.1543  0.0158  0.1430
  175SAPI  H14Y19956   1.485   6.026   8.188  0.6484 -0.1959 -2.7977
  175SAPI  C31519957   1.291   5.974   8.257  0.2980 -0.6431 -0.2600
  175SAPI  H15X19958   1.323   5.868   8.261 -0.9969 -1.0649 -0.7174
  175SAPI  H15Y19959   1.197   5.955   8.202  0.3739  0.3937 -0.7734
  175SAPI  C31619960   1.271   6.043   8.395 -0.2789  0.1411 -0.0424
  175SAPI  H16X19961   1.163   6.034   8.418  0.0304 -0.3594  1.3267
  175SAPI  H16Y19962   1.299   6.151   8.400  0.1840 -0.0198  2.8270
  175SAPI  C31719963   1.360   5.972   8.495  0.2821 -0.1527  0.4600
  175SAPI  H17X19964   1.460   5.961   8.448 -1.2955  1.0704 -3.5618
  175SAPI  H17Y19965   1.325   5.867   8.499  1.5867 -0.6203 -0.0796
  175SAPI  C31819966   1.360   6.039   8.636  0.7407 -0.4609 -0.6006
  175SAPI  H18X19967   1.258   6.072   8.664  1.3296  1.3136 -0.4714
  175SAPI  H18Y19968   1.428   6.127   8.630 -1.7969  1.5038 -2.5078
  175SAPI  H18Z19969   1.401   5.967   8.710  1.2875 -1.4146 -1.7895
  176SAPI   C1219970   6.624   2.757   6.355  0.7433 -0.3981 -0.2947
  176SAPI    H219971   6.708   2.799   6.295  2.8337 -2.5303  0.9700
  176SAPI    O219972   6.501   2.828   6.311 -0.5583 -0.4788  0.1464
  176SAPI   HO219973   6.474   2.890   6.379  2.2145 -0.4709  1.3871
  176SAPI   C1319974   6.618   2.611   6.323  0.0490  0.5574  0.3420
  176SAPI    H319975   6.708   2.562   6.365  1.4308  2.2113 -0.5671
  176SAPI    O319976   6.604   2.591   6.184  0.2776 -0.2551  0.8514
  176SAPI   HO319977   6.663   2.519   6.161  0.0940 -0.8787  2.2137
  176SAPI   C1419978   6.496   2.545   6.399 -0.1330 -0.1792  0.2829
  176SAPI    H419979   6.400   2.582   6.358 -0.5519 -2.4415 -0.9367
  176SAPI    O419980   6.500   2.406   6.371 -0.1988 -0.1755  0.2149
  176SAPI   HO419981   6.458   2.396   6.285 -0.3713 -0.7431  0.3596
  176SAPI   C1519982   6.509   2.567   6.549 -0.0672 -0.7836 -0.0010
  176SAPI    H519983   6.598   2.514   6.589 -0.7827 -1.6252  0.5108
  176SAPI    O519984   6.394   2.512   6.618 -0.4766  0.1094 -0.0990
  176SAPI   HO519985   6.351   2.587   6.659  0.5343  0.1306  0.9595
  176SAPI   C1619986   6.529   2.712   6.583  0.1868 -0.6461  0.5034
  176SAPI    H619987   6.438   2.766   6.546 -0.2334 -1.6048  0.0951
  176SAPI    O619988   6.547   2.728   6.725  0.1331 -0.3588  0.1626
  176SAPI   HO619989   6.537   2.821   6.748  3.2093 -0.0624  0.7320
  176SAPI   C1119990   6.647   2.778   6.503  0.6174 -0.0979 -0.5166
  176SAPI    H119991   6.733   2.715   6.536  0.5084  1.2688  2.7250
  176SAPI     P19992   6.816   2.980   6.553 -0.2966  0.1800 -0.4434
  176SAPI   O1319993   6.795   3.124   6.551  0.2193 -0.1629 -0.5426
  176SAPI   O1419994   6.911   2.925   6.452 -0.2346  0.1793  0.6911
  176SAPI   O1219995   6.663   2.914   6.535  0.2638 -1.0895 -0.0741
  176SAPI   O1119996   6.868   2.934   6.697  0.2424 -0.0846 -0.2370
  176SAPI    C119997   6.849   3.030   6.804  0.2319 -0.4291 -0.6388
  176SAPI    HA19998   6.916   3.116   6.784 -1.7869  1.5474  0.7000
  176SAPI    HB19999   6.748   3.075   6.811 -0.2597 -1.5956  0.0369
  176SAPI    C220000   6.893   2.969   6.943 -0.3348  0.3982  0.5252
  176SAPI    HS20001   6.976   2.899   6.922  1.1812  2.4893 -0.9512
  176SAPI   O2120002   6.784   2.901   7.001  0.1096  0.1832 -0.2339
  176SAPI   C2120003   6.813   2.798   7.075  0.1218  1.0566 -0.3368
  176SAPI   O2220004   6.928   2.753   7.096  0.0974 -0.3817  0.2720
  176SAPI   C2220005   6.689   2.751   7.152 -0.2002 -0.2157  0.3700
  176SAPI   H2R20006   6.673   2.837   7.220  0.1170  0.0946  0.0528
  176SAPI   H2S20007   6.607   2.731   7.079 -2.2785 -0.3654  2.6020
  176SAPI    C320008   6.943   3.082   7.032  0.9943 -0.0368  0.5336
  176SAPI    HX20009   6.854   3.147   7.043  1.2112  0.6473 -1.3661
  176SAPI    HY20010   7.022   3.142   6.983 -0.2243  1.3827  0.2582
  176SAPI   O3120011   6.970   3.038   7.164 -0.2720 -0.4051  0.0687
  176SAPI   C3120012   7.101   3.022   7.197  0.8438  0.1481  0.7333
  176SAPI   O3220013   7.196   3.048   7.125  0.2944  0.5121  0.0822
  176SAPI   C3220014   7.109   2.991   7.342  0.3884  0.8086 -0.2310
  176SAPI   H2X20015   7.199   3.048   7.374  0.4604  0.5129  0.1069
  176SAPI   H2Y20016   7.127   2.882   7.352  0.3525  0.8327  0.1132
  176SAPI   C2320017   6.707   2.621   7.238 -0.1663 -0.0945  0.3627
  176SAPI   H3R20018   6.782   2.551   7.195  1.5988  1.5848  0.5689
  176SAPI   H3S20019   6.604   2.580   7.232 -0.6770  1.1079  0.6071
  176SAPI   C2420020   6.738   2.647   7.384  0.3123 -0.2173  0.6995
  176SAPI   H4R20021   6.660   2.720   7.414  0.3555  0.8440 -1.5650
  176SAPI   H4S20022   6.840   2.691   7.394  0.0938  0.1402  1.4507
  176SAPI   C2520023   6.729   2.529   7.473  0.3306 -0.0711  0.3249
  176SAPI   H5R20024   6.711   2.436   7.418 -0.2855 -0.3681  1.0068
  176SAPI   C2620025   6.750   2.524   7.605 -0.4920 -0.3030 -0.2315
  176SAPI   H6R20026   6.749   2.424   7.651  2.4805 -0.4453 -0.2498
  176SAPI   C2720027   6.779   2.643   7.696 -0.4309 -0.5693 -0.4574
  176SAPI   H7R20028   6.711   2.633   7.783  0.3173 -1.1944  0.0571
  176SAPI   H7S20029   6.756   2.740   7.646  2.3947  0.3536 -0.1385
  176SAPI   C2820030   6.922   2.651   7.733  0.3168 -0.4449 -0.6290
  176SAPI   H8R20031   6.986   2.661   7.644 -2.2715 -2.5817 -2.9352
  176SAPI   C2920032   6.975   2.622   7.852  0.6260  0.2196  0.0168
  176SAPI   H9R20033   7.084   2.640   7.857  0.3499  1.8980  0.9096
  176SAPI  C21020034   6.896   2.567   7.970  0.2244 -0.1549 -0.4379
  176SAPI  H10R20035   6.793   2.533   7.943 -0.2757 -1.3220  2.4635
  176SAPI  H10S20036   6.877   2.644   8.048 -2.3695  1.3857 -2.4467
  176SAPI  C21120037   6.966   2.439   8.017  0.7285  0.4457  0.4367
  176SAPI  H11R20038   6.967   2.355   7.946 -2.0598 -0.0262  0.8306
  176SAPI  C21220039   7.015   2.416   8.144 -0.0149 -0.6175 -0.3113
  176SAPI  H12R20040   7.070   2.322   8.160  1.1562 -0.2057 -1.7208
  176SAPI  C21320041   6.999   2.518   8.252 -0.0137  0.1102  0.1878
  176SAPI  H13R20042   7.007   2.622   8.216  3.1479 -0.7570 -2.0141
  176SAPI  H13S20043   7.093   2.518   8.311  0.9430  0.4577 -1.3050
  176SAPI  C21420044   6.872   2.495   8.341  0.6800 -0.0698  0.0391
  176SAPI  H14R20045   6.786   2.539   8.289  1.1144 -0.6489 -1.2319
  176SAPI  C21520046   6.870   2.449   8.466  0.6005 -0.0105  0.5887
  176SAPI  H15R20047   6.772   2.428   8.512 -2.1305 -1.8487 -5.2018
  176SAPI  C21620048   6.997   2.401   8.544 -0.1519 -0.1464 -0.4502
  176SAPI  H16R20049   6.990   2.445   8.646  0.0852  0.8331 -0.8467
  176SAPI  H16S20050   7.092   2.438   8.500 -0.9010  3.2140  0.5043
  176SAPI  C21720051   6.997   2.249   8.572  0.6234 -0.0387 -0.0925
  176SAPI  H17R20052   6.893   2.211   8.580  0.1796  0.8694 -1.3081
  176SAPI  H17S20053   7.041   2.251   8.674 -1.3113  3.8111  0.8441
  176SAPI  C21820054   7.075   2.168   8.473 -0.1238  0.1190  1.1691
  176SAPI  H18R20055   7.033   2.199   8.375 -0.1375  0.8154  1.3917
  176SAPI  H18S20056   7.054   2.060   8.490  1.3587 -0.7343 -1.8239
  176SAPI  C21920057   7.226   2.190   8.463  0.0817 -0.0993  0.2752
  176SAPI  H19R20058   7.273   2.174   8.563 -0.3718  2.5011  0.9857
  176SAPI  H19S20059   7.257   2.292   8.431  0.4956 -0.9196 -2.1797
  176SAPI  C22020060   7.289   2.099   8.356 -0.1901 -0.7419  0.6800
  176SAPI  H20R20061   7.274   2.152   8.260 -1.0506  0.4540  1.4561
  176SAPI  H20S20062   7.245   1.997   8.354  2.8216 -2.1674  0.2855
  176SAPI  H20T20063   7.399   2.094   8.374  0.5702  1.1641 -2.6341
  176SAPI   C3320064   6.975   3.014   7.425  0.4577  0.0847  0.4649
  176SAPI   H3X20065   6.895   2.942   7.397 -0.1300  0.6588  0.6348
  176SAPI   H3Y20066   6.937   3.117   7.408 -0.5340 -0.3541 -0.1029
  176SAPI   C3420067   7.004   2.984   7.571 -0.2110  0.0233  0.0880
  176SAPI   H4X20068   7.071   2.898   7.591 -1.7318 -1.4427 -0.8554
  176SAPI   H4Y20069   6.905   2.971   7.619 -0.5838 -2.2891 -1.1689
  176SAPI   C3520070   7.076   3.103   7.647  0.2042  0.0386 -0.9258
  176SAPI   H5X20071   7.020   3.196   7.625 -0.1493 -0.5666 -2.6828
  176SAPI   H5Y20072   7.176   3.108   7.598  0.7608 -0.0109  0.1724
  176SAPI   C3620073   7.098   3.077   7.798 -0.1331 -0.2918 -0.4758
  176SAPI   H6X20074   7.156   2.984   7.815 -1.8497 -1.0426  1.7273
  176SAPI   H6Y20075   7.004   3.086   7.856  1.0666  0.7788  1.4118
  176SAPI   C3720076   7.188   3.190   7.852 -1.0795  0.3207 -0.3304
  176SAPI   H7X20077   7.140   3.289   7.869 -0.1221  0.6081  0.8016
  176SAPI   H7Y20078   7.261   3.215   7.772  1.1310  0.0060  1.5159
  176SAPI   C3820079   7.266   3.151   7.977  0.7081 -0.2521 -0.1002
  176SAPI   H8X20080   7.334   3.236   7.997  0.4892  0.0652 -0.6651
  176SAPI   H8Y20081   7.319   3.055   7.956  1.9880  0.5215 -0.5626
  176SAPI   C3920082   7.166   3.133   8.096 -0.3345 -0.0050  0.7695
  176SAPI   H9X20083   7.069   3.088   8.064 -1.2048  0.7456  2.2225
  176SAPI   H9Y20084   7.154   3.231   8.147  3.2454  0.9314  0.1063
  176SAPI  C31020085   7.222   3.035   8.197 -0.3593 -0.7741 -0.1986
  176SAPI  H10X20086   7.323   3.074   8.221 -1.0828 -0.0787  1.9166
  176SAPI  H10Y20087   7.245   2.936   8.153 -0.5721 -0.7622 -0.3412
  176SAPI  C31120088   7.143   3.025   8.324 -0.4144 -0.9104 -0.4775
  176SAPI  H11X20089   7.038   3.039   8.292  0.3108  0.5902 -2.4881
  176SAPI  H11Y20090   7.174   3.106   8.395 -1.1737 -1.3768  0.3939
  176SAPI  C31220091   7.178   2.893   8.401 -0.2649 -0.7157  0.4456
  176SAPI  H12X20092   7.286   2.869   8.386 -0.7662 -1.7383 -1.9915
  176SAPI  H12Y20093   7.110   2.818   8.356  0.3159  0.5293 -2.8449
  176SAPI  C31320094   7.152   2.904   8.550 -0.0504 -0.0813  0.0142
  176SAPI  H13X20095   7.044   2.929   8.557  0.1728  1.0387 -0.4533
  176SAPI  H13Y20096   7.196   2.989   8.607  1.7174 -0.1962 -1.1139
  176SAPI  C31420097   7.175   2.767   8.621  0.4724 -0.0745  0.4530
  176SAPI  H14X20098   7.284   2.745   8.616  0.4341 -0.2283  0.2870
  176SAPI  H14Y20099   7.114   2.684   8.580 -2.1650  1.5123  0.9900
  176SAPI  C31520100   7.129   2.767   8.775  0.1058 -0.5766  0.5115
  176SAPI  H15X20101   7.033   2.820   8.791 -0.3862 -1.6955  1.3714
  176SAPI  H15Y20102   7.205   2.835   8.821  1.2975  0.0433 -2.2051
  176SAPI  C31620103   7.128   2.629   8.848 -0.3889  0.1023  0.3382
  176SAPI  H16X20104   7.055   2.568   8.791 -0.6379  0.6373  0.0777
  176SAPI  H16Y20105   7.100   2.641   8.955  1.2955 -0.4342  0.8585
  176SAPI  C31720106   7.260   2.556   8.834 -0.9582 -0.5989  0.2782
  176SAPI  H17X20107   7.350   2.608   8.872 -0.3905 -2.0404  0.9586
  176SAPI  H17Y20108   7.281   2.556   8.724  0.8361  1.8556  0.5282
  176SAPI  C31820109   7.259   2.421   8.894  0.2635 -0.0599  0.1726
  176SAPI  H18X20110   7.211   2.354   8.820  1.7407  1.4329 -2.2673
  176SAPI  H18Y20111   7.187   2.420   8.979 -0.0402 -2.5615 -0.0412
  176SAPI  H18Z20112   7.355   2.374   8.923 -0.6403 -0.9813  1.7917
  177SLPC     N20113   6.147   6.750  11.259 -0.0660  0.1474  0.1651
  177SLPC   C1320114   6.235   6.662  11.350  0.0895  0.7996  0.9814
  177SLPC  H13A20115   6.321   6.717  11.388  0.0098  0.4034  1.7485
  177SLPC  H13B20116   6.170   6.622  11.426 -1.5389  0.1836 -0.6709
  177SLPC  H13C20117   6.280   6.586  11.288  0.0244  1.9915 -0.5816
  177SLPC   C1420118   6.103   6.871  11.334 -0.1554 -0.3478 -0.0459
  177SLPC  H14A20119   6.030   6.851  11.411  0.0534  0.6292  0.4183
  177SLPC  H14B20120   6.189   6.921  11.375 -0.0622 -1.6459  1.4065
  177SLPC  H14C20121   6.054   6.930  11.257 -0.6838  0.2674  0.7537
  177SLPC   C1520122   6.032   6.681  11.209  0.3019 -0.0056 -0.5541
  177SLPC  H15A20123   6.063   6.606  11.137  2.1078 -0.0046  0.1760
  177SLPC  H15B20124   5.975   6.635  11.288  1.4373 -1.6303 -0.6263
  177SLPC  H15C20125   5.961   6.749  11.164 -0.7814 -0.9069 -0.2675
  177SLPC   C1220126   6.229   6.795  11.133  0.1554  0.2724  0.6832
  177SLPC  H12A20127   6.304   6.861  11.175  0.6773 -0.6041  1.1555
  177SLPC  H12B20128   6.153   6.848  11.078 -0.7525 -2.0175 -0.3926
  177SLPC   C1120129   6.281   6.676  11.046  0.2060  0.0497 -0.3660
  177SLPC  H11A20130   6.327   6.601  11.113 -0.4607 -0.4211 -0.4179
  177SLPC  H11B20131   6.367   6.720  10.991  0.7058 -1.6949 -1.0473
  177SLPC     P20132   6.184   6.596  10.817  0.2366  0.2823 -0.0484
  177SLPC   O1320133   6.256   6.466  10.799  0.5559 -0.7103  0.0952
  177SLPC   O1420134   6.051   6.596  10.752  0.2514 -0.1615 -0.1579
  177SLPC   O1220135   6.175   6.620  10.973  0.1289 -0.0494  0.1110
  177SLPC   O1120136   6.276   6.707  10.757 -0.2285  0.0599  0.2037
  177SLPC    C120137   6.218   6.840  10.731  0.7940  0.2927 -0.2519
  177SLPC    HA20138   6.108   6.829  10.719  0.9423 -1.3948 -0.2666
  177SLPC    HB20139   6.245   6.913  10.810  0.2984  0.7317 -0.4855
  177SLPC    C220140   6.268   6.919  10.602 -0.2186 -0.3586  0.2877
  177SLPC    HS20141   6.187   6.990  10.575 -3.1753 -2.7597  2.0804
  177SLPC   O2120142   6.288   6.829  10.494 -0.0995 -0.2587  0.1030
  177SLPC   C2120143   6.177   6.803  10.425  0.3681 -0.4943  0.0410
  177SLPC   O2220144   6.066   6.862  10.433 -0.2528 -0.1895 -0.6394
  177SLPC   C2220145   6.201   6.663  10.352  0.0430  0.5378 -0.1602
  177SLPC   H2R20146   6.288   6.680  10.284  0.8507 -0.1471  0.6819
  177SLPC   H2S20147   6.246   6.588  10.421  2.1528  2.1126  0.2888
  177SLPC    C320148   6.413   6.986  10.628  0.4382  0.1912 -0.2290
  177SLPC    HX20149   6.474   6.904  10.671  1.3865 -0.3649 -2.4827
  177SLPC    HY20150   6.396   7.061  10.708 -0.0180  1.6724 -1.6605
  177SLPC   O3120151   6.481   7.048  10.515 -0.2378  0.2477  0.5551
  177SLPC   C3120152   6.537   6.962  10.436  0.1878 -0.5476  0.6909
  177SLPC   O3220153   6.552   6.843  10.457 -0.4580  0.1357 -0.0841
  177SLPC   C3220154   6.595   7.027  10.304 -0.2152  0.5241 -0.4333
  177SLPC   H2X20155   6.651   6.951  10.245  1.6442  0.9782  0.6539
  177SLPC   H2Y20156   6.674   7.089  10.351  1.8452  0.3774 -3.3774
  177SLPC   C2320157   6.078   6.629  10.265 -0.3370 -0.1884 -0.5279
  177SLPC   H3R20158   5.981   6.668  10.302 -2.0395 -1.7928 -2.9375
  177SLPC   H3S20159   6.060   6.521  10.248  0.2541 -0.2982 -0.4915
  177SLPC   C2420160   6.110   6.695  10.126  0.6413 -0.3719 -0.5714
  177SLPC   H4R20161   6.200   6.653  10.075 -0.1343 -0.6773 -1.7527
  177SLPC   H4S20162   6.139   6.802  10.127 -0.6132  0.0126 -1.5801
  177SLPC   C2520163   5.996   6.678  10.026 -0.0644 -0.4105  0.1022
  177SLPC   H5R20164   5.915   6.747  10.058  0.0495 -0.4916  0.5846
  177SLPC   H5S20165   5.962   6.574  10.043  0.4645 -0.1707  3.4096
  177SLPC   C2620166   6.045   6.695   9.880  0.4337  0.1829 -0.7928
  177SLPC   H6R20167   6.129   6.625   9.860 -1.9963 -2.4638 -2.6218
  177SLPC   H6S20168   6.065   6.802   9.859  2.2677  0.1266  0.4450
  177SLPC   C2720169   5.949   6.639   9.779  0.8293  0.2173 -0.1985
  177SLPC   H7R20170   5.855   6.698   9.783  0.3031 -0.5723 -0.6467
  177SLPC   H7S20171   5.925   6.536   9.811 -0.8609  1.2344  2.1169
  177SLPC   C2820172   6.003   6.644   9.635  0.2261  0.5766 -0.0568
  177SLPC   H8R20173   6.085   6.571   9.619  0.9178  1.7574 -2.2216
  177SLPC   H8S20174   6.038   6.748   9.615  0.6382  0.3747 -0.3855
  177SLPC   C2920175   5.898   6.618   9.527  0.6695  0.1962  0.2334
  177SLPC   H9R20176   5.804   6.567   9.553 -2.0533  4.4053 -0.3968
  177SLPC  C21020177   5.909   6.650   9.393 -0.1502 -0.6076 -0.2245
  177SLPC  H10R20178   5.835   6.622   9.317 -0.5912 -0.0674 -0.0049
  177SLPC  C21120179   6.023   6.736   9.342  0.3023  0.0761 -0.0664
  177SLPC  H11R20180   6.091   6.780   9.418 -0.5729 -0.4617  1.0613
  177SLPC  H11S20181   6.094   6.683   9.275  1.1051  2.0297 -0.8252
  177SLPC  C21220182   5.961   6.830   9.243  0.8498  0.1993 -0.5127
  177SLPC  H12R20183   5.956   6.933   9.281  0.1175 -0.2780  0.7323
  177SLPC  C21320184   5.926   6.816   9.114  0.3835  0.7872  0.3934
  177SLPC  H13R20185   5.878   6.900   9.061 -1.6357 -0.2374  0.5372
  177SLPC  C21420186   5.950   6.696   9.033 -0.4205  0.4515 -0.0222
  177SLPC  H14R20187   5.856   6.666   8.982  0.7044 -0.9014 -1.4110
  177SLPC  H14S20188   5.977   6.606   9.093  1.3382  0.6976 -0.3965
  177SLPC  C21520189   6.074   6.713   8.943 -0.2645  0.4030  0.1647
  177SLPC  H15R20190   6.092   6.611   8.904  3.1619  0.4742  1.2386
  177SLPC  H15S20191   6.162   6.726   9.010  0.9197  0.8387 -1.4405
  177SLPC  C21620192   6.063   6.821   8.831  0.2106 -0.0530 -0.0153
  177SLPC  H16R20193   6.117   6.916   8.852  0.3750 -0.0574 -0.4176
  177SLPC  H16S20194   5.958   6.853   8.811  0.7819  0.9843 -1.5554
  177SLPC  C21720195   6.123   6.759   8.698  0.0004 -0.1826  0.0373
  177SLPC  H17R20196   6.094   6.654   8.676  0.9413 -0.2648 -0.8877
  177SLPC  H17S20197   6.233   6.748   8.708 -0.1243 -2.1272 -0.3055
  177SLPC  C21820198   6.088   6.835   8.573  0.5660  0.3668 -0.4338
  177SLPC  H18R20199   6.115   6.780   8.480 -1.7884 -1.9052  0.1064
  177SLPC  H18S20200   6.129   6.938   8.571 -0.8598  0.9368 -1.5332
  177SLPC  H18T20201   5.978   6.829   8.568  0.6967 -2.4059 -2.3693
  177SLPC   C3320202   6.494   7.104  10.223 -0.0360 -0.0992 -0.1144
  177SLPC   H3X20203   6.538   7.184  10.160  0.3803  0.8358  1.2919
  177SLPC   H3Y20204   6.439   7.165  10.299  0.4629  0.3470 -0.1073
  177SLPC   C3420205   6.394   7.021  10.141  0.7014  0.0526  0.0875
  177SLPC   H4X20206   6.332   6.961  10.211  2.1458 -0.8093  0.6692
  177SLPC   H4Y20207   6.454   6.948  10.083  1.4000  0.7439 -0.0662
  177SLPC   C3520208   6.303   7.102  10.058  0.0297  0.3820 -0.2255
  177SLPC   H5X20209   6.259   7.187  10.116  0.3915 -0.1330  0.8285
  177SLPC   H5Y20210   6.213   7.040  10.035 -0.3023  0.7968 -0.0693
  177SLPC   C3620211   6.376   7.145   9.935 -0.6066  0.3237 -0.3637
  177SLPC   H6X20212   6.371   7.057   9.867  3.0226  0.7616 -1.4309
  177SLPC   H6Y20213   6.483   7.163   9.955 -1.0335  0.0033  2.5131
  177SLPC   C3720214   6.322   7.276   9.872  0.0019  0.4546  0.6778
  177SLPC   H7X20215   6.378   7.355   9.927  1.3699  0.1131 -0.1779
  177SLPC   H7Y20216   6.213   7.282   9.897 -0.9266  0.2100 -2.7529
  177SLPC   C3820217   6.352   7.291   9.724  0.0394 -0.2247  0.5532
  177SLPC   H8X20218   6.346   7.399   9.700 -0.3535  0.1724  2.3133
  177SLPC   H8Y20219   6.276   7.228   9.673  1.3774  0.2120 -2.2217
  177SLPC   C3920220   6.485   7.245   9.678 -0.4551 -0.5876  0.4884
  177SLPC   H9X20221   6.485   7.134   9.671 -1.2184 -0.5611 -0.1220
  177SLPC   H9Y20222   6.561   7.273   9.753  1.5214  0.4462 -1.7644
  177SLPC  C31020223   6.515   7.304   9.543  0.2658  0.1758 -0.8669
  177SLPC  H10X20224   6.614   7.270   9.505 -0.2401 -2.0879 -0.3465
  177SLPC  H10Y20225   6.525   7.414   9.550  0.7360  0.0454  1.0944
  177SLPC  C31120226   6.408   7.270   9.439 -0.0365  0.6073  0.7210
  177SLPC  H11X20227   6.309   7.314   9.464 -0.9648  1.1893 -3.2857
  177SLPC  H11Y20228   6.401   7.161   9.421 -2.4928  0.6191  1.2452
  177SLPC  C31220229   6.448   7.334   9.305 -0.1591 -0.0309  0.1918
  177SLPC  H12X20230   6.393   7.283   9.223  0.3624  0.2006 -0.3094
  177SLPC  H12Y20231   6.555   7.322   9.279  0.1133  0.3929  1.0675
  177SLPC  C31320232   6.411   7.479   9.291 -0.2299 -0.1648 -0.3693
  177SLPC  H13X20233   6.470   7.539   9.363  1.3906 -1.2241 -0.7464
  177SLPC  H13Y20234   6.307   7.511   9.317 -0.2063  2.8281 -3.3198
  177SLPC  C31420235   6.436   7.536   9.153 -0.6445 -0.2527 -0.1875
  177SLPC  H14X20236   6.544   7.519   9.131 -0.5873  1.8494 -1.8736
  177SLPC  H14Y20237   6.426   7.646   9.157  0.3743 -0.1647  0.0928
  177SLPC  C31520238   6.341   7.478   9.039 -0.6743 -0.2311 -0.0417
  177SLPC  H15X20239   6.239   7.477   9.084 -0.3868  1.7410  0.7641
  177SLPC  H15Y20240   6.366   7.371   9.023  1.2885  0.3512 -1.1970
  177SLPC  C31620241   6.356   7.549   8.906 -0.2990 -0.4939 -0.2513
  177SLPC  H16X20242   6.335   7.656   8.927 -0.6565 -0.6924  0.4445
  177SLPC  H16Y20243   6.276   7.515   8.837 -3.5578  0.7383  2.6148
  177SLPC  C31720244   6.505   7.538   8.857  0.0716  0.4565 -0.2754
  177SLPC  H17X20245   6.521   7.428   8.864 -1.2237  0.3287  0.8609
  177SLPC  H17Y20246   6.568   7.586   8.935  0.5959 -1.6098  0.6395
  177SLPC  C31820247   6.530   7.589   8.710  0.5869  0.4425  0.8378
  177SLPC  H18X20248   6.458   7.527   8.652  3.0928 -0.8788 -1.0529
  177SLPC  H18Y20249   6.625   7.565   8.658  0.8105  2.6020  0.1358
  177SLPC  H18Z20250   6.509   7.698   8.704  2.1096  0.6526 -1.7469
  178SLPC     N20251   0.821   1.394  10.703  0.0915 -1.0078  0.0015
  178SLPC   C1320252   0.788   1.534  10.655 -0.7145  0.3995 -1.0122
  178SLPC  H13A20253   0.741   1.527  10.559  1.1059 -2.0369 -1.8374
  178SLPC  H13B20254   0.729   1.585  10.729  0.2078 -2.2422  1.7666
  178SLPC  H13C20255   0.884   1.583  10.653 -0.2045 -0.6083 -2.8001
  178SLPC   C1420256   0.900   1.414  10.829 -0.0056  0.0146 -0.4613
  178SLPC  H14A20257   0.848   1.477  10.900 -0.2134  1.2857 -1.6996
  178SLPC  H14B20258   0.918   1.320  10.879  2.5330  1.1297  0.9212
  178SLPC  H14C20259   1.002   1.450  10.818 -0.5131  1.8238  0.2726
  178SLPC   C1520260   0.903   1.320  10.601  0.4512  0.4184 -0.1491
  178SLPC  H15A20261   0.933   1.221  10.633 -0.9919 -0.7195 -2.1247
  178SLPC  H15B20262   0.859   1.319  10.503 -0.9147  2.0898  0.4017
  178SLPC  H15C20263   0.995   1.371  10.578  0.3830 -0.2472 -2.0068
  178SLPC   C1220264   0.690   1.320  10.742  0.6501  0.0538 -0.9776
  178SLPC  H12A20265   0.727   1.219  10.750  0.5082 -0.1068 -2.1173
  178SLPC  H12B20266   0.627   1.335  10.655  0.7374  1.3831 -0.8332
  178SLPC   C1120267   0.602   1.372  10.864 -0.0736 -0.2277 -0.2033
  178SLPC  H11A20268   0.670   1.363  10.952  1.1077 -0.8632 -1.1352
  178SLPC  H11B20269   0.517   1.302  10.873  1.2893 -1.7520  1.6377
  178SLPC     P20270   0.464   1.567  10.938 -0.0798 -0.2524 -0.0047
  178SLPC   O1320271   0.411   1.462  11.027  0.4044 -0.1485  0.0174
  178SLPC   O1420272   0.540   1.681  11.005  0.7560 -0.1003  1.0253
  178SLPC   O1220273   0.557   1.501  10.834  0.8408 -0.0546  0.4626
  178SLPC   O1120274   0.354   1.625  10.842  0.3669  0.2519 -0.2490
  178SLPC    C120275   0.287   1.537  10.752 -0.6078 -0.4759  0.3245
  178SLPC    HA20276   0.313   1.430  10.767  0.4157 -0.2015  0.5578
  178SLPC    HB20277   0.177   1.550  10.760 -0.2886  1.6439  2.1102
  178SLPC    C220278   0.339   1.554  10.607 -0.1129 -0.5152  0.0476
  178SLPC    HS20279   0.449   1.546  10.610 -0.2257 -2.6382  0.0156
  178SLPC   O2120280   0.294   1.681  10.556  0.6180  0.8739 -0.2286
  178SLPC   C2120281   0.384   1.779  10.553  0.0681 -0.1128  0.7597
  178SLPC   O2220282   0.491   1.775  10.609  0.5009 -0.0306 -0.4200
  178SLPC   C2220283   0.347   1.889  10.461  0.3499  0.2885  0.2720
  178SLPC   H2R20284   0.262   1.948  10.501 -2.4418 -3.8166  0.9780
  178SLPC   H2S20285   0.436   1.955  10.448  0.5387  0.6308  2.8456
  178SLPC    C320286   0.298   1.434  10.512 -0.2266  0.3874 -0.9305
  178SLPC    HX20287   0.187   1.439  10.513 -0.2007  2.1216 -1.9956
  178SLPC    HY20288   0.341   1.342  10.557  2.2435  1.5182 -0.8238
  178SLPC   O3120289   0.347   1.430  10.375 -0.1510 -0.0001 -0.2468
  178SLPC   C3120290   0.475   1.416  10.364 -0.2028  0.7788 -0.3134
  178SLPC   O3220291   0.556   1.409  10.459  0.1843 -0.4436  0.6072
  178SLPC   C3220292   0.519   1.412  10.216  0.9472  0.2976 -0.7638
  178SLPC   H2X20293   0.587   1.498  10.199  0.0207  1.9185  2.7109
  178SLPC   H2Y20294   0.431   1.413  10.148  0.0659 -2.1842  0.2068
  178SLPC   C2320295   0.304   1.841  10.324 -0.0543 -0.4581  0.7275
  178SLPC   H3R20296   0.259   1.924  10.266 -1.2493 -1.7269 -0.2443
  178SLPC   H3S20297   0.224   1.764  10.325 -1.3643  0.8678  0.5016
  178SLPC   C2420298   0.412   1.785  10.230 -0.1377 -0.6838  0.5285
  178SLPC   H4R20299   0.483   1.721  10.287  0.8044 -0.0340  0.1041
  178SLPC   H4S20300   0.463   1.877  10.197 -0.5728 -0.1311  1.3417
  178SLPC   C2520301   0.367   1.718  10.102 -0.0646  0.1855  0.1594
  178SLPC   H5R20302   0.282   1.764  10.047  1.6368  2.4569 -0.7502
  178SLPC   H5S20303   0.339   1.613  10.125  0.2651 -0.1512 -0.9589
  178SLPC   C2620304   0.482   1.720  10.005 -0.1569  0.4153  0.6234
  178SLPC   H6R20305   0.571   1.684  10.061 -0.0672  0.4648  0.5149
  178SLPC   H6S20306   0.512   1.822   9.970 -0.1862  0.1954 -0.0548
  178SLPC   C2720307   0.453   1.635   9.884 -0.4093 -0.0751 -0.9544
  178SLPC   H7R20308   0.368   1.569   9.910  0.3200  0.5758  4.0557
  178SLPC   H7S20309   0.546   1.578   9.863 -0.9362 -0.9660 -0.9448
  178SLPC   C2820310   0.394   1.717   9.765  0.5614 -0.0433 -0.4430
  178SLPC   H8R20311   0.441   1.816   9.745 -1.3178  0.5971 -2.0631
  178SLPC   H8S20312   0.292   1.741   9.801  0.8199 -0.3110  0.5028
  178SLPC   C2920313   0.385   1.636   9.639  0.4761 -0.3604 -0.2664
  178SLPC   H9R20314   0.402   1.527   9.647 -0.2085 -0.4090  0.5879
  178SLPC  C21020315   0.366   1.676   9.512  0.4013 -0.3507  0.0750
  178SLPC  H10R20316   0.364   1.603   9.430 -2.0354 -0.2428 -0.0240
  178SLPC  C21120317   0.353   1.818   9.464  0.0766 -0.4810 -0.0076
  178SLPC  H11R20318   0.451   1.835   9.416  0.8072 -2.8005  0.5375
  178SLPC  H11S20319   0.366   1.895   9.543  0.9118  1.2172 -1.7138
  178SLPC  C21220320   0.245   1.845   9.364 -0.1291  0.3926 -0.0627
  178SLPC  H12R20321   0.171   1.921   9.395  0.7352  1.5724 -0.7851
  178SLPC  C21320322   0.230   1.794   9.243 -0.1478 -0.7305  0.8172
  178SLPC  H13R20323   0.151   1.827   9.175  2.2253 -0.1742 -1.8784
  178SLPC  C21420324   0.323   1.686   9.174 -0.8276 -0.4913 -0.8269
  178SLPC  H14R20325   0.254   1.605   9.143 -1.1723 -0.2202 -0.7896
  178SLPC  H14S20326   0.406   1.661   9.244 -1.2391  0.6100  0.1036
  178SLPC  C21520327   0.400   1.734   9.053  0.0635  0.2672 -0.6898
  178SLPC  H15R20328   0.490   1.674   9.029  0.7864  1.6621 -1.5830
  178SLPC  H15S20329   0.439   1.833   9.084  0.3163  0.1874 -0.7504
  178SLPC  C21620330   0.311   1.756   8.932 -0.0921 -0.0635  1.0469
  178SLPC  H16R20331   0.206   1.730   8.955 -0.3311  1.2714  1.5496
  178SLPC  H16S20332   0.336   1.680   8.855  0.9746  2.6022 -1.4288
  178SLPC  C21720333   0.313   1.896   8.873  0.1967 -0.6481 -0.9025
  178SLPC  H17R20334   0.404   1.931   8.819  0.7940  6.1554  3.2811
  178SLPC  H17S20335   0.303   1.964   8.960 -2.2368 -0.6947 -1.0790
  178SLPC  C21820336   0.183   1.920   8.783  0.2040  0.1900 -0.5766
  178SLPC  H18R20337   0.187   1.842   8.703  3.0533  0.6191 -0.9566
  178SLPC  H18S20338   0.177   2.023   8.743 -0.9072  0.3991  0.0930
  178SLPC  H18T20339   0.097   1.910   8.853  1.0413 -1.1663  0.3144
  178SLPC   C3320340   0.609   1.286  10.196  1.0061 -0.1681  0.3396
  178SLPC   H3X20341   0.666   1.259  10.287  2.3821 -0.8006 -0.6743
  178SLPC   H3Y20342   0.694   1.304  10.128  1.8021 -2.1610  0.7504
  178SLPC   C3420343   0.529   1.157  10.153  0.2916 -0.2923  0.9422
  178SLPC   H4X20344   0.464   1.113  10.231 -1.9236  1.7729  0.3812
  178SLPC   H4Y20345   0.600   1.077  10.124 -1.0042 -0.8654 -0.8198
  178SLPC   C3520346   0.428   1.169  10.037  0.2610 -0.4115 -0.4881
  178SLPC   H5X20347   0.352   1.248  10.057  2.7120  1.7081  1.0689
  178SLPC   H5Y20348   0.385   1.069  10.016 -0.4722 -0.3523  0.6096
  178SLPC   C3620349   0.505   1.213   9.909 -0.1327 -0.2188  0.3331
  178SLPC   H6X20350   0.605   1.167   9.900  0.6798  1.0197  2.4556
  178SLPC   H6Y20351   0.535   1.320   9.915 -0.8600  0.2172 -2.2560
  178SLPC   C3720352   0.418   1.192   9.778  0.3327 -0.2852  0.3257
  178SLPC   H7X20353   0.328   1.257   9.792 -0.4546 -1.3077  0.1350
  178SLPC   H7Y20354   0.373   1.091   9.778 -3.2157  1.1271  0.2681
  178SLPC   C3820355   0.476   1.233   9.644 -1.0105  0.4260 -0.5934
  178SLPC   H8X20356   0.573   1.182   9.625  0.6843  2.3209  2.1579
  178SLPC   H8Y20357   0.497   1.341   9.661  1.0177 -0.0618  0.2945
  178SLPC   C3920358   0.372   1.237   9.534 -1.3152  0.2084  0.9407
  178SLPC   H9X20359   0.301   1.321   9.553  1.7586  2.8323  1.6265
  178SLPC   H9Y20360   0.318   1.144   9.508 -0.4655  0.3447 -1.5730
  178SLPC  C31020361   0.433   1.287   9.402  0.2086 -0.1462  0.0960
  178SLPC  H10X20362   0.516   1.215   9.386 -1.3638 -1.5214 -2.6574
  178SLPC  H10Y20363   0.458   1.395   9.406 -0.5698  0.1539 -1.9074
  178SLPC  C31120364   0.344   1.278   9.275  0.2871 -0.3636 -0.4722
  178SLPC  H11X20365   0.255   1.345   9.270  1.5033  1.3255 -0.1909
  178SLPC  H11Y20366   0.303   1.174   9.278  0.2782 -0.3480  0.1222
  178SLPC  C31220367   0.425   1.290   9.145 -0.1219  0.0023 -0.2178
  178SLPC  H12X20368   0.495   1.204   9.140 -0.2247 -0.1352  0.5899
  178SLPC  H12Y20369   0.492   1.379   9.144 -0.3787  0.2373  1.1484
  178SLPC  C31320370   0.339   1.300   9.025 -0.4455  0.2129  0.6317
  178SLPC  H13X20371   0.292   1.400   9.031 -0.7685  0.4161 -3.0664
  178SLPC  H13Y20372   0.267   1.215   9.025 -0.2686  0.0582  1.1544
  178SLPC  C31420373   0.422   1.307   8.898 -0.5648 -0.0179  0.4922
  178SLPC  H14X20374   0.487   1.217   8.903  2.0428  1.5574 -1.8906
  178SLPC  H14Y20375   0.490   1.394   8.894 -1.5047  0.8197  1.8670
  178SLPC  C31520376   0.339   1.306   8.766 -0.4053  0.8922 -0.3108
  178SLPC  H15X20377   0.278   1.214   8.761  2.0527 -0.8638 -0.0776
  178SLPC  H15Y20378   0.269   1.392   8.766 -0.3902  0.9035 -0.1704
  178SLPC  C31620379   0.418   1.303   8.639  0.0971  0.0339  0.1397
  178SLPC  H16X20380   0.358   1.302   8.546  0.7839  2.0456 -0.3678
  178SLPC  H16Y20381   0.498   1.226   8.646  3.1342  2.8453 -1.1807
  178SLPC  C31720382   0.500   1.429   8.618  0.1162  0.8032  0.4855
  178SLPC  H17X20383   0.574   1.440   8.700  1.0724 -0.5888 -0.1501
  178SLPC  H17Y20384   0.432   1.516   8.604 -1.0676 -0.2207 -0.2909
  178SLPC  C31820385   0.585   1.427   8.492  0.8799  0.1162  0.6748
  178SLPC  H18X20386   0.533   1.377   8.408  2.1162  0.8198 -0.5616
  178SLPC  H18Y20387   0.686   1.390   8.520  0.5152 -2.6016 -1.2152
  178SLPC  H18Z20388   0.598   1.530   8.451  2.9252 -0.2767  0.1992
  179SLPC     N20389   2.975   1.191  10.846  0.5277  0.3100 -0.1705
  179SLPC   C1320390   3.081   1.089  10.837  0.0596 -0.1164 -0.3970
  179SLPC  H13A20391   3.163   1.141  10.790  0.3402 -0.5657 -0.4096
  179SLPC  H13B20392   3.113   1.053  10.934 -0.3491  0.2732 -0.1102
  179SLPC  H13C20393   3.065   1.004  10.773  0.0409 -0.9968  0.7324
  179SLPC   C1420394   3.029   1.292  10.937 -0.1380 -0.3064 -0.3518
  179SLPC  H14A20395   3.128   1.327  10.909 -0.1175  1.7902  2.0288
  179SLPC  H14B20396   2.965   1.377  10.950  0.1247 -0.4773  2.9264
  179SLPC  H14C20397   3.046   1.250  11.035 -1.7842  0.5222  0.3228
  179SLPC   C1520398   2.847   1.142  10.900 -0.7093 -0.5810  0.6634
  179SLPC  H15A20399   2.858   1.115  11.004  1.6744  1.0281  0.8980
  179SLPC  H15B20400   2.769   1.216  10.904 -0.5385 -0.2706 -0.9611
  179SLPC  H15C20401   2.799   1.065  10.840 -0.9717  0.5772 -0.6666
  179SLPC   C1220402   2.951   1.250  10.708 -0.1590 -0.5151  0.1080
  179SLPC  H12A20403   2.919   1.185  10.629 -1.9743 -0.6034  0.8769
  179SLPC  H12B20404   3.042   1.300  10.678 -0.8957  1.5858  1.1629
  179SLPC   C1120405   2.835   1.356  10.706 -0.5917  0.2380  0.3509
  179SLPC  H11A20406   2.854   1.431  10.627  2.5631 -0.3661  0.4177
  179SLPC  H11B20407   2.821   1.401  10.806  0.3874 -2.4787  1.8148
  179SLPC     P20408   2.673   1.231  10.549 -0.1437  0.3124  0.2360
  179SLPC   O1320409   2.748   1.108  10.539  0.5791 -0.2004  0.2019
  179SLPC   O1420410   2.525   1.219  10.549 -0.2238  0.4937  0.1039
  179SLPC   O1220411   2.709   1.295  10.683 -0.5206  0.3900 -0.0770
  179SLPC   O1120412   2.725   1.334  10.438 -0.2858  0.2451  0.5735
  179SLPC    C120413   2.665   1.462  10.435 -0.2287 -0.1314 -0.6513
  179SLPC    HA20414   2.586   1.495  10.505 -1.6231  1.1762 -2.7200
  179SLPC    HB20415   2.747   1.537  10.440 -0.1213 -0.2876 -0.0170
  179SLPC    C220416   2.607   1.483  10.292 -0.0430 -0.6342  0.3949
  179SLPC    HS20417   2.549   1.577  10.298 -0.1969 -0.3554 -3.2854
  179SLPC   O2120418   2.521   1.375  10.251  0.0638  0.2023  0.1726
  179SLPC   C2120419   2.398   1.385  10.314 -0.7138  0.2419 -0.0166
  179SLPC   O2220420   2.367   1.466  10.403 -0.3019  0.5250  0.0855
  179SLPC   C2220421   2.309   1.273  10.263  0.0271  0.5666  0.6076
  179SLPC   H2R20422   2.357   1.186  10.313 -1.5240 -0.8799 -0.2936
  179SLPC   H2S20423   2.205   1.288  10.298 -0.0322  0.7542  0.3546
  179SLPC    C320424   2.720   1.485  10.185  0.2131 -0.5582  0.0076
  179SLPC    HX20425   2.781   1.395  10.207 -0.3030 -1.0438 -0.5136
  179SLPC    HY20426   2.788   1.571  10.205 -2.1122  2.2102 -2.8827
  179SLPC   O3120427   2.680   1.479  10.051 -0.2596  0.2683  0.0397
  179SLPC   C3120428   2.603   1.578  10.006  0.1878  0.2008  0.1320
  179SLPC   O3220429   2.575   1.673  10.075 -0.1907 -0.0836 -0.1046
  179SLPC   C3220430   2.549   1.540   9.865 -0.1291 -0.5126  0.0635
  179SLPC   H2X20431   2.440   1.565   9.858  0.0693  0.4724  0.2967
  179SLPC   H2Y20432   2.551   1.430   9.856 -3.5510 -0.9031  2.1407
  179SLPC   C2320433   2.314   1.242  10.111 -0.1887  0.5828 -0.7629
  179SLPC   H3R20434   2.248   1.153  10.097  1.4249 -1.0151  1.1046
  179SLPC   H3S20435   2.416   1.211  10.078 -0.1604  1.5568 -1.6527
  179SLPC   C2420436   2.265   1.348  10.016  1.0998 -0.2348  0.5366
  179SLPC   H4R20437   2.332   1.436  10.022  1.0979 -0.0636 -1.4307
  179SLPC   H4S20438   2.166   1.381  10.053  0.5673 -1.7697  0.5698
  179SLPC   C2520439   2.258   1.296   9.866 -0.3024  0.3057  0.6108
  179SLPC   H5R20440   2.224   1.191   9.874 -0.2390 -0.0126 -2.3463
  179SLPC   H5S20441   2.359   1.273   9.829  0.2899  0.0315  2.3031
  179SLPC   C2620442   2.174   1.374   9.767  0.4734 -0.4847 -0.7746
  179SLPC   H6R20443   2.248   1.442   9.719 -1.2405  1.3107 -1.0096
  179SLPC   H6S20444   2.097   1.440   9.812  3.3824  3.0240 -0.5103
  179SLPC   C2720445   2.093   1.291   9.661 -0.5059 -0.2368  0.4244
  179SLPC   H7R20446   2.041   1.375   9.610  0.0141  0.1800  0.5687
  179SLPC   H7S20447   2.014   1.233   9.713 -1.6737  0.7914 -0.1640
  179SLPC   C2820448   2.168   1.211   9.554  0.4077 -0.4555  0.2223
  179SLPC   H8R20449   2.090   1.178   9.482  0.8931 -0.7281 -0.1850
  179SLPC   H8S20450   2.215   1.122   9.601  0.1195  0.1419  1.6855
  179SLPC   C2920451   2.279   1.292   9.474 -0.0890 -0.3745 -0.3252
  179SLPC   H9R20452   2.360   1.330   9.538 -1.4339  2.4493 -0.1406
  179SLPC  C21020453   2.270   1.323   9.347  0.1249 -0.3724 -0.2066
  179SLPC  H10R20454   2.346   1.390   9.302 -1.1611  1.1995 -0.1593
  179SLPC  C21120455   2.162   1.288   9.244  0.4734  0.7777  0.2011
  179SLPC  H11R20456   2.082   1.226   9.289 -2.6047  2.3055 -2.7385
  179SLPC  H11S20457   2.199   1.222   9.162  0.3145  0.8033  0.1079
  179SLPC  C21220458   2.099   1.402   9.177 -0.5984 -0.3945 -0.2981
  179SLPC  H12R20459   2.060   1.481   9.242 -0.8869 -0.7003 -0.0975
  179SLPC  C21320460   2.068   1.412   9.047  0.3014 -0.0343 -0.7676
  179SLPC  H13R20461   2.024   1.510   9.022 -0.0001  0.5309  1.7490
  179SLPC  C21420462   2.093   1.317   8.935  0.1430  0.9598  0.4301
  179SLPC  H14R20463   2.090   1.211   8.969 -0.7566  1.0876  0.7656
  179SLPC  H14S20464   2.193   1.338   8.890  1.5377  1.7366  3.6583
  179SLPC  C21520465   1.988   1.332   8.825  0.9707  0.1667  1.0459
  179SLPC  H15R20466   2.006   1.426   8.768 -0.8232  0.7316  1.3464
  179SLPC  H15S20467   1.886   1.321   8.867  0.9417  0.6966  1.1181
  179SLPC  C21620468   2.015   1.213   8.723 -0.3009  0.5490 -0.3601
  179SLPC  H16R20469   2.030   1.125   8.790  1.7018  1.5755  0.6337
  179SLPC  H16S20470   2.117   1.217   8.678  1.2852 -2.1259  2.5873
  179SLPC  C21720471   1.906   1.196   8.615  0.1186  0.8567 -0.3669
  179SLPC  H17R20472   1.806   1.195   8.664  0.7454  0.4155  0.9447
  179SLPC  H17S20473   1.904   1.095   8.566 -3.0761  1.1637 -1.0783
  179SLPC  C21820474   1.906   1.300   8.502  0.9884 -0.1164  0.0893
  179SLPC  H18R20475   1.813   1.358   8.525  0.8382 -0.0459 -0.6701
  179SLPC  H18S20476   1.896   1.245   8.406  1.6125 -1.4346  0.7555
  179SLPC  H18T20477   1.995   1.366   8.506  0.0898  1.1165  0.4410
  179SLPC   C3320478   2.614   1.613   9.752  0.2931  0.6212 -0.3996
  179SLPC   H3X20479   2.721   1.584   9.757 -0.0802 -0.5638  2.3907
  179SLPC   H3Y20480   2.607   1.724   9.764 -0.2625  0.3621  2.0584
  179SLPC   C3420481   2.546   1.579   9.619  0.2735  0.3519 -0.2062
  179SLPC   H4X20482   2.437   1.602   9.625  0.6820  2.4123 -0.0615
  179SLPC   H4Y20483   2.561   1.471   9.598  0.7955  0.6276 -1.3475
  179SLPC   C3520484   2.607   1.654   9.502  0.3500 -0.6019  0.3919
  179SLPC   H5X20485   2.717   1.647   9.514  0.2996 -2.2395  0.1637
  179SLPC   H5Y20486   2.575   1.759   9.516  3.0528  0.3416  0.0923
  179SLPC   C3620487   2.567   1.593   9.373 -0.0663  0.1581  0.1202
  179SLPC   H6X20488   2.457   1.600   9.377 -0.1534 -0.8003 -0.3592
  179SLPC   H6Y20489   2.598   1.486   9.376 -1.4653 -0.2638 -0.0836
  179SLPC   C3720490   2.617   1.673   9.252 -0.3480  0.7184 -0.6160
  179SLPC   H7X20491   2.728   1.679   9.253 -0.3348  0.5050 -0.7475
  179SLPC   H7Y20492   2.586   1.779   9.261 -0.6765  0.5573  0.3215
  179SLPC   C3820493   2.590   1.604   9.123  0.1281 -0.5336  0.2761
  179SLPC   H8X20494   2.632   1.502   9.132  1.9937  0.0876 -0.8570
  179SLPC   H8Y20495   2.646   1.646   9.037 -2.2258 -0.8127 -1.5179
  179SLPC   C3920496   2.439   1.601   9.086  0.9064 -0.2736  0.4036
  179SLPC   H9X20497   2.390   1.700   9.079  2.6841  0.5293 -2.6816
  179SLPC   H9Y20498   2.394   1.538   9.166 -2.7259  1.9335  0.3485
  179SLPC  C31020499   2.403   1.525   8.957 -0.0841 -0.2810 -0.3462
  179SLPC  H10X20500   2.294   1.508   8.947 -0.9588  3.5629  0.9896
  179SLPC  H10Y20501   2.443   1.422   8.967  1.9309  0.3060 -1.8182
  179SLPC  C31120502   2.456   1.591   8.829 -0.5377  0.5284 -0.2246
  179SLPC  H11X20503   2.558   1.635   8.840  0.2513 -1.3521  0.3859
  179SLPC  H11Y20504   2.391   1.680   8.811  0.8835  1.4581 -1.0191
  179SLPC  C31220505   2.442   1.504   8.707 -0.2294  0.1553  0.0437
  179SLPC  H12X20506   2.468   1.402   8.742 -0.8457 -0.3752 -0.9781
  179SLPC  H12Y20507   2.517   1.536   8.631  0.9974 -1.5241  0.4888
  179SLPC  C31320508   2.307   1.502   8.649 -0.4321 -0.0943  0.2087
  179SLPC  H13X20509   2.230   1.521   8.728 -0.2695  3.2130 -0.2917
  179SLPC  H13Y20510   2.289   1.402   8.604  0.3448 -0.7404  1.2932
  179SLPC  C31420511   2.285   1.602   8.537  0.4961  0.0221 -0.5356
  179SLPC  H14X20512   2.355   1.583   8.453 -0.1452 -0.7500 -0.9043
  179SLPC  H14Y20513   2.304   1.707   8.570 -1.9222  0.1973  0.5273
  179SLPC  C31520514   2.143   1.596   8.472  0.3687 -0.2927  0.5361
  179SLPC  H15X20515   2.065   1.614   8.549  0.9084  1.4035  0.7254
  179SLPC  H15Y20516   2.147   1.493   8.429  0.8166 -0.1539  0.2411
  179SLPC  C31620517   2.141   1.701   8.360 -0.1146 -0.4038  0.5657
  179SLPC  H16X20518   2.223   1.670   8.292  0.9942 -0.4985  1.9261
  179SLPC  H16Y20519   2.153   1.805   8.399 -0.8932 -0.1271  0.1180
  179SLPC  C31720520   2.027   1.691   8.262 -0.0773 -0.0586  0.0077
  179SLPC  H17X20521   2.026   1.782   8.199 -1.1044 -0.3955 -0.4924
  179SLPC  H17Y20522   1.927   1.685   8.310 -1.0939  0.6248 -1.9088
  179SLPC  C31820523   2.040   1.567   8.161  0.3852  0.3965 -0.4749
  179SLPC  H18X20524   1.969   1.565   8.076  1.2800  0.3467 -1.2361
  179SLPC  H18Y20525   2.035   1.476   8.223 -0.8649  1.1568  0.5887
  179SLPC  H18Z20526   2.139   1.567   8.109  1.4281 -1.8297  1.3281
  180SLPC     N20527   5.215   5.140  10.741 -0.2083 -0.5725  0.0652
  180SLPC   C1320528   5.109   5.069  10.668 -0.2062 -0.2143  0.5075
  180SLPC  H13A20529   5.090   4.971  10.709  2.9393  0.0460  2.9273
  180SLPC  H13B20530   5.016   5.124  10.676 -0.4600 -0.2847 -1.4805
  180SLPC  H13C20531   5.132   5.062  10.563 -1.1804 -1.4780  0.3616
  180SLPC   C1420532   5.254   5.257  10.653  0.0682  0.1608  0.5123
  180SLPC  H14A20533   5.320   5.324  10.706  0.6454 -0.0835  0.1167
  180SLPC  H14B20534   5.304   5.220  10.564  2.9858 -0.7964  2.4090
  180SLPC  H14C20535   5.169   5.317  10.625  0.5298  0.1864 -0.9124
  180SLPC   C1520536   5.337   5.060  10.754  0.2325  0.4047 -0.6252
  180SLPC  H15A20537   5.377   5.035  10.657  3.2708 -1.7838  1.0090
  180SLPC  H15B20538   5.414   5.116  10.804 -1.3031  0.2344  2.1387
  180SLPC  H15C20539   5.319   4.964  10.801 -1.5546 -0.2594 -2.5212
  180SLPC   C1220540   5.172   5.182  10.881  0.7390  0.4870 -0.1538
  180SLPC  H12A20541   5.260   5.222  10.928  0.0887  0.2416  1.3461
  180SLPC  H12B20542   5.141   5.101  10.946  0.2043  0.8016 -0.0099
  180SLPC   C1120543   5.048   5.278  10.897 -0.3116  0.1086 -0.8605
  180SLPC  H11A20544   5.083   5.378  10.863  0.8578  0.2626  0.6625
  180SLPC  H11B20545   5.045   5.304  11.005 -0.8931 -0.7069 -0.6740
  180SLPC     P20546   4.803   5.200  10.935  0.1247  0.0824 -0.0466
  180SLPC   O1320547   4.840   5.087  11.024  0.2308 -0.0867  0.4729
  180SLPC   O1420548   4.768   5.329  10.999 -0.8891  0.2889  0.0134
  180SLPC   O1220549   4.927   5.232  10.836  0.4396  0.3811 -0.4083
  180SLPC   O1120550   4.695   5.164  10.826  0.1486  0.4829 -0.0584
  180SLPC    C120551   4.612   5.047  10.824 -0.1636 -0.0999 -0.1605
  180SLPC    HA20552   4.672   4.960  10.789 -0.6929 -0.9249  0.9248
  180SLPC    HB20553   4.570   5.021  10.924  1.7617 -0.0524  0.7074
  180SLPC    C220554   4.493   5.060  10.724  0.6315 -0.4342 -0.6945
  180SLPC    HS20555   4.427   4.970  10.722 -1.3285  0.9478 -1.5593
  180SLPC   O2120556   4.541   5.092  10.593 -0.2801 -0.4730 -0.6002
  180SLPC   C2120557   4.582   4.986  10.530 -0.0056 -0.0974 -0.2168
  180SLPC   O2220558   4.574   4.871  10.574  0.7534  0.4756 -0.3492
  180SLPC   C2220559   4.639   5.018  10.402  0.0706 -0.7977 -0.4104
  180SLPC   H2R20560   4.579   5.094  10.349 -0.6066  1.6041  3.4353
  180SLPC   H2S20561   4.743   5.057  10.409  0.8929 -2.6150 -1.7062
  180SLPC    C320562   4.391   5.158  10.774 -0.4531 -0.0104  0.2571
  180SLPC    HX20563   4.419   5.266  10.772  1.1106 -0.3900 -0.6434
  180SLPC    HY20564   4.387   5.129  10.882 -1.2924  2.5297  0.9697
  180SLPC   O3120565   4.268   5.139  10.710 -0.8403 -0.3113 -0.1380
  180SLPC   C3120566   4.164   5.223  10.736  0.9315  0.2998 -0.4495
  180SLPC   O3220567   4.162   5.294  10.835  0.8640  0.1060  0.3028
  180SLPC   C3220568   4.069   5.233  10.615  0.1617  0.3988 -0.2037
  180SLPC   H2X20569   4.015   5.136  10.609  0.2975  0.3939 -2.1930
  180SLPC   H2Y20570   4.113   5.249  10.514 -0.5356 -0.6102 -0.6850
  180SLPC   C2320571   4.653   4.897  10.299  0.2803  0.9292  0.0616
  180SLPC   H3R20572   4.709   4.815  10.349  0.4535  0.4389 -0.9079
  180SLPC   H3S20573   4.699   4.930  10.203 -2.0496  2.7941 -0.5083
  180SLPC   C2420574   4.515   4.845  10.246 -0.3071  0.3876 -0.2954
  180SLPC   H4R20575   4.430   4.875  10.312  0.7132 -0.6902  1.5823
  180SLPC   H4S20576   4.503   4.735  10.244 -2.6490  0.6010 -1.5242
  180SLPC   C2520577   4.485   4.891  10.099 -0.8312 -0.6875  0.1995
  180SLPC   H5R20578   4.516   4.997  10.085 -0.9516 -0.6874 -0.0737
  180SLPC   H5S20579   4.374   4.900  10.090 -0.6937  0.8545 -0.3004
  180SLPC   C2620580   4.545   4.801   9.993  0.2383 -0.1662  0.1653
  180SLPC   H6R20581   4.515   4.694   9.998 -0.5877  0.0326 -0.3902
  180SLPC   H6S20582   4.656   4.803  10.000  0.3654 -1.8290 -0.8343
  180SLPC   C2720583   4.511   4.853   9.852  0.5246 -0.7709 -0.9075
  180SLPC   H7R20584   4.529   4.962   9.839 -1.3312 -0.4939 -1.3766
  180SLPC   H7S20585   4.401   4.839   9.843  0.0615  2.1590 -0.5955
  180SLPC   C2820586   4.583   4.776   9.746  0.0891  0.9410  0.2683
  180SLPC   H8R20587   4.533   4.819   9.657 -1.1742  0.5528  0.7612
  180SLPC   H8S20588   4.563   4.669   9.767  0.5212  0.9266  0.6160
  180SLPC   C2920589   4.740   4.793   9.751  0.3134  0.6322 -0.1522
  180SLPC   H9R20590   4.794   4.787   9.846  0.5313 -0.1399 -0.3102
  180SLPC  C21020591   4.816   4.807   9.642 -0.4929  0.1746 -0.1629
  180SLPC  H10R20592   4.925   4.807   9.654 -0.4603 -1.1606 -0.3605
  180SLPC  C21120593   4.760   4.828   9.509  0.1041  0.7539 -0.9567
  180SLPC  H11R20594   4.712   4.928   9.504  0.3553  1.0103  1.0540
  180SLPC  H11S20595   4.696   4.740   9.489  3.7578 -2.9207  1.9224
  180SLPC  C21220596   4.870   4.821   9.410  0.3241  0.6542  0.0531
  180SLPC  H12R20597   4.975   4.822   9.442  0.2472  2.0234  0.3069
  180SLPC  C21320598   4.847   4.791   9.278  0.7186 -0.2950 -0.5293
  180SLPC  H13R20599   4.926   4.793   9.203  1.1525 -0.6733 -0.0920
  180SLPC  C21420600   4.708   4.776   9.214 -0.3323 -0.0734 -0.4802
  180SLPC  H14R20601   4.626   4.837   9.257  1.4739  1.1437  1.4490
  180SLPC  H14S20602   4.677   4.672   9.238 -0.9641 -0.0101 -0.9980
  180SLPC  C21520603   4.715   4.783   9.064 -0.5431  0.3508  0.6209
  180SLPC  H15R20604   4.741   4.880   9.017  1.2375 -0.8799 -1.1017
  180SLPC  H15S20605   4.612   4.770   9.024 -0.6760  0.7329  0.8338
  180SLPC  C21620606   4.800   4.670   8.998 -0.7081  0.0589  0.2340
  180SLPC  H16R20607   4.786   4.577   9.058 -0.1203  0.1498  0.5181
  180SLPC  H16S20608   4.909   4.690   9.008 -0.4903 -1.8713  3.0565
  180SLPC  C21720609   4.760   4.632   8.851  0.1984  0.2537  0.6740
  180SLPC  H17R20610   4.668   4.569   8.852 -0.6029  1.3053 -0.8687
  180SLPC  H17S20611   4.843   4.578   8.801  1.0864  1.9826  0.1856
  180SLPC  C21820612   4.737   4.754   8.755 -1.1209 -0.4940 -0.5686
  180SLPC  H18R20613   4.653   4.815   8.794 -3.2037 -1.2110 -3.5736
  180SLPC  H18S20614   4.703   4.721   8.655  0.5028 -2.4093 -0.5499
  180SLPC  H18T20615   4.824   4.819   8.734  0.3320 -1.9275  0.7215
  180SLPC   C3320616   3.959   5.343  10.635  0.2143  0.3697  0.7705
  180SLPC   H3X20617   3.990   5.447  10.660  1.2074  0.4307 -0.5889
  180SLPC   H3Y20618   3.886   5.310  10.712 -1.9307  0.9065 -0.9216
  180SLPC   C3420619   3.859   5.353  10.514  0.3104 -0.2151  0.3932
  180SLPC   H4X20620   3.763   5.396  10.551  1.0172 -0.8692  3.1923
  180SLPC   H4Y20621   3.821   5.257  10.472  1.2041  0.1253 -1.2877
  180SLPC   C3520622   3.911   5.439  10.396 -0.6449 -0.6577  0.1383
  180SLPC   H5X20623   4.020   5.433  10.377 -0.9868 -0.1048 -2.2766
  180SLPC   H5Y20624   3.904   5.546  10.426  0.3439 -0.1614 -1.2688
  180SLPC   C3620625   3.831   5.422  10.268  0.1001 -0.0916 -0.2828
  180SLPC   H6X20626   3.722   5.439  10.278 -0.0889 -0.8449 -1.0554
  180SLPC   H6Y20627   3.838   5.314  10.243 -1.5770 -0.0483 -1.0523
  180SLPC   C3720628   3.896   5.506  10.159  0.4882  0.1740 -0.1262
  180SLPC   H7X20629   4.001   5.473  10.149  0.1375 -0.7721 -0.7705
  180SLPC   H7Y20630   3.891   5.616  10.177  0.9968  0.2251 -0.2758
  180SLPC   C3820631   3.830   5.468  10.019 -0.3414  0.0038  0.5929
  180SLPC   H8X20632   3.726   5.503  10.036 -0.0361  0.9008  0.6751
  180SLPC   H8Y20633   3.860   5.363   9.999  1.0607  0.5330 -0.2443
  180SLPC   C3920634   3.886   5.561   9.905 -0.3504 -0.1485 -0.4730
  180SLPC   H9X20635   3.995   5.541   9.901  0.0281  1.7723 -0.7352
  180SLPC   H9Y20636   3.888   5.669   9.931  0.2979  0.0531 -1.2993
  180SLPC  C31020637   3.808   5.547   9.775 -0.4787  1.0947  0.2517
  180SLPC  H10X20638   3.699   5.553   9.797 -0.6302  2.4611 -0.7545
  180SLPC  H10Y20639   3.836   5.448   9.732  1.1897  0.2838  2.9954
  180SLPC  C31120640   3.834   5.673   9.685 -0.8822  0.0127 -0.2377
  180SLPC  H11X20641   3.845   5.757   9.758  0.5680  0.0224 -0.4475
  180SLPC  H11Y20642   3.751   5.701   9.617 -1.8129 -1.1010  0.4029
  180SLPC  C31220643   3.966   5.659   9.616 -0.3714 -0.1031  0.2060
  180SLPC  H12X20644   4.036   5.587   9.662 -1.3791  0.3674  2.6830
  180SLPC  H12Y20645   4.017   5.758   9.618 -1.2539  0.5340 -2.8941
  180SLPC  C31320646   3.941   5.627   9.472  0.0462 -0.3357  0.2329
  180SLPC  H13X20647   3.888   5.715   9.430 -0.7141 -1.0405 -0.3277
  180SLPC  H13Y20648   3.872   5.540   9.458 -0.2781 -0.3184  1.5763
  180SLPC  C31420649   4.074   5.619   9.400 -0.6174  0.2422 -0.5032
  180SLPC  H14X20650   4.141   5.540   9.439 -2.0585 -1.6985 -1.7877
  180SLPC  H14Y20651   4.119   5.719   9.422  0.0930 -0.6052  2.3829
  180SLPC  C31520652   4.065   5.600   9.251  0.0060  0.0417  0.1692
  180SLPC  H15X20653   4.008   5.676   9.194 -1.0541 -0.1804  0.9139
  180SLPC  H15Y20654   4.003   5.510   9.231  0.1714 -0.0670  0.1461
  180SLPC  C31620655   4.192   5.610   9.176  0.6341  0.3835  0.7319
  180SLPC  H16X20656   4.265   5.538   9.220  1.4178 -0.5306 -1.8831
  180SLPC  H16Y20657   4.241   5.708   9.195 -0.8505  1.2887  0.0830
  180SLPC  C31720658   4.170   5.594   9.025  0.2422  0.2095  0.2857
  180SLPC  H17X20659   4.096   5.665   8.983  0.2567 -0.2138 -0.4830
  180SLPC  H17Y20660   4.130   5.493   8.999 -2.4274  1.1624  0.3603
  180SLPC  C31820661   4.292   5.612   8.940 -0.2943  0.2482  0.2388
  180SLPC  H18X20662   4.267   5.600   8.833 -3.0725 -0.1121  0.8345
  180SLPC  H18Y20663   4.370   5.538   8.968 -0.8592  0.4231  2.4756
  180SLPC  H18Z20664   4.336   5.712   8.958 -0.5101  0.1515  1.4365
  181SLPC     N20665   0.656   6.144  11.174  0.0374  0.3807 -0.6296
  181SLPC   C1320666   0.791   6.077  11.164 -0.0524 -0.3697  0.7288
  181SLPC  H13A20667   0.792   6.004  11.243 -1.3429 -0.8443  0.3402
  181SLPC  H13B20668   0.798   6.034  11.065 -1.0779  2.0757 -0.4969
  181SLPC  H13C20669   0.874   6.145  11.165  0.3864 -0.6823 -2.5168
  181SLPC   C1420670   0.636   6.193  11.320  0.0546 -0.2269  0.1716
  181SLPC  H14A20671   0.688   6.283  11.348  0.5444 -0.6612  0.6832
  181SLPC  H14B20672   0.532   6.216  11.337  0.0071 -1.3295  1.5759
  181SLPC  H14C20673   0.668   6.115  11.388 -0.3969  0.9368  1.7720
  181SLPC   C1520674   0.553   6.028  11.159  0.0705  0.3191  0.7008
  181SLPC  H15A20675   0.560   5.988  11.060 -0.2584  4.1823 -1.0829
  181SLPC  H15B20676   0.570   5.961  11.242  1.0599 -0.7702 -0.3436
  181SLPC  H15C20677   0.456   6.073  11.153  0.3523  0.7895 -0.6771
  181SLPC   C1220678   0.640   6.252  11.072 -0.4675  0.1887  0.6968
  181SLPC  H12A20679   0.537   6.276  11.051 -0.1147  0.8778 -0.2979
  181SLPC  H12B20680   0.676   6.215  10.977  1.4143  0.8616  1.0855
  181SLPC   C1120681   0.723   6.377  11.103 -0.3968 -0.5233 -0.8800
  181SLPC  H11A20682   0.691   6.418  11.202 -0.9904 -0.7280 -0.9833
  181SLPC  H11B20683   0.698   6.464  11.038 -0.2455 -0.0951 -0.3791
  181SLPC     P20684   0.944   6.400  10.969 -0.1300 -0.0091  0.4853
  181SLPC   O1320685   0.965   6.545  10.980 -0.5160  0.5332 -0.3798
  181SLPC   O1420686   1.064   6.313  10.965  0.7266 -0.2328  0.0585
  181SLPC   O1220687   0.863   6.353  11.095 -0.1957  0.1447  0.0004
  181SLPC   O1120688   0.860   6.366  10.841  0.4196  0.1843 -0.1788
  181SLPC    C120689   0.750   6.447  10.793  0.1563  0.4773  0.6236
  181SLPC    HA20690   0.654   6.394  10.810  0.2721  0.4514  1.2320
  181SLPC    HB20691   0.755   6.539  10.856 -0.0079 -0.5754  2.2279
  181SLPC    C220692   0.757   6.472  10.638  0.4358 -1.0510  1.0325
  181SLPC    HS20693   0.857   6.496  10.598 -0.6596  1.0715 -0.6336
  181SLPC   O2120694   0.659   6.565  10.597 -0.0109  0.5241 -0.2010
  181SLPC   C2120695   0.697   6.689  10.593 -0.1345 -0.2979 -0.1738
  181SLPC   O2220696   0.811   6.732  10.618  0.1043  0.0057  0.2530
  181SLPC   C2220697   0.576   6.790  10.589  0.7519 -0.7718  0.1290
  181SLPC   H2R20698   0.478   6.737  10.588  1.3811 -1.9714  0.6529
  181SLPC   H2S20699   0.585   6.844  10.686  0.1342  0.3254 -0.4065
  181SLPC    C320700   0.725   6.339  10.568 -0.4564  0.4714 -0.0242
  181SLPC    HX20701   0.617   6.315  10.583 -0.3236  0.6203  1.2824
  181SLPC    HY20702   0.785   6.264  10.623 -1.0308 -0.2227 -0.3278
  181SLPC   O3120703   0.763   6.340  10.428 -0.7342  0.1583 -0.8002
  181SLPC   C3120704   0.891   6.303  10.390  0.3731 -0.2532 -0.6047
  181SLPC   O3220705   0.981   6.295  10.470 -0.4183 -0.3283 -0.4911
  181SLPC   C3220706   0.897   6.301  10.233  0.2185  0.3431 -0.3687
  181SLPC   H2X20707   0.895   6.195  10.198  1.7633 -0.1694  0.9648
  181SLPC   H2Y20708   0.987   6.357  10.199 -0.0817 -0.3910 -2.5483
  181SLPC   C2320709   0.596   6.902  10.485 -0.1800 -0.0125  0.3142
  181SLPC   H3R20710   0.695   6.952  10.496  0.2579 -0.9038  0.4878
  181SLPC   H3S20711   0.519   6.979  10.508 -1.8762 -1.6427  0.3367
  181SLPC   C2420712   0.583   6.849  10.344 -0.1796  1.1149 -0.0810
  181SLPC   H4R20713   0.478   6.819  10.326  0.3284  1.0553 -3.6528
  181SLPC   H4S20714   0.643   6.758  10.322 -3.6982 -0.9648 -2.0354
  181SLPC   C2520715   0.616   6.949  10.236  0.0273 -0.1976 -0.1762
  181SLPC   H5R20716   0.721   6.983  10.251 -0.1279 -0.0073  0.4914
  181SLPC   H5S20717   0.549   7.035  10.255  1.6975  1.1866 -0.3092
  181SLPC   C2620718   0.595   6.900  10.093 -0.5126 -0.0376 -0.2702
  181SLPC   H6R20719   0.488   6.903  10.062 -0.5898 -0.6854 -0.0793
  181SLPC   H6S20720   0.639   6.799  10.082  0.8331 -0.1176  4.0577
  181SLPC   C2720721   0.662   7.005   9.998 -0.4366  0.0284 -0.5800
  181SLPC   H7R20722   0.761   7.016  10.047  0.5350 -1.3103 -2.1309
  181SLPC   H7S20723   0.613   7.104   9.998  0.3554  0.4547 -1.8359
  181SLPC   C2820724   0.668   6.943   9.861 -0.3177 -0.8523  0.6196
  181SLPC   H8R20725   0.709   6.840   9.870  0.1360 -1.1115 -2.9584
  181SLPC   H8S20726   0.741   6.995   9.795 -1.2854 -0.2018  0.0253
  181SLPC   C2920727   0.537   6.919   9.798  0.4803 -0.6967  0.0349
  181SLPC   H9R20728   0.472   6.863   9.866  2.0794  0.3955  2.6293
  181SLPC  C21020729   0.508   6.964   9.677  0.1325  0.3572  0.1117
  181SLPC  H10R20730   0.404   6.946   9.649 -0.1844  1.0423  0.8044
  181SLPC  C21120731   0.585   7.043   9.578 -0.5310 -0.0643  0.0164
  181SLPC  H11R20732   0.543   7.017   9.479  0.9200 -2.8932  0.0401
  181SLPC  H11S20733   0.690   7.008   9.575 -0.0275  1.4619 -1.3765
  181SLPC  C21220734   0.590   7.189   9.609  0.1774 -0.5599  0.0391
  181SLPC  H12R20735   0.581   7.215   9.715  1.1408  1.0193 -0.2482
  181SLPC  C21320736   0.609   7.293   9.526 -0.4640  0.2254 -0.4298
  181SLPC  H13R20737   0.603   7.397   9.559 -2.3098  0.2784 -0.8487
  181SLPC  C21420738   0.626   7.263   9.381 -0.0420 -0.1999 -0.2398
  181SLPC  H14R20739   0.555   7.321   9.318  2.1611  0.9498 -1.8096
  181SLPC  H14S20740   0.603   7.157   9.358 -1.9710  0.8770 -4.2456
  181SLPC  C21520741   0.765   7.290   9.330  0.1196 -0.2078 -1.0131
  181SLPC  H15R20742   0.786   7.390   9.373  1.4112 -0.1380 -1.7312
  181SLPC  H15S20743   0.770   7.294   9.219  0.7390  0.0107 -0.9822
  181SLPC  C21620744   0.883   7.195   9.369  0.2006 -0.3274  0.1430
  181SLPC  H16R20745   0.888   7.105   9.304 -0.1021 -0.0271 -0.3005
  181SLPC  H16S20746   0.859   7.156   9.470  1.7404  0.2450  0.7528
  181SLPC  C21720747   1.014   7.274   9.351  0.7693  0.2765  0.5494
  181SLPC  H17R20748   1.099   7.216   9.394  1.2694  1.4244  1.1450
  181SLPC  H17S20749   0.997   7.359   9.420 -0.4272  0.1764  0.3988
  181SLPC  C21820750   1.031   7.333   9.212 -0.5041 -0.2338  0.0576
  181SLPC  H18R20751   0.998   7.438   9.203 -2.0287 -0.5856  1.1564
  181SLPC  H18S20752   0.979   7.269   9.138 -0.6125  0.9703 -0.9382
  181SLPC  H18T20753   1.139   7.317   9.188  0.1632  0.0594  2.5063
  181SLPC   C3320754   0.778   6.369  10.167 -0.0386  0.5225 -0.0277
  181SLPC   H3X20755   0.759   6.468  10.213  0.8373 -0.4181  2.4747
  181SLPC   H3Y20756   0.688   6.310  10.196  0.1169  1.4198  2.4667
  181SLPC   C3420757   0.794   6.382  10.013  0.3000  0.6164 -0.0262
  181SLPC   H4X20758   0.811   6.280   9.974 -2.8898  0.3544 -0.9807
  181SLPC   H4Y20759   0.889   6.437   9.995  0.9158 -0.0001  1.1731
  181SLPC   C3520760   0.676   6.440   9.941  0.1084  1.0612  0.0432
  181SLPC   H5X20761   0.670   6.548   9.967  2.2038  1.3788 -0.5981
  181SLPC   H5Y20762   0.588   6.380   9.973 -0.8626  2.7427  0.6643
  181SLPC   C3620763   0.682   6.417   9.790 -0.1058 -0.7311  0.0295
  181SLPC   H6X20764   0.581   6.436   9.750  0.0956 -0.7081 -0.4743
  181SLPC   H6Y20765   0.721   6.316   9.765  1.1809  0.1640 -1.8659
  181SLPC   C3720766   0.771   6.526   9.730 -0.5174 -0.5533  0.2668
  181SLPC   H7X20767   0.879   6.521   9.755 -0.1016 -1.0934 -1.4474
  181SLPC   H7Y20768   0.745   6.627   9.766  0.0961 -1.2968  2.9903
  181SLPC   C3820769   0.763   6.528   9.574 -0.1797  0.3208  0.3480
  181SLPC   H8X20770   0.660   6.497   9.546 -0.3438  0.9278  0.2602
  181SLPC   H8Y20771   0.837   6.455   9.536  0.5627  1.6915 -0.9475
  181SLPC   C3920772   0.802   6.663   9.513 -0.3759  0.5247  0.1521
  181SLPC   H9X20773   0.912   6.678   9.525 -0.3682 -0.5754  1.7694
  181SLPC   H9Y20774   0.744   6.741   9.566 -1.1697 -1.1336  1.8651
  181SLPC  C31020775   0.773   6.661   9.359 -0.1969 -0.9468  0.0983
  181SLPC  H10X20776   0.667   6.632   9.348  0.2904 -2.1090 -2.1229
  181SLPC  H10Y20777   0.834   6.586   9.304  0.5157  0.3586 -0.9439
  181SLPC  C31120778   0.762   6.802   9.293  0.6726 -0.0730 -0.0905
  181SLPC  H11X20779   0.852   6.866   9.299 -1.9496  4.3164 -2.4573
  181SLPC  H11Y20780   0.689   6.867   9.346  2.3404  1.4437  0.4688
  181SLPC  C31220781   0.739   6.784   9.146  0.2129 -1.0229  0.1169
  181SLPC  H12X20782   0.645   6.727   9.125 -0.9266  1.1066 -0.8580
  181SLPC  H12Y20783   0.824   6.736   9.093 -1.3577 -1.7824 -1.8954
  181SLPC  C31320784   0.712   6.924   9.073 -0.1611  0.2712 -0.2385
  181SLPC  H13X20785   0.812   6.973   9.079  0.1160 -0.1268 -1.4144
  181SLPC  H13Y20786   0.630   6.979   9.125  0.1187 -0.5083  1.0878
  181SLPC  C31420787   0.682   6.911   8.928 -0.5248 -0.0107  0.5219
  181SLPC  H14X20788   0.583   6.862   8.910 -0.6883  1.0046 -1.6750
  181SLPC  H14Y20789   0.759   6.849   8.877 -0.1505  0.9875 -0.1739
  181SLPC  C31520790   0.692   7.048   8.858  0.7141  0.3168  0.4281
  181SLPC  H15X20791   0.715   7.030   8.751 -1.5388  0.8770 -0.2217
  181SLPC  H15Y20792   0.779   7.104   8.897  0.5247  0.4149  0.7114
  181SLPC  C31620793   0.566   7.136   8.865  0.3088  0.7684 -0.1750
  181SLPC  H16X20794   0.569   7.165   8.973 -1.4186  1.9317 -0.4040
  181SLPC  H16Y20795   0.471   7.087   8.838  0.4228 -0.6320  1.7502
  181SLPC  C31720796   0.579   7.273   8.787 -0.1288 -0.0640 -0.0068
  181SLPC  H17X20797   0.605   7.262   8.679  1.5365 -0.1576  0.3665
  181SLPC  H17Y20798   0.664   7.329   8.831 -0.5131  0.7103 -0.2308
  181SLPC  C31820799   0.454   7.360   8.805  0.0043 -0.4080 -0.8267
  181SLPC  H18X20800   0.443   7.392   8.911  1.5140  0.1840 -0.8160
  181SLPC  H18Y20801   0.370   7.300   8.765  1.1964 -2.4886 -0.3576
  181SLPC  H18Z20802   0.462   7.453   8.744  2.0407 -0.4554 -0.7152
  182SLPC     N20803   0.155   2.546  10.890 -0.1607 -0.2779  0.0223
  182SLPC   C1320804   0.172   2.504  11.029 -0.2348 -0.4489  0.0903
  182SLPC  H13A20805   0.240   2.422  11.040  1.3733  0.8598  0.2518
  182SLPC  H13B20806   0.202   2.594  11.082  0.4253  0.0748 -1.1335
  182SLPC  H13C20807   0.077   2.472  11.068  0.0323  0.0909  1.2280
  182SLPC   C1420808   0.113   2.427  10.814  0.2363  0.0817  0.0248
  182SLPC  H14A20809   0.010   2.411  10.840  0.5498  2.4205  3.2462
  182SLPC  H14B20810   0.117   2.448  10.708  1.4476  1.0504  0.2363
  182SLPC  H14C20811   0.166   2.338  10.843  0.7880  0.9358  1.7335
  182SLPC   C1520812   0.275   2.603  10.827  0.6463  0.8067 -0.3084
  182SLPC  H15A20813   0.356   2.533  10.816 -1.7628 -2.6981  2.0096
  182SLPC  H15B20814   0.239   2.625  10.728 -2.6337  1.0157  0.8309
  182SLPC  H15C20815   0.310   2.687  10.885  3.1675 -1.0205  1.0180
  182SLPC   C1220816   0.044   2.655  10.887  0.4029  0.5258  0.1813
  182SLPC  H12A20817   0.022   2.677  10.783  2.5851  0.7644 -0.2616
  182SLPC  H12B20818   0.085   2.744  10.932  4.5842 -1.0420 -0.0999
  182SLPC   C1120819  -0.101   2.630  10.949  0.6799 -0.4647 -0.4265
  182SLPC  H11A20820  -0.168   2.715  10.925 -0.2576 -1.0293  0.1148
  182SLPC  H11B20821  -0.097   2.621  11.059  1.3512 -1.2315 -0.5068
  182SLPC     P20822  -0.278   2.499  10.801  0.0055 -0.3602 -0.4297
  182SLPC   O1320823  -0.273   2.375  10.727 -0.4544  0.4590  0.1944
  182SLPC   O1420824  -0.403   2.529  10.872  0.7448 -0.3721  0.0358
  182SLPC   O1220825  -0.156   2.505  10.898 -0.5172  0.3130  0.5926
  182SLPC   O1120826  -0.242   2.618  10.703 -0.1317  0.1318 -0.3565
  182SLPC    C120827  -0.331   2.726  10.679  0.2809 -0.3898  0.1161
  182SLPC    HA20828  -0.386   2.765  10.768  0.7502 -1.6164  0.9706
  182SLPC    HB20829  -0.270   2.807  10.634  1.3571 -1.7568 -0.9668
  182SLPC    C220830  -0.455   2.697  10.599 -0.1171 -0.1311  0.2444
  182SLPC    HS20831  -0.530   2.651  10.668 -0.0129 -0.7961 -0.0775
  182SLPC   O2120832  -0.415   2.604  10.496  0.4667  0.0859 -0.0925
  182SLPC   C2120833  -0.487   2.496  10.474 -0.7421 -0.1027 -0.5292
  182SLPC   O2220834  -0.587   2.457  10.535  0.2879  0.3935 -0.1888
  182SLPC   C2220835  -0.419   2.393  10.373  0.1520  0.2740  0.2692
  182SLPC   H2R20836  -0.310   2.386  10.392  0.0593 -0.1369  0.6546
  182SLPC   H2S20837  -0.459   2.294  10.403  0.9583 -1.2099 -3.0053
  182SLPC    C320838  -0.516   2.827  10.536 -0.0225  0.3837 -0.0622
  182SLPC    HX20839  -0.436   2.885  10.486 -1.7268  0.9454 -2.3027
  182SLPC    HY20840  -0.549   2.888  10.623  0.3072  0.3100  0.1184
  182SLPC   O3120841  -0.617   2.791  10.445 -0.3590  0.0106  0.4047
  182SLPC   C3120842  -0.738   2.758  10.485 -1.1487  0.0339 -0.7737
  182SLPC   O3220843  -0.769   2.734  10.603 -0.1991 -0.0887 -0.2536
  182SLPC   C3220844  -0.825   2.744  10.371 -0.3211 -0.0426 -0.8644
  182SLPC   H2X20845  -0.827   2.836  10.308 -0.7338 -0.0355 -0.8427
  182SLPC   H2Y20846  -0.929   2.721  10.402 -0.2240  0.5619 -0.0664
  182SLPC   C2320847  -0.448   2.419  10.226 -0.3762 -0.0756  0.4578
  182SLPC   H3R20848  -0.419   2.525  10.212  1.4771 -0.7799 -1.5113
  182SLPC   H3S20849  -0.557   2.404  10.212 -0.4301  1.5733 -1.3075
  182SLPC   C2420850  -0.344   2.334  10.150 -0.4068  0.0450  0.5608
  182SLPC   H4R20851  -0.338   2.234  10.199  2.3778  0.7759  1.9181
  182SLPC   H4S20852  -0.244   2.378  10.169 -0.3623 -0.3999  1.3724
  182SLPC   C2520853  -0.358   2.335   9.998  0.2698  0.3972  0.1337
  182SLPC   H5R20854  -0.374   2.439   9.963 -0.8279 -0.1639 -1.0683
  182SLPC   H5S20855  -0.456   2.288   9.976 -0.1353  1.6515 -0.8796
  182SLPC   C2620856  -0.247   2.256   9.933  0.5497  0.0836 -0.1509
  182SLPC   H6R20857  -0.237   2.157   9.982  0.1590  0.6554  1.1066
  182SLPC   H6S20858  -0.154   2.309   9.961  0.8371  1.3648 -3.0741
  182SLPC   C2720859  -0.261   2.243   9.782 -0.4599 -0.3968  0.7520
  182SLPC   H7R20860  -0.176   2.181   9.744 -0.6446 -2.1398  2.9890
  182SLPC   H7S20861  -0.244   2.340   9.731 -1.2510 -0.5105  0.2499
  182SLPC   C2820862  -0.388   2.175   9.736 -0.2381  0.2522 -0.2126
  182SLPC   H8R20863  -0.458   2.261   9.735 -1.2023 -0.4464  1.8423
  182SLPC   H8S20864  -0.420   2.105   9.815  1.6223 -1.7432 -1.1354
  182SLPC   C2920865  -0.392   2.091   9.610 -0.3628  0.3553 -0.1538
  182SLPC   H9R20866  -0.370   1.985   9.625 -1.3494  0.4234  2.2488
  182SLPC  C21020867  -0.412   2.141   9.484  0.2516 -0.1113 -0.0196
  182SLPC  H10R20868  -0.430   2.074   9.398 -1.4471 -1.0173  0.9824
  182SLPC  C21120869  -0.439   2.287   9.454  0.3055 -0.3100  0.2115
  182SLPC  H11R20870  -0.372   2.314   9.370 -2.4794  1.7498 -1.5014
  182SLPC  H11S20871  -0.411   2.363   9.531 -1.5891  0.2491  0.4051
  182SLPC  C21220872  -0.586   2.303   9.421  0.0882 -0.2500 -0.0346
  182SLPC  H12R20873  -0.651   2.324   9.507  2.0972  2.0945  1.0575
  182SLPC  C21320874  -0.644   2.305   9.302  0.1182  0.4336  0.3253
  182SLPC  H13R20875  -0.754   2.304   9.295  0.1439  1.4646 -0.5669
  182SLPC  C21420876  -0.578   2.289   9.169  0.0353  0.9837  0.4516
  182SLPC  H14R20877  -0.502   2.207   9.178 -0.9729 -0.3258 -2.0356
  182SLPC  H14S20878  -0.527   2.382   9.135 -0.8164  1.1822 -0.3061
  182SLPC  C21520879  -0.670   2.249   9.053 -0.0863 -0.7896  0.1941
  182SLPC  H15R20880  -0.733   2.161   9.081  0.0785 -0.8931  0.2411
  182SLPC  H15S20881  -0.606   2.225   8.966 -1.2026  0.4243 -1.0114
  182SLPC  C21620882  -0.759   2.373   9.016  0.0889  0.1259 -0.0452
  182SLPC  H16R20883  -0.695   2.460   8.990  0.4180  0.4434  1.7297
  182SLPC  H16S20884  -0.801   2.389   9.117  3.6622  0.8634  1.4822
  182SLPC  C21720885  -0.871   2.349   8.912 -1.3883 -0.7651 -0.4070
  182SLPC  H17R20886  -0.930   2.442   8.897  0.5523  0.5485 -0.3864
  182SLPC  H17S20887  -0.941   2.283   8.967 -3.7876  2.5233  0.8030
  182SLPC  C21820888  -0.831   2.289   8.776  0.2394  0.1851 -0.3449
  182SLPC  H18R20889  -0.757   2.350   8.720  0.0947 -0.1486 -0.9087
  182SLPC  H18S20890  -0.910   2.264   8.702  0.8530 -1.5448 -0.4646
  182SLPC  H18T20891  -0.783   2.190   8.791 -1.2172 -0.8695 -2.0907
  182SLPC   C3320892  -0.782   2.631  10.263 -0.1863 -0.4760 -0.2193
  182SLPC   H3X20893  -0.800   2.532  10.308  1.4136 -0.7778 -0.2080
  182SLPC   H3Y20894  -0.673   2.627  10.240 -0.0042 -3.7270  0.8187
  182SLPC   C3420895  -0.858   2.645  10.137  0.3705 -0.2409  1.0937
  182SLPC   H4X20896  -0.831   2.740  10.087 -0.0287 -0.4145  0.5371
  182SLPC   H4Y20897  -0.966   2.627  10.151  0.3489  0.1309  1.4177
  182SLPC   C3520898  -0.800   2.541  10.036  0.2116  0.0385  0.2567
  182SLPC   H5X20899  -0.788   2.444  10.088  0.3238  0.7482  1.6100
  182SLPC   H5Y20900  -0.694   2.564  10.014 -0.0752  2.2556  0.9186
  182SLPC   C3620901  -0.886   2.544   9.906  0.5920  0.1756 -0.2630
  182SLPC   H6X20902  -0.911   2.651   9.888  0.4228  0.4778  1.5844
  182SLPC   H6Y20903  -0.976   2.483   9.929  0.2567  1.6568  2.7569
  182SLPC   C3720904  -0.803   2.489   9.781  0.5632 -1.1078 -0.1623
  182SLPC   H7X20905  -0.776   2.382   9.785  2.8334 -0.5990 -0.1871
  182SLPC   H7Y20906  -0.716   2.557   9.765  0.5163 -1.1310 -0.5373
  182SLPC   C3820907  -0.882   2.499   9.651  0.1457  0.0400  0.2418
  182SLPC   H8X20908  -0.988   2.471   9.672 -0.0168 -0.6025 -1.2927
  182SLPC   H8Y20909  -0.851   2.429   9.570 -0.8176 -1.0239  0.7555
  182SLPC   C3920910  -0.894   2.639   9.588  1.2942 -0.4507  0.3176
  182SLPC   H9X20911  -0.796   2.672   9.547 -0.4194  0.7883 -3.1621
  182SLPC   H9Y20912  -0.918   2.713   9.668  2.0244  0.0879  0.0591
  182SLPC  C31020913  -0.995   2.644   9.476 -0.2899 -0.2652  0.1613
  182SLPC  H10X20914  -1.001   2.753   9.457 -0.9323 -0.7337 -2.8766
  182SLPC  H10Y20915  -1.101   2.615   9.494 -1.1050  2.5665  0.4552
  182SLPC  C31120916  -0.946   2.574   9.343  0.4152 -0.8175 -0.5038
  182SLPC  H11X20917  -0.987   2.471   9.354 -2.7416  0.2713 -1.1587
  182SLPC  H11Y20918  -0.836   2.564   9.330  0.4022  0.6632 -2.2414
  182SLPC  C31220919  -1.014   2.626   9.212  0.0574 -0.5842 -0.0655
  182SLPC  H12X20920  -1.120   2.651   9.235  0.0051 -1.3076  0.5444
  182SLPC  H12Y20921  -1.026   2.544   9.138 -1.7661 -0.6133  0.2002
  182SLPC  C31320922  -0.940   2.751   9.163  0.4428  0.0524 -0.1474
  182SLPC  H13X20923  -0.834   2.730   9.140  0.8272  1.9812 -0.2672
  182SLPC  H13Y20924  -0.935   2.830   9.240  1.8528 -0.0748 -0.0817
  182SLPC  C31420925  -1.011   2.817   9.037 -0.0361  0.3896 -0.2261
  182SLPC  H14X20926  -1.022   2.738   8.959  4.4145  0.7943 -1.5268
  182SLPC  H14Y20927  -0.936   2.883   8.989  1.0119 -0.7787 -0.2432
  182SLPC  C31520928  -1.135   2.898   9.068  0.0359 -0.2908  0.0590
  182SLPC  H15X20929  -1.117   2.980   9.141  0.1932 -0.4418  0.1890
  182SLPC  H15Y20930  -1.219   2.833   9.102  0.5128  0.4805  2.9301
  182SLPC  C31620931  -1.179   2.980   8.944 -0.7935 -0.6997  0.4060
  182SLPC  H16X20932  -1.274   3.035   8.966 -0.3640 -0.3790  1.5182
  182SLPC  H16Y20933  -1.206   2.918   8.856  1.4382  1.2761 -1.8071
  182SLPC  C31720934  -1.074   3.085   8.898 -0.8237  0.0506  0.1181
  182SLPC  H17X20935  -0.984   3.024   8.873 -1.1578 -1.8168  2.9316
  182SLPC  H17Y20936  -1.030   3.157   8.971 -0.9404 -0.4722  0.7121
  182SLPC  C31820937  -1.108   3.163   8.762  0.1648 -0.6191 -0.3298
  182SLPC  H18X20938  -1.216   3.151   8.738  0.1273  0.7841 -0.9647
  182SLPC  H18Y20939  -1.046   3.123   8.679 -1.2915 -0.5818 -1.4817
  182SLPC  H18Z20940  -1.092   3.271   8.782 -2.0781 -0.2198 -0.4135
  183SLPC     N20941   0.486   3.893  10.712  0.3503  0.1450  0.0257
  183SLPC   C1320942   0.617   3.965  10.731  0.4471 -0.2386 -0.4401
  183SLPC  H13A20943   0.655   4.005  10.638  1.6150 -1.0696 -0.3366
  183SLPC  H13B20944   0.605   4.041  10.806  1.8259 -1.3683  0.9737
  183SLPC  H13C20945   0.702   3.912  10.771  1.0327  0.7775 -0.3130
  183SLPC   C1420946   0.380   3.986  10.657  0.4446  0.1089  0.1981
  183SLPC  H14A20947   0.357   4.066  10.726 -0.8046 -0.4963  0.5094
  183SLPC  H14B20948   0.411   4.038  10.567  2.1000  1.1391  1.3001
  183SLPC  H14C20949   0.287   3.934  10.640  1.1834 -1.7322  1.4421
  183SLPC   C1520950   0.434   3.846  10.846 -0.0621  0.0562  0.5933
  183SLPC  H15A20951   0.354   3.775  10.832 -0.3816  0.3821  0.7393
  183SLPC  H15B20952   0.509   3.781  10.888 -1.3657 -1.4546  0.7014
  183SLPC  H15C20953   0.399   3.925  10.911  0.6189  0.7585  0.1221
  183SLPC   C1220954   0.502   3.767  10.623 -0.0124 -0.2149 -0.3125
  183SLPC  H12A20955   0.577   3.706  10.670 -0.7788  0.3008  1.6773
  183SLPC  H12B20956   0.542   3.802  10.529  0.3020  0.6839  0.1506
  183SLPC   C1120957   0.381   3.670  10.612  1.1010  0.2005 -0.2415
  183SLPC  H11A20958   0.377   3.600  10.525 -0.2503 -0.5710  0.4247
  183SLPC  H11B20959   0.284   3.723  10.598  1.2186  0.4837  0.0108
  183SLPC     P20960   0.469   3.475  10.748 -0.2992  0.1367  0.1750
  183SLPC   O1320961   0.612   3.531  10.756 -0.4931 -0.2808 -0.2881
  183SLPC   O1420962   0.423   3.385  10.854  0.3568 -0.4462  0.1173
  183SLPC   O1220963   0.372   3.595  10.736  0.4906 -0.0860 -0.0426
  183SLPC   O1120964   0.449   3.407  10.615 -0.0229 -0.0486  0.4296
  183SLPC    C120965   0.373   3.293  10.596  0.7093  0.4766 -0.0679
  183SLPC    HA20966   0.388   3.214  10.673  2.7452  0.4667 -0.4204
  183SLPC    HB20967   0.265   3.318  10.611  1.0194  0.0530  3.9288
  183SLPC    C220968   0.398   3.212  10.463  0.0607 -0.4905  0.0344
  183SLPC    HS20969   0.404   3.104  10.489 -0.8204 -0.4761  0.3108
  183SLPC   O2120970   0.522   3.260  10.400 -0.3921 -0.3225 -0.0524
  183SLPC   C2120971   0.640   3.237  10.460  0.2911 -0.4265  0.2993
  183SLPC   O2220972   0.661   3.181  10.570  0.7989 -0.2094  0.3973
  183SLPC   C2220973   0.756   3.283  10.353 -0.1235  0.4321  0.0075
  183SLPC   H2R20974   0.714   3.369  10.296  1.0558 -0.0973 -1.7543
  183SLPC   H2S20975   0.850   3.313  10.402  1.3896 -2.5905 -0.7785
  183SLPC    C320976   0.287   3.247  10.360 -0.1242  0.0489  0.4186
  183SLPC    HX20977   0.273   3.356  10.341  0.3739 -0.3644 -2.9559
  183SLPC    HY20978   0.201   3.209  10.418  0.2421 -0.2637  0.7657
  183SLPC   O3120979   0.292   3.171  10.232 -0.1575  0.1900  0.0503
  183SLPC   C3120980   0.172   3.177  10.158  0.6043  0.8886  0.0398
  183SLPC   O3220981   0.078   3.243  10.190  0.1241  0.3715  0.1401
  183SLPC   C3220982   0.198   3.082  10.038 -0.2983  1.0154  0.4065
  183SLPC   H2X20983   0.215   2.979  10.076  2.3106  1.3983  0.4393
  183SLPC   H2Y20984   0.286   3.106   9.975 -1.6463 -1.8079 -2.8688
  183SLPC   C2320985   0.801   3.165  10.271 -0.3519 -0.1530 -0.1501
  183SLPC   H3R20986   0.719   3.137  10.201  1.1881 -0.7746 -1.7804
  183SLPC   H3S20987   0.811   3.083  10.346 -3.2437  0.4266  0.9885
  183SLPC   C2420988   0.925   3.193  10.193 -0.3829  0.5251 -0.7996
  183SLPC   H4R20989   0.971   3.099  10.158  1.9633  0.9159  0.9558
  183SLPC   H4S20990   1.010   3.229  10.255 -2.8116  1.8379  2.0221
  183SLPC   C2520991   0.898   3.300  10.080 -0.1907  1.0401 -0.8251
  183SLPC   H5R20992   0.866   3.393  10.131 -1.5440  0.5511 -0.7328
  183SLPC   H5S20993   0.816   3.264  10.014 -1.4845 -2.1468  2.1620
  183SLPC   C2620994   1.017   3.314   9.980  0.0200 -0.9536 -0.3198
  183SLPC   H6R20995   1.110   3.310  10.040 -0.6076  1.7842  0.9842
  183SLPC   H6S20996   1.006   3.411   9.927 -0.4247  0.6013  2.4165
  183SLPC   C2720997   1.030   3.213   9.864  0.1988  0.1843 -0.5606
  183SLPC   H7R20998   0.935   3.212   9.807 -0.5103  1.1028  0.5651
  183SLPC   H7S20999   1.047   3.118   9.918 -0.4602  0.2903 -0.1561
  183SLPC   C2821000   1.149   3.256   9.768  0.0740  0.3680 -0.3380
  183SLPC   H8R21001   1.238   3.265   9.835 -0.7085 -0.2111  0.8034
  183SLPC   H8S21002   1.125   3.358   9.731  2.8917  0.2750 -2.7948
  183SLPC   C2921003   1.188   3.156   9.662  0.6111 -0.3577 -0.1894
  183SLPC   H9R21004   1.174   3.053   9.699  0.9346  0.3349  2.0014
  183SLPC  C21021005   1.220   3.180   9.535 -0.0961  0.0262 -0.3753
  183SLPC  H10R21006   1.237   3.091   9.473 -0.2994 -0.3902  0.1637
  183SLPC  C21121007   1.242   3.314   9.469  0.1282  0.3321 -0.0547
  183SLPC  H11R21008   1.194   3.391   9.533 -0.3182 -0.1889  0.2430
  183SLPC  H11S21009   1.188   3.318   9.372  2.0136  0.5572 -1.1551
  183SLPC  C21221010   1.386   3.354   9.440  0.0418 -0.5092  0.2034
  183SLPC  H12R21011   1.429   3.448   9.476  1.9575 -1.1312 -0.3104
  183SLPC  C21321012   1.470   3.291   9.354  0.2612 -0.0697 -0.3241
  183SLPC  H13R21013   1.570   3.333   9.336 -0.3311  2.3625  1.5628
  183SLPC  C21421014   1.455   3.164   9.265 -0.2241 -0.0685 -0.0108
  183SLPC  H14R21015   1.356   3.121   9.292 -1.0770  0.1694 -2.5249
  183SLPC  H14S21016   1.536   3.090   9.284  0.9583  1.0967 -0.3827
  183SLPC  C21521017   1.446   3.189   9.115 -0.1990 -0.8658 -0.4847
  183SLPC  H15R21018   1.518   3.272   9.097 -1.0409 -0.1880 -0.8017
  183SLPC  H15S21019   1.345   3.233   9.098  0.3793  2.3408  2.9884
  183SLPC  C21621020   1.485   3.076   9.031  0.5935  0.0979  0.0855
  183SLPC  H16R21021   1.410   2.994   9.040  0.1772  0.4133 -0.4411
  183SLPC  H16S21022   1.586   3.039   9.059  1.3833  1.6623 -0.5976
  183SLPC  C21721023   1.490   3.119   8.884  0.1105 -0.1698 -0.0196
  183SLPC  H17R21024   1.392   3.160   8.853  0.0896  0.1148  0.4176
  183SLPC  H17S21025   1.502   3.026   8.824 -2.3157  0.8272 -2.2356
  183SLPC  C21821026   1.611   3.214   8.849  0.2066 -0.1255 -0.7555
  183SLPC  H18R21027   1.683   3.206   8.934 -1.4517 -0.7311  0.6406
  183SLPC  H18S21028   1.581   3.321   8.857  2.0327  0.3297  1.1070
  183SLPC  H18T21029   1.641   3.201   8.743 -0.5918  0.0659 -1.0118
  183SLPC   C3321030   0.076   3.075   9.946  0.1479  0.0765 -0.1665
  183SLPC   H3X21031   0.041   3.181   9.941  0.9498  0.4935  1.9081
  183SLPC   H3Y21032  -0.009   3.021   9.993  0.0315  0.3019 -0.1181
  183SLPC   C3421033   0.099   3.000   9.815 -0.0213 -0.5301  0.1549
  183SLPC   H4X21034  -0.001   2.967   9.781 -0.2402 -0.1430  0.4106
  183SLPC   H4Y21035   0.152   2.903   9.825  0.6235 -0.3312 -1.1366
  183SLPC   C3521036   0.184   3.082   9.720 -0.0507  0.6161  0.3513
  183SLPC   H5X21037   0.281   3.113   9.764  1.5177 -0.7947 -1.9191
  183SLPC   H5Y21038   0.122   3.173   9.702  0.1738  0.9473  1.1702
  183SLPC   C3621039   0.201   3.015   9.583  0.7323 -0.1619  0.4289
  183SLPC   H6X21040   0.235   3.105   9.527  1.8272 -0.8731 -0.0904
  183SLPC   H6Y21041   0.111   2.988   9.522  1.6064  1.0630 -1.5211
  183SLPC   C3721042   0.309   2.908   9.579 -0.2664 -0.2766 -0.2963
  183SLPC   H7X21043   0.284   2.824   9.647 -0.1654  0.6917  0.9614
  183SLPC   H7Y21044   0.402   2.950   9.622  0.9692 -1.9468 -1.2140
  183SLPC   C3821045   0.345   2.872   9.431  0.0817  0.5554  0.2001
  183SLPC   H8X21046   0.345   2.962   9.366 -0.5619  0.7604  0.4684
  183SLPC   H8Y21047   0.259   2.819   9.386  0.6472 -0.5535  0.3877
  183SLPC   C3921048   0.483   2.801   9.427  0.5162  0.1921  0.7158
  183SLPC   H9X21049   0.478   2.720   9.503  0.3166  0.0668  0.5702
  183SLPC   H9Y21050   0.568   2.864   9.461  1.0939 -0.6889  0.9297
  183SLPC  C31021051   0.524   2.751   9.282  0.1632 -0.9513 -0.1372
  183SLPC  H10X21052   0.527   2.840   9.215 -1.8404 -0.3572  0.4652
  183SLPC  H10Y21053   0.461   2.670   9.239  0.3333  0.0071 -2.3117
  183SLPC  C31121054   0.665   2.687   9.274  0.6169  0.0183  0.9091
  183SLPC  H11X21055   0.664   2.604   9.349 -0.5480 -1.4475 -0.6655
  183SLPC  H11Y21056   0.732   2.774   9.293 -0.3950  1.6940 -2.4670
  183SLPC  C31221057   0.691   2.638   9.128  0.3534  0.8203 -0.2299
  183SLPC  H12X21058   0.681   2.719   9.052 -2.0488  1.4893  0.7132
  183SLPC  H12Y21059   0.630   2.550   9.100 -2.3895  2.1669  1.1600
  183SLPC  C31321060   0.831   2.575   9.112  0.9021  0.7559 -0.0751
  183SLPC  H13X21061   0.839   2.472   9.155  3.6265 -0.2345 -2.5739
  183SLPC  H13Y21062   0.904   2.643   9.159 -0.1972  1.7660  0.1976
  183SLPC  C31421063   0.872   2.570   8.964 -0.0145 -0.5574 -0.4765
  183SLPC  H14X21064   0.901   2.675   8.945  0.7566 -0.8888 -1.1931
  183SLPC  H14Y21065   0.787   2.539   8.900 -0.8033  1.5498 -0.5217
  183SLPC  C31521066   0.992   2.484   8.934  0.9979  0.5866 -0.8676
  183SLPC  H15X21067   0.969   2.375   8.936  1.2270  0.5423 -0.4345
  183SLPC  H15Y21068   1.059   2.506   9.020 -0.2593 -0.7909  0.5314
  183SLPC  C31621069   1.056   2.517   8.802  1.1023  0.0565  0.4198
  183SLPC  H16X21070   1.095   2.621   8.808  0.2890  0.2783  2.8521
  183SLPC  H16Y21071   0.987   2.513   8.715  1.9953  0.2167 -0.3202
  183SLPC  C31721072   1.177   2.425   8.770  0.2184 -0.4835 -0.3291
  183SLPC  H17X21073   1.152   2.317   8.765 -3.3553  0.1988 -0.1235
  183SLPC  H17Y21074   1.247   2.446   8.854 -1.0156  1.2271  0.3399
  183SLPC  C31821075   1.243   2.460   8.636 -0.0578 -0.5135  0.6573
  183SLPC  H18X21076   1.252   2.569   8.615  0.1478 -0.3820  1.3704
  183SLPC  H18Y21077   1.167   2.421   8.565  0.6160  0.0281 -0.3863
  183SLPC  H18Z21078   1.344   2.419   8.612  0.2455  2.0603 -3.3649
  184SLPC     N21079   3.794   2.133  10.841  0.3281  0.0638  0.2162
  184SLPC   C1321080   3.774   2.059  10.973 -0.6520  0.1568 -0.2653
  184SLPC  H13A21081   3.834   1.970  10.986  0.1549  0.9672  1.9886
  184SLPC  H13B21082   3.796   2.123  11.057 -0.3732 -1.7349  1.1708
  184SLPC  H13C21083   3.671   2.030  10.984 -0.3828 -0.7612 -0.1124
  184SLPC   C1421084   3.930   2.182  10.845 -0.7030 -0.1530  0.7057
  184SLPC  H14A21085   3.946   2.242  10.933 -2.0239 -0.2523  1.0361
  184SLPC  H14B21086   3.997   2.097  10.852 -1.6785 -0.8636  1.9083
  184SLPC  H14C21087   3.963   2.241  10.761  1.4082 -1.0370  0.8478
  184SLPC   C1521088   3.695   2.249  10.852  0.4582 -0.1966  0.9919
  184SLPC  H15A21089   3.704   2.289  10.752  0.8827 -0.7814  0.7887
  184SLPC  H15B21090   3.592   2.219  10.850  0.7429 -1.1666 -0.3875
  184SLPC  H15C21091   3.726   2.323  10.925 -0.0766 -0.7861  1.8272
  184SLPC   C1221092   3.764   2.048  10.724 -0.3110 -0.6942  0.6493
  184SLPC  H12A21093   3.673   1.992  10.738 -3.0089  2.9037 -0.8817
  184SLPC  H12B21094   3.845   1.978  10.710 -0.0544  0.0140 -1.8923
  184SLPC   C1121095   3.747   2.114  10.580  0.4679  0.8030 -0.1320
  184SLPC  H11A21096   3.721   2.044  10.498  0.7934 -1.9315  1.9636
  184SLPC  H11B21097   3.838   2.175  10.559  0.9386  0.2004  0.1178
  184SLPC     P21098   3.494   2.151  10.581 -0.3560 -0.1350  0.2822
  184SLPC   O1321099   3.484   2.010  10.618 -0.4621  0.4011  0.1514
  184SLPC   O1421100   3.411   2.246  10.654  0.3968  0.2651  0.5359
  184SLPC   O1221101   3.641   2.203  10.588  0.3574  0.1211  0.0414
  184SLPC   O1121102   3.451   2.175  10.428 -0.0019  0.2799 -0.2646
  184SLPC    C121103   3.493   2.299  10.371  0.1291  0.0858 -0.2532
  184SLPC    HA21104   3.468   2.385  10.437  1.5243  0.3038  0.0245
  184SLPC    HB21105   3.596   2.303  10.331  1.6413  1.0851  3.3033
  184SLPC    C221106   3.392   2.328  10.261  0.2451 -0.3721  0.3955
  184SLPC    HS21107   3.293   2.342  10.310  1.4918 -1.0316  3.3087
  184SLPC   O2121108   3.418   2.220  10.169 -0.2995 -0.0687 -0.5198
  184SLPC   C2121109   3.329   2.124  10.161  1.2681 -0.5130  0.6084
  184SLPC   O2221110   3.215   2.130  10.211  0.1900  0.1407 -0.2636
  184SLPC   C2221111   3.373   2.014  10.055 -0.6902 -0.4621 -0.7916
  184SLPC   H2R21112   3.481   1.994  10.071 -0.4896  0.9009 -0.2592
  184SLPC   H2S21113   3.318   1.926  10.095  0.3922  0.0447  2.0334
  184SLPC    C321114   3.424   2.464  10.192  0.4197  0.0433  0.4022
  184SLPC    HX21115   3.534   2.477  10.181  0.5274 -0.0371  1.3458
  184SLPC    HY21116   3.393   2.544  10.262  1.2387  1.0519 -0.3469
  184SLPC   O3121117   3.356   2.469  10.068  0.1135 -0.1981  0.2402
  184SLPC   C3121118   3.282   2.570  10.041  0.3585  0.0614 -0.0527
  184SLPC   O3221119   3.241   2.655  10.122  0.5231  0.4862  0.3488
  184SLPC   C3221120   3.245   2.557   9.885 -0.0184  0.4246  0.2389
  184SLPC   H2X21121   3.153   2.614   9.860  0.3590 -0.0132 -2.4970
  184SLPC   H2Y21122   3.233   2.448   9.864 -0.2630  0.0804  1.9695
  184SLPC   C2321123   3.341   2.037   9.909 -0.1258 -0.6350  0.8538
  184SLPC   H3R21124   3.238   2.075   9.893  0.2518  0.3862  0.7634
  184SLPC   H3S21125   3.353   1.937   9.864 -0.7773 -0.6419  0.6976
  184SLPC   C2421126   3.441   2.137   9.842  0.1173 -0.3813 -0.2969
  184SLPC   H4R21127   3.542   2.092   9.835 -0.5425 -2.0432  0.4040
  184SLPC   H4S21128   3.456   2.221   9.913  0.7739 -2.0684  1.6294
  184SLPC   C2521129   3.394   2.197   9.706  0.4438  0.3727 -0.0667
  184SLPC   H5R21130   3.482   2.251   9.664  0.8333 -1.2374 -1.4382
  184SLPC   H5S21131   3.312   2.272   9.706  0.2950  0.2154 -0.5354
  184SLPC   C2621132   3.359   2.091   9.592 -0.5122 -0.0915 -0.5999
  184SLPC   H6R21133   3.264   2.039   9.618 -0.5892  0.3105 -0.0439
  184SLPC   H6S21134   3.445   2.021   9.594  0.4933  1.0630 -1.4702
  184SLPC   C2721135   3.326   2.150   9.450 -0.1158  0.0177  0.0978
  184SLPC   H7R21136   3.415   2.210   9.422 -0.5212  1.1882  1.2040
  184SLPC   H7S21137   3.247   2.228   9.453 -1.9176 -1.6673 -0.8821
  184SLPC   C2821138   3.284   2.044   9.344 -0.1665  0.4908  0.1710
  184SLPC   H8R21139   3.238   1.957   9.395  0.5372  0.5633  0.9603
  184SLPC   H8S21140   3.387   2.010   9.318 -0.4897  0.4566 -1.1258
  184SLPC   C2921141   3.203   2.102   9.228  0.5070 -0.2071 -0.4043
  184SLPC   H9R21142   3.096   2.110   9.251  0.6303  2.1580 -0.4629
  184SLPC  C21021143   3.246   2.125   9.102  0.6230  0.3030  0.1852
  184SLPC  H10R21144   3.170   2.165   9.035  0.2161  0.3213  0.6502
  184SLPC  C21121145   3.383   2.099   9.044 -0.7369  0.5010  0.0629
  184SLPC  H11R21146   3.463   2.130   9.114 -0.6818  2.4031 -0.7828
  184SLPC  H11S21147   3.394   2.146   8.944  1.7263 -1.9398 -0.9566
  184SLPC  C21221148   3.426   1.956   9.015  0.0549 -0.1272  0.4402
  184SLPC  H12R21149   3.377   1.878   9.075 -0.3417 -0.5757 -0.4526
  184SLPC  C21321150   3.503   1.913   8.906  0.0936 -0.1412  0.3959
  184SLPC  H13R21151   3.536   1.810   8.888  0.4286  0.1898 -1.0428
  184SLPC  C21421152   3.569   2.000   8.803  0.6422  0.0527 -0.4534
  184SLPC  H14R21153   3.673   2.021   8.836  0.0963  1.8055  0.2566
  184SLPC  H14S21154   3.529   2.104   8.799  0.9422  0.1807 -0.1471
  184SLPC  C21521155   3.576   1.931   8.667 -0.0275 -0.6733 -0.7541
  184SLPC  H15R21156   3.479   1.886   8.638 -0.4996  0.4120 -0.8940
  184SLPC  H15S21157   3.652   1.850   8.663  0.1534 -0.4826 -1.1550
  184SLPC  C21621158   3.641   2.026   8.566  0.5264 -0.2309  0.0010
  184SLPC  H16R21159   3.736   2.073   8.600  1.2375  0.1223 -2.3085
  184SLPC  H16S21160   3.571   2.109   8.541 -0.6865 -0.8999  1.0806
  184SLPC  C21721161   3.668   1.940   8.437  0.1122 -0.1250  0.2385
  184SLPC  H17R21162   3.582   1.870   8.424 -0.0443  0.4531 -2.4575
  184SLPC  H17S21163   3.761   1.885   8.462  1.4163  1.9934  0.2762
  184SLPC  C21821164   3.697   2.031   8.317 -0.2926 -0.0677  0.8124
  184SLPC  H18R21165   3.601   2.085   8.304 -0.6897 -0.7715  0.7636
  184SLPC  H18S21166   3.713   1.978   8.222 -0.7546 -1.3912  1.4462
  184SLPC  H18T21167   3.777   2.102   8.348  0.6785 -1.0425  0.5778
  184SLPC   C3321168   3.358   2.606   9.787  0.1337  0.5008 -0.2729
  184SLPC   H3X21169   3.335   2.571   9.684 -0.4772  1.5110 -0.5013
  184SLPC   H3Y21170   3.449   2.555   9.826 -1.6512 -2.5536  0.1961
  184SLPC   C3421171   3.373   2.758   9.782 -0.4292  0.1896 -0.8825
  184SLPC   H4X21172   3.377   2.804   9.883 -2.6573 -2.4087  0.5288
  184SLPC   H4Y21173   3.291   2.810   9.729 -1.5059  0.8699  1.2980
  184SLPC   C3521174   3.514   2.807   9.728  0.2486  0.3151  0.0149
  184SLPC   H5X21175   3.596   2.763   9.790 -0.0960  1.4099  1.3044
  184SLPC   H5Y21176   3.522   2.916   9.746 -0.3290  0.3364  0.1758
  184SLPC   C3621177   3.541   2.784   9.579 -0.2921 -0.6622 -0.0453
  184SLPC   H6X21178   3.515   2.682   9.546  1.6799 -0.9739 -0.7942
  184SLPC   H6Y21179   3.650   2.782   9.554 -0.4167 -0.9257 -0.5878
  184SLPC   C3721180   3.485   2.889   9.488  0.7074  0.2403 -0.2195
  184SLPC   H7X21181   3.535   2.989   9.490 -0.8107  1.1230 -2.3964
  184SLPC   H7Y21182   3.384   2.918   9.523  0.5270 -0.5474 -0.0892
  184SLPC   C3821183   3.468   2.846   9.344  0.5838  0.9339  0.4217
  184SLPC   H8X21184   3.548   2.773   9.319 -0.8116 -0.2538 -0.7348
  184SLPC   H8Y21185   3.477   2.939   9.284  2.0909  0.8329  0.4497
  184SLPC   C3921186   3.340   2.776   9.296  0.9933 -0.2704  0.2531
  184SLPC   H9X21187   3.258   2.850   9.291 -1.6825 -3.0520 -0.1925
  184SLPC   H9Y21188   3.296   2.702   9.366 -0.3904  0.7558  0.5137
  184SLPC  C31021189   3.370   2.696   9.169  0.0944 -0.5049 -0.1263
  184SLPC  H10X21190   3.446   2.621   9.198 -1.8066 -2.5089 -0.0731
  184SLPC  H10Y21191   3.425   2.759   9.096  4.0214  1.0377  3.6870
  184SLPC  C31121192   3.248   2.632   9.103  0.2689 -0.1321 -0.3292
  184SLPC  H11X21193   3.171   2.709   9.084 -0.2554 -0.0332  1.8986
  184SLPC  H11Y21194   3.192   2.576   9.181 -1.0514  1.8273  0.2139
  184SLPC  C31221195   3.278   2.544   8.981  0.6767  0.6544  0.0272
  184SLPC  H12X21196   3.186   2.485   8.960  1.8260 -0.0829 -3.8834
  184SLPC  H12Y21197   3.359   2.478   9.020  0.4065 -0.8381 -1.7428
  184SLPC  C31321198   3.312   2.622   8.855 -0.3893 -0.4587  0.1330
  184SLPC  H13X21199   3.394   2.694   8.872 -0.2243 -0.5985 -0.0640
  184SLPC  H13Y21200   3.223   2.684   8.830 -1.9830 -2.2697  1.0861
  184SLPC  C31421201   3.345   2.532   8.732 -0.0850 -0.0873 -0.3689
  184SLPC  H14X21202   3.247   2.483   8.714  0.1014 -0.5830 -0.0539
  184SLPC  H14Y21203   3.421   2.456   8.760 -0.6428 -1.5134 -2.4897
  184SLPC  C31521204   3.396   2.600   8.607 -0.3055  0.6819  0.3465
  184SLPC  H15X21205   3.474   2.541   8.555 -0.7481 -1.0580  1.5502
  184SLPC  H15Y21206   3.443   2.697   8.632 -0.0353  0.9948 -1.2805
  184SLPC  C31621207   3.279   2.641   8.515  0.2813 -0.1370  0.4639
  184SLPC  H16X21208   3.323   2.717   8.447  0.5481  0.0648  0.8604
  184SLPC  H16Y21209   3.200   2.695   8.570 -2.1060 -0.4270 -2.4235
  184SLPC  C31721210   3.214   2.525   8.429 -0.0093  0.4220 -0.2607
  184SLPC  H17X21211   3.139   2.560   8.355 -0.6727 -1.3921 -0.4854
  184SLPC  H17Y21212   3.182   2.448   8.503  0.5566  1.6193  1.2905
  184SLPC  C31821213   3.308   2.450   8.330  0.3610 -0.2678  0.1157
  184SLPC  H18X21214   3.356   2.513   8.252 -1.9310  0.8035 -0.5078
  184SLPC  H18Y21215   3.257   2.365   8.281 -1.5485  1.3003 -0.7511
  184SLPC  H18Z21216   3.386   2.413   8.400  0.0043 -1.9025 -0.3151
  185SLPC     N21217   6.163   2.970   6.141 -0.4070  0.3393  0.2627
  185SLPC   C1321218   6.197   2.863   6.240 -0.1197 -0.6361  0.1274
  185SLPC  H13A21219   6.303   2.869   6.261 -0.3234  2.9705  0.7433
  185SLPC  H13B21220   6.150   2.869   6.337  2.4953 -2.2842  1.6274
  185SLPC  H13C21221   6.189   2.769   6.187 -0.2493 -1.4410  1.5292
  185SLPC   C1421222   6.018   2.964   6.092  0.0052 -0.0223 -0.2393
  185SLPC  H14A21223   5.999   3.053   6.034  0.7662 -0.3677 -1.0376
  185SLPC  H14B21224   6.010   2.868   6.044  0.5103 -1.4199  2.2597
  185SLPC  H14C21225   5.955   2.961   6.180 -0.9746 -0.1445 -0.9293
  185SLPC   C1521226   6.248   2.950   6.022  0.2896 -0.3194 -0.4903
  185SLPC  H15A21227   6.236   3.032   5.953  0.7141  0.0126 -0.1681
  185SLPC  H15B21228   6.353   2.966   6.042  0.2570  0.2395 -0.7557
  185SLPC  H15C21229   6.226   2.855   5.975 -2.4206  0.0910 -0.2256
  185SLPC   C1221230   6.196   3.103   6.209  0.6495 -0.1702 -0.5081
  185SLPC  H12A21231   6.195   3.183   6.136 -1.4968  1.3693  1.0604
  185SLPC  H12B21232   6.294   3.088   6.250  0.2256  0.0647  0.6331
  185SLPC   C1121233   6.101   3.147   6.329  0.2915 -0.6416  0.0944
  185SLPC  H11A21234   5.996   3.146   6.293  0.1347  0.4074  0.4970
  185SLPC  H11B21235   6.128   3.251   6.358  1.1822 -0.4228 -1.4048
  185SLPC     P21236   6.013   2.997   6.526  0.2370  0.4124 -0.4871
  185SLPC   O1321237   5.888   2.976   6.459  0.3553  0.2312  0.0893
  185SLPC   O1421238   6.078   2.875   6.583 -0.1672  0.5591  0.0025
  185SLPC   O1221239   6.119   3.070   6.440 -0.1161 -0.0651  0.0884
  185SLPC   O1121240   5.996   3.108   6.639 -0.0577 -0.8284 -0.4124
  185SLPC    C121241   6.117   3.168   6.699  0.3112  0.1730  0.2404
  185SLPC    HA21242   6.204   3.104   6.676  0.7464  1.1096 -0.7994
  185SLPC    HB21243   6.129   3.274   6.669 -0.9161 -0.0526 -1.1838
  185SLPC    C221244   6.107   3.169   6.852 -0.0002 -0.1273 -0.1032
  185SLPC    HS21245   6.210   3.159   6.894  0.3637  1.9662 -0.3931
  185SLPC   O2121246   6.013   3.068   6.894  0.1861 -0.3425  0.0860
  185SLPC   C2121247   6.067   2.946   6.891 -0.4788 -0.0870  0.0638
  185SLPC   O2221248   6.187   2.921   6.884  0.0961 -0.5680 -0.1002
  185SLPC   C2221249   5.956   2.839   6.905 -0.4950  0.3673  0.4125
  185SLPC   H2R21250   5.857   2.887   6.921  0.6004  2.2117  2.1809
  185SLPC   H2S21251   5.970   2.780   6.812 -1.6073  1.8883 -0.7558
  185SLPC    C321252   6.068   3.311   6.902  0.1082 -0.6349 -0.0652
  185SLPC    HX21253   6.062   3.314   7.013  1.0212  5.1224  0.1404
  185SLPC    HY21254   5.970   3.335   6.857  0.6277 -0.7346 -1.2734
  185SLPC   O3121255   6.151   3.420   6.860  0.4019 -0.7090  0.6589
  185SLPC   C3121256   6.265   3.442   6.916  0.4433 -0.2267  0.1073
  185SLPC   O3221257   6.315   3.385   7.008  0.7805 -0.1937  0.5376
  185SLPC   C3221258   6.329   3.562   6.843  0.3262 -0.2577  0.6451
  185SLPC   H2X21259   6.252   3.635   6.810 -0.5957 -2.0595 -1.4067
  185SLPC   H2Y21260   6.374   3.527   6.748 -1.1042 -2.1552  0.6098
  185SLPC   C2321261   5.994   2.754   7.031 -0.4738 -0.5782 -0.0284
  185SLPC   H3R21262   6.098   2.718   7.021 -0.1329  0.9744 -2.9814
  185SLPC   H3S21263   5.920   2.671   7.030  0.8221 -1.7684 -0.7469
  185SLPC   C2421264   5.980   2.813   7.171 -0.3993 -0.0326 -0.1392
  185SLPC   H4R21265   5.889   2.876   7.182 -0.6445 -0.1477 -1.3039
  185SLPC   H4S21266   6.056   2.891   7.192  1.9285 -2.0173 -0.6731
  185SLPC   C2521267   5.988   2.707   7.292  0.0001 -0.3717  0.7153
  185SLPC   H5R21268   6.082   2.650   7.277  1.3034  1.6041  0.9257
  185SLPC   H5S21269   5.901   2.640   7.280  0.5447 -0.8000 -1.0345
  185SLPC   C2621270   5.990   2.768   7.430 -0.1130  0.4896 -0.0936
  185SLPC   H6R21271   5.891   2.819   7.442  0.4375  2.8790 -3.8404
  185SLPC   H6S21272   6.071   2.844   7.431 -2.4008  3.1367 -0.4901
  185SLPC   C2721273   6.001   2.662   7.552  0.7609 -0.6282 -0.6817
  185SLPC   H7R21274   6.066   2.575   7.528  0.5073 -1.2255  0.7158
  185SLPC   H7S21275   5.906   2.611   7.579  0.7187 -1.5559 -2.4165
  185SLPC   C2821276   6.039   2.736   7.683 -0.1340  0.2512 -0.4662
  185SLPC   H8R21277   5.944   2.784   7.715  0.4744  2.0936 -1.2864
  185SLPC   H8S21278   6.120   2.804   7.652 -0.3604  1.7719  2.0512
  185SLPC   C2921279   6.095   2.635   7.784 -0.2626 -0.3446  0.2992
  185SLPC   H9R21280   6.160   2.556   7.743 -0.7494  0.6438 -2.6262
  185SLPC  C21021281   6.075   2.639   7.910  0.3834 -0.4304 -0.1874
  185SLPC  H10R21282   6.133   2.575   7.978 -0.2207  1.8468  2.6665
  185SLPC  C21121283   5.980   2.730   7.982  0.1853  0.3086  0.5040
  185SLPC  H11R21284   5.984   2.826   7.926 -2.3860 -0.4145 -1.0605
  185SLPC  H11S21285   6.022   2.750   8.084 -3.0226 -0.6089  2.1265
  185SLPC  C21221286   5.835   2.682   7.992 -0.2829 -0.2260  0.2944
  185SLPC  H12R21287   5.801   2.621   7.907  0.5623  1.3819 -1.2569
  185SLPC  C21321288   5.744   2.712   8.081  0.1820  0.3682  0.0533
  185SLPC  H13R21289   5.641   2.678   8.060 -0.3612 -0.4357  3.4989
  185SLPC  C21421290   5.751   2.812   8.201 -0.2606  0.4080  0.0544
  185SLPC  H14R21291   5.672   2.890   8.197 -1.4007 -0.7485 -0.5165
  185SLPC  H14S21292   5.854   2.854   8.202 -0.8735  1.9792  0.1029
  185SLPC  C21521293   5.741   2.740   8.338  0.3699 -0.0804 -0.5179
  185SLPC  H15R21294   5.819   2.662   8.342 -0.3823 -0.8307 -0.1870
  185SLPC  H15S21295   5.646   2.682   8.336 -0.6682  1.5067  0.3331
  185SLPC  C21621296   5.719   2.825   8.460  0.3296 -0.6184  0.8985
  185SLPC  H16R21297   5.621   2.877   8.462  0.7755  0.2226  2.2433
  185SLPC  H16S21298   5.800   2.901   8.465 -1.7411  1.7040  0.9632
  185SLPC  C21721299   5.727   2.752   8.598  0.0890 -0.1900 -0.2845
  185SLPC  H17R21300   5.696   2.819   8.681  1.9305  0.4930 -0.1209
  185SLPC  H17S21301   5.835   2.730   8.613  0.1931  0.3775 -0.1796
  185SLPC  C21821302   5.642   2.625   8.609 -0.2487 -0.0889 -0.3131
  185SLPC  H18R21303   5.654   2.559   8.520  1.3268 -0.1216 -0.1029
  185SLPC  H18S21304   5.535   2.655   8.607 -0.2795 -0.2239 -1.0769
  185SLPC  H18T21305   5.657   2.565   8.701 -2.0639 -0.7870 -0.4268
  185SLPC   C3321306   6.444   3.624   6.922  0.5736  0.5125 -0.5575
  185SLPC   H3X21307   6.516   3.670   6.851  1.7192  1.3451  1.0818
  185SLPC   H3Y21308   6.506   3.552   6.980  2.6996 -0.8293 -4.1366
  185SLPC   C3421309   6.392   3.729   7.026  0.0902  0.2341  0.0956
  185SLPC   H4X21310   6.306   3.694   7.087  1.6409 -2.1289  1.0231
  185SLPC   H4Y21311   6.361   3.819   6.968 -1.4315 -0.1934  0.1954
  185SLPC   C3521312   6.496   3.777   7.126 -0.3539  0.5966  0.4481
  185SLPC   H5X21313   6.435   3.851   7.183 -1.9640  0.9161 -1.5687
  185SLPC   H5Y21314   6.590   3.812   7.078 -0.0372  0.8501  1.2327
  185SLPC   C3621315   6.536   3.663   7.228  0.2731 -0.2932  0.0726
  185SLPC   H6X21316   6.607   3.588   7.189 -0.6540 -1.4435  0.5244
  185SLPC   H6Y21317   6.448   3.602   7.259 -0.7385  0.9843 -0.1668
  185SLPC   C3721318   6.603   3.710   7.363 -0.0834 -0.5601 -0.3904
  185SLPC   H7X21319   6.668   3.633   7.409  0.9269  0.5886  0.1763
  185SLPC   H7Y21320   6.526   3.742   7.437 -1.6761  0.0075 -2.1847
  185SLPC   C3821321   6.697   3.837   7.347  0.3406 -0.0625  0.4245
  185SLPC   H8X21322   6.633   3.908   7.291  2.0977  1.8323  0.7198
  185SLPC   H8Y21323   6.780   3.810   7.278 -0.3698  2.7326 -1.6680
  185SLPC   C3921324   6.763   3.895   7.474 -0.3584  0.0823  0.0157
  185SLPC   H9X21325   6.823   3.820   7.529 -0.7077 -1.3122 -1.4230
  185SLPC   H9Y21326   6.680   3.912   7.546 -0.3032 -0.9264  0.3381
  185SLPC  C31021327   6.851   4.024   7.437 -0.5151 -0.6580  0.0975
  185SLPC  H10X21328   6.807   4.092   7.361  1.0534  0.9064  0.5394
  185SLPC  H10Y21329   6.940   3.978   7.388 -0.0453  1.8519 -1.5904
  185SLPC  C31121330   6.892   4.125   7.543  0.7772 -1.0749  0.4354
  185SLPC  H11X21331   6.799   4.182   7.567  1.5942 -0.3351  2.0083
  185SLPC  H11Y21332   6.970   4.193   7.500  1.0555 -1.2545  0.6582
  185SLPC  C31221333   6.967   4.070   7.664 -0.1991  0.3310  0.2297
  185SLPC  H12X21334   7.045   4.001   7.625 -1.3595 -0.3075 -1.0208
  185SLPC  H12Y21335   6.901   4.003   7.723  0.2611  1.4748  2.1228
  185SLPC  C31321336   7.027   4.171   7.763  0.2889  0.3022  0.1502
  185SLPC  H13X21337   7.027   4.269   7.710  0.3781  0.3777  0.2913
  185SLPC  H13Y21338   7.134   4.147   7.775  0.5672  1.2624 -0.3616
  185SLPC  C31421339   6.947   4.169   7.896 -0.1758  0.1300 -0.1411
  185SLPC  H14X21340   6.985   4.080   7.950  0.0900 -0.6550 -1.5653
  185SLPC  H14Y21341   6.838   4.165   7.873 -0.2633 -2.6284  0.3612
  185SLPC  C31521342   7.000   4.282   7.986  0.1813 -0.2639 -1.1726
  185SLPC  H15X21343   6.973   4.377   7.936 -1.2965 -0.8766 -1.6064
  185SLPC  H15Y21344   7.110   4.273   7.997 -0.1326 -1.6517  1.8421
  185SLPC  C31621345   6.951   4.267   8.131  0.3538 -0.4627 -0.1298
  185SLPC  H16X21346   6.983   4.174   8.182  0.9142  0.3052  0.9877
  185SLPC  H16Y21347   6.840   4.272   8.125  0.4345  0.5247 -1.0759
  185SLPC  C31721348   6.998   4.386   8.224  0.1935  0.6106  0.4226
  185SLPC  H17X21349   6.959   4.480   8.180 -0.1131 -0.2298 -1.1763
  185SLPC  H17Y21350   7.109   4.385   8.223  0.2178 -1.1135 -0.9389
  185SLPC  C31821351   6.943   4.366   8.365 -0.3046 -0.4783  0.6304
  185SLPC  H18X21352   6.957   4.463   8.418 -2.5726  0.3623 -0.2070
  185SLPC  H18Y21353   6.988   4.284   8.425 -0.6800 -1.7285 -0.7193
  185SLPC  H18Z21354   6.832   4.361   8.359 -0.4485 -1.1418  3.0604
  186SLPC     N21355   1.723   0.292   5.816  0.2396  0.0671  0.0487
  186SLPC   C1321356   1.603   0.263   5.719  0.9088 -0.0859  0.4086
  186SLPC  H13A21357   1.609   0.324   5.631  1.2770  0.7151  0.9756
  186SLPC  H13B21358   1.598   0.163   5.678 -1.6619 -0.2116  0.9154
  186SLPC  H13C21359   1.507   0.291   5.758  1.1120 -0.6094  1.3214
  186SLPC   C1421360   1.725   0.435   5.879  0.5719 -0.1858 -0.2760
  186SLPC  H14A21361   1.709   0.511   5.804 -2.4066  0.0532  0.4717
  186SLPC  H14B21362   1.654   0.443   5.960  0.2963  0.4301 -0.5778
  186SLPC  H14C21363   1.826   0.446   5.915 -0.5577 -0.1926  3.2293
  186SLPC   C1521364   1.857   0.269   5.747 -0.0719  0.8558  0.0749
  186SLPC  H15A21365   1.875   0.169   5.712  0.9436  0.7543  0.8420
  186SLPC  H15B21366   1.859   0.323   5.653 -1.6602  0.6896 -0.0853
  186SLPC  H15C21367   1.940   0.288   5.814  0.7122 -0.1076 -0.6035
  186SLPC   C1221368   1.706   0.188   5.928 -0.7156  0.8431  0.0576
  186SLPC  H12A21369   1.667   0.097   5.886 -0.0402  1.1663 -1.3032
  186SLPC  H12B21370   1.642   0.225   6.007  0.7460 -2.7492  3.2649
  186SLPC   C1121371   1.836   0.153   6.002 -0.2628 -0.4094 -0.3669
  186SLPC  H11A21372   1.911   0.104   5.937 -0.4799 -0.2598 -0.7319
  186SLPC  H11B21373   1.804   0.075   6.075  1.8736 -1.0993 -0.0732
  186SLPC     P21374   1.940   0.262   6.217 -0.0388 -0.0264 -0.0747
  186SLPC   O1321375   2.048   0.163   6.230  0.5252  0.0153 -0.4988
  186SLPC   O1421376   1.965   0.396   6.272  0.3873 -0.6248 -0.0382
  186SLPC   O1221377   1.904   0.270   6.062  0.4726  0.0233 -0.1281
  186SLPC   O1121378   1.818   0.194   6.287 -0.3836 -0.6667  0.1351
  186SLPC    C121379   1.729   0.266   6.369 -0.0814 -0.3678 -0.1668
  186SLPC    HA21380   1.718   0.372   6.338 -0.2400 -0.6230 -1.0265
  186SLPC    HB21381   1.635   0.207   6.358  0.7589 -1.7697 -0.1695
  186SLPC    C221382   1.783   0.270   6.513  0.8181  0.0568  0.3526
  186SLPC    HS21383   1.869   0.339   6.521  1.2830 -0.3141 -1.2635
  186SLPC   O2121384   1.829   0.142   6.557 -0.8559  0.0028 -0.0183
  186SLPC   C2121385   1.959   0.118   6.567 -0.0013 -0.4052 -0.2863
  186SLPC   O2221386   2.049   0.198   6.570  0.1628 -0.1588  0.3099
  186SLPC   C2221387   1.982  -0.031   6.578 -0.2509 -0.1486 -0.2283
  186SLPC   H2R21388   1.881  -0.076   6.593  0.1161 -0.5805  1.0531
  186SLPC   H2S21389   2.030  -0.066   6.484 -2.0855  0.0670 -1.2898
  186SLPC    C321390   1.673   0.324   6.611 -0.6750  0.2157 -0.0765
  186SLPC    HX21391   1.572   0.278   6.599 -0.9247  0.0685  2.2140
  186SLPC    HY21392   1.647   0.431   6.596 -0.8127  0.3626  1.1298
  186SLPC   O3121393   1.724   0.321   6.744 -0.2927  0.4270  0.2342
  186SLPC   C3121394   1.682   0.214   6.817 -0.6663 -0.2325  0.3538
  186SLPC   O3221395   1.601   0.134   6.781 -0.4007  0.1588  0.0632
  186SLPC   C3221396   1.742   0.224   6.954  0.5653 -0.5465 -0.0543
  186SLPC   H2X21397   1.725   0.325   6.998  1.4999 -0.5457  0.3408
  186SLPC   H2Y21398   1.852   0.212   6.940  0.6832  0.2771  0.0781
  186SLPC   C2321399   2.065  -0.072   6.699 -0.2323  0.1668  0.5589
  186SLPC   H3R21400   2.169  -0.035   6.692 -0.2692 -0.0030 -1.1822
  186SLPC   H3S21401   2.065  -0.182   6.717  1.2833  0.0569  0.0199
  186SLPC   C2421402   2.019  -0.027   6.832 -0.2506  0.4327 -0.2590
  186SLPC   H4R21403   1.909  -0.040   6.843 -0.2004 -0.6959 -0.9400
  186SLPC   H4S21404   2.045   0.080   6.851 -0.4221  0.6275 -1.0934
  186SLPC   C2521405   2.098  -0.098   6.948  0.2134  0.6671 -0.0997
  186SLPC   H5R21406   2.204  -0.066   6.945 -0.2479  2.1641 -1.1523
  186SLPC   H5S21407   2.107  -0.208   6.936  0.0124  0.6048  0.2926
  186SLPC   C2621408   2.036  -0.075   7.087 -0.5615  0.1459 -0.4668
  186SLPC   H6R21409   1.942  -0.134   7.086  0.2166 -1.1639 -2.0295
  186SLPC   H6S21410   2.024   0.034   7.102 -0.8826 -0.0701  0.9646
  186SLPC   C2721411   2.130  -0.126   7.202 -0.7248  0.2204  0.3216
  186SLPC   H7R21412   2.232  -0.082   7.201 -1.2281  1.7742 -3.9322
  186SLPC   H7S21413   2.142  -0.234   7.181  1.5389  0.9713 -3.0588
  186SLPC   C2821414   2.058  -0.116   7.331  0.0246  0.2426  0.1696
  186SLPC   H8R21415   1.953  -0.151   7.324 -0.5016  0.8680  3.3564
  186SLPC   H8S21416   2.042  -0.015   7.374 -0.8427 -0.1591  0.8190
  186SLPC   C2921417   2.137  -0.219   7.428  0.6090 -0.7419 -0.0901
  186SLPC   H9R21418   2.217  -0.271   7.374  0.0946  0.3757 -2.0409
  186SLPC  C21021419   2.132  -0.219   7.566  0.0550 -0.6920  0.0319
  186SLPC  H10R21420   2.197  -0.287   7.625 -0.3186 -0.8120  0.3068
  186SLPC  C21121421   2.049  -0.131   7.651 -0.1983  0.2276 -0.3076
  186SLPC  H11R21422   2.004  -0.178   7.741  0.5507 -1.4751 -0.7819
  186SLPC  H11S21423   1.962  -0.093   7.593 -1.1891 -0.9285  0.3726
  186SLPC  C21221424   2.136  -0.019   7.694  0.2912  0.2649  0.7828
  186SLPC  H12R21425   2.181   0.033   7.608 -1.0229 -2.3232 -1.5858
  186SLPC  C21321426   2.169   0.018   7.818 -0.5147  0.6859  0.3214
  186SLPC  H13R21427   2.245   0.094   7.841  0.5829 -0.4331  0.4700
  186SLPC  C21421428   2.130  -0.058   7.946 -0.5342  0.1860  0.8324
  186SLPC  H14R21429   2.069  -0.149   7.925 -0.6810  0.3437  0.5710
  186SLPC  H14S21430   2.073   0.004   8.019 -1.8046 -3.4936  3.3019
  186SLPC  C21521431   2.270  -0.105   7.995  0.6618  0.0697 -0.5994
  186SLPC  H15R21432   2.322  -0.165   7.917  1.3615  2.6475 -2.2449
  186SLPC  H15S21433   2.239  -0.173   8.077  2.4757 -0.7792 -0.5632
  186SLPC  C21621434   2.359  -0.003   8.057  0.2035  0.0175 -0.2714
  186SLPC  H16R21435   2.290   0.078   8.090 -0.2683  0.1311 -1.4901
  186SLPC  H16S21436   2.425   0.042   7.979  0.1180  1.7505  0.5925
  186SLPC  C21721437   2.444  -0.047   8.172 -0.4009 -0.5545  0.5211
  186SLPC  H17R21438   2.507  -0.133   8.140  0.2651  0.7172 -1.8012
  186SLPC  H17S21439   2.372  -0.092   8.243 -0.8146  1.2298  1.2881
  186SLPC  C21821440   2.529   0.061   8.241 -0.6077  0.1153 -0.2650
  186SLPC  H18R21441   2.471   0.149   8.275  1.2937  0.3731  2.6836
  186SLPC  H18S21442   2.614   0.098   8.180  1.6617  1.1695  3.2395
  186SLPC  H18T21443   2.561   0.025   8.341 -0.1250 -0.2594 -0.5428
  186SLPC   C3321444   1.680   0.121   7.051  0.6500  0.2670 -0.0282
  186SLPC   H3X21445   1.720   0.020   7.029  0.0532 -0.2438  1.1705
  186SLPC   H3Y21446   1.571   0.103   7.040  0.8039  0.1215 -1.5286
  186SLPC   C3421447   1.713   0.152   7.198  0.7747  0.2101  0.5986
  186SLPC   H4X21448   1.650   0.238   7.228 -0.1911 -0.1593 -0.3254
  186SLPC   H4Y21449   1.819   0.187   7.203  2.0912 -3.0633 -1.2789
  186SLPC   C3521450   1.693   0.037   7.300  0.2646  0.0398 -0.1619
  186SLPC   H5X21451   1.766  -0.047   7.287 -0.7576 -0.6927 -1.4047
  186SLPC   H5Y21452   1.593  -0.006   7.277  0.7050 -1.0817 -0.0485
  186SLPC   C3621453   1.709   0.085   7.443 -0.5168 -0.6462  0.9633
  186SLPC   H6X21454   1.650   0.177   7.463 -0.5976 -0.3829 -0.3874
  186SLPC   H6Y21455   1.814   0.120   7.441 -0.7508  0.0979 -1.3890
  186SLPC   C3721456   1.683  -0.032   7.537 -0.3117  0.2243  0.2633
  186SLPC   H7X21457   1.748  -0.118   7.509 -2.9207 -2.1194  0.9270
  186SLPC   H7Y21458   1.581  -0.075   7.531 -0.1016 -0.1268 -0.9257
  186SLPC   C3821459   1.713   0.005   7.685 -0.2171  0.0644  0.0448
  186SLPC   H8X21460   1.640   0.088   7.698 -1.3144 -0.5827 -1.7603
  186SLPC   H8Y21461   1.819   0.035   7.699  0.6978 -2.5747 -0.6395
  186SLPC   C3921462   1.687  -0.105   7.783  0.4298 -0.4374  0.0232
  186SLPC   H9X21463   1.764  -0.185   7.783  3.3082  2.1737 -0.4597
  186SLPC   H9Y21464   1.589  -0.152   7.756 -1.8335  2.4007  2.5573
  186SLPC  C31021465   1.690  -0.047   7.925  0.0188  0.8189  0.6891
  186SLPC  H10X21466   1.599   0.017   7.929 -0.7065  0.2071 -2.7319
  186SLPC  H10Y21467   1.776   0.022   7.940  0.0515  0.8317  0.4560
  186SLPC  C31121468   1.697  -0.163   8.029 -0.7646 -0.5438  0.1772
  186SLPC  H11X21469   1.725  -0.106   8.120 -1.1822 -1.1999  0.7228
  186SLPC  H11Y21470   1.788  -0.227   8.017 -0.5403 -0.9713  3.4474
  186SLPC  C31221471   1.559  -0.232   8.065 -0.0885  0.2116 -0.3679
  186SLPC  H12X21472   1.563  -0.340   8.042  1.7284  0.3551 -0.8950
  186SLPC  H12Y21473   1.483  -0.197   7.991  0.2117  0.4600 -0.5590
  186SLPC  C31321474   1.510  -0.193   8.203  0.5760 -0.1104 -0.7884
  186SLPC  H13X21475   1.399  -0.197   8.200  0.4232  1.2706  1.1740
  186SLPC  H13Y21476   1.531  -0.085   8.220  0.9134  0.2679 -3.2668
  186SLPC  C31421477   1.544  -0.291   8.315  0.3582 -0.3846  0.2608
  186SLPC  H14X21478   1.654  -0.311   8.311  0.8263  1.6644  1.5976
  186SLPC  H14Y21479   1.485  -0.381   8.286 -1.8992  0.6767  1.3230
  186SLPC  C31521480   1.517  -0.241   8.457  0.0554 -0.1693 -0.3223
  186SLPC  H15X21481   1.407  -0.230   8.472  0.0612 -0.0392 -0.3740
  186SLPC  H15Y21482   1.547  -0.134   8.468 -1.9269  0.4244 -0.2139
  186SLPC  C31621483   1.573  -0.329   8.565  0.3562 -0.2102 -0.4078
  186SLPC  H16X21484   1.683  -0.345   8.570  0.6196  1.2319 -1.1719
  186SLPC  H16Y21485   1.534  -0.429   8.536  2.8836 -1.2551 -0.4913
  186SLPC  C31721486   1.522  -0.269   8.696  0.4285 -0.4431 -0.0662
  186SLPC  H17X21487   1.412  -0.281   8.698  0.2890  0.7635  0.5350
  186SLPC  H17Y21488   1.543  -0.160   8.701 -1.3946 -0.0903  0.3091
  186SLPC  C31821489   1.579  -0.344   8.824  0.0958 -0.1426 -0.9159
  186SLPC  H18X21490   1.543  -0.449   8.819  1.2037 -0.6439  0.6692
  186SLPC  H18Y21491   1.534  -0.296   8.913 -0.1438  0.7733 -1.5144
  186SLPC  H18Z21492   1.690  -0.337   8.814  0.1095 -0.9589 -1.4495
  187SLPC     N21493   1.993   3.540   6.187  0.2401  0.5912 -0.1247
  187SLPC   C1321494   2.100   3.462   6.250  0.6247  0.2161  0.0515
  187SLPC  H13A21495   2.093   3.468   6.358  3.7641  0.7563  0.3198
  187SLPC  H13B21496   2.085   3.359   6.221  1.6362  0.2897 -0.7886
  187SLPC  H13C21497   2.195   3.492   6.209 -0.1136 -2.0564 -3.7847
  187SLPC   C1421498   1.856   3.482   6.228  0.4559  0.0534 -0.2562
  187SLPC  H14A21499   1.849   3.485   6.336  1.0500 -0.9262 -0.1753
  187SLPC  H14B21500   1.781   3.549   6.188  1.6207  1.5383 -0.0541
  187SLPC  H14C21501   1.855   3.377   6.205  1.1606  0.3921 -1.9764
  187SLPC   C1521502   2.015   3.518   6.039 -0.0643  0.0640  0.7755
  187SLPC  H15A21503   2.097   3.581   6.007  0.0289 -1.0422 -1.3402
  187SLPC  H15B21504   2.030   3.415   6.009 -3.4909 -0.1253 -0.7432
  187SLPC  H15C21505   1.933   3.565   5.986  1.1166 -0.4278 -1.6611
  187SLPC   C1221506   2.006   3.679   6.222  0.2646 -0.6190  1.1578
  187SLPC  H12A21507   1.942   3.738   6.157  2.5562  1.3316  0.4948
  187SLPC  H12B21508   2.096   3.725   6.183 -0.9908  0.9509 -0.0768
  187SLPC   C1121509   2.009   3.720   6.369  0.5514  0.2777 -0.4267
  187SLPC  H11A21510   1.910   3.696   6.414  0.5749 -0.3896 -0.7207
  187SLPC  H11B21511   2.016   3.831   6.373 -3.3660  0.6783 -0.9841
  187SLPC     P21512   2.260   3.734   6.456  0.5682  0.1398 -0.4614
  187SLPC   O1321513   2.355   3.640   6.515 -0.1127  0.0564  0.2830
  187SLPC   O1421514   2.296   3.803   6.328  0.3006  0.2431 -0.2227
  187SLPC   O1221515   2.114   3.663   6.447 -0.1781 -0.3289 -0.1125
  187SLPC   O1121516   2.235   3.855   6.550 -0.4885  0.4350  0.1904
  187SLPC    C121517   2.150   3.860   6.668  0.5014  0.0820 -0.3778
  187SLPC    HA21518   2.078   3.941   6.647 -1.2421 -1.6601 -1.4940
  187SLPC    HB21519   2.086   3.770   6.678  1.3873 -0.5211 -0.0004
  187SLPC    C221520   2.222   3.871   6.799 -0.0195 -1.0391  0.2303
  187SLPC    HS21521   2.151   3.885   6.883  1.0982 -1.0486  1.1924
  187SLPC   O2121522   2.302   3.989   6.800 -1.1559  0.5365 -0.6087
  187SLPC   C2121523   2.332   4.050   6.920  0.0360  1.0100  0.3620
  187SLPC   O2221524   2.280   4.031   7.029 -0.2265 -0.0873 -0.0807
  187SLPC   C2221525   2.438   4.159   6.884 -0.1813  0.4200 -0.3961
  187SLPC   H2R21526   2.536   4.112   6.908 -0.6582  0.2018  1.2248
  187SLPC   H2S21527   2.431   4.178   6.774 -2.1369  0.0399 -0.3740
  187SLPC    C321528   2.310   3.749   6.821  0.2852  0.1721 -0.5617
  187SLPC    HX21529   2.385   3.756   6.739 -0.7612  0.2338 -1.5428
  187SLPC    HY21530   2.253   3.656   6.801 -2.0717  1.5206 -0.4886
  187SLPC   O3121531   2.387   3.758   6.945 -0.4133  0.0134 -0.3284
  187SLPC   C3121532   2.317   3.718   7.051 -0.2885  0.2925  0.0551
  187SLPC   O3221533   2.198   3.681   7.044 -0.4525 -0.0896  0.2410
  187SLPC   C3221534   2.403   3.705   7.178  0.4246 -0.4818  0.4888
  187SLPC   H2X21535   2.466   3.796   7.190  0.0712  0.0325 -1.3245
  187SLPC   H2Y21536   2.468   3.616   7.158  0.2946 -0.7330  1.1533
  187SLPC   C2321537   2.418   4.287   6.970  0.0918  0.1287  0.2840
  187SLPC   H3R21538   2.312   4.319   6.962  0.6476  1.6352 -1.8809
  187SLPC   H3S21539   2.489   4.367   6.937  0.5771 -1.7203 -3.7836
  187SLPC   C2421540   2.451   4.262   7.122  0.7426  0.7312  0.9330
  187SLPC   H4R21541   2.386   4.187   7.170  0.9137  2.4064  4.0386
  187SLPC   H4S21542   2.417   4.356   7.170 -0.7856  1.3872 -1.2487
  187SLPC   C2521543   2.587   4.237   7.172 -0.0013  0.3223  0.0458
  187SLPC   H5R21544   2.653   4.306   7.114  0.5165 -1.3184 -1.3959
  187SLPC   H5S21545   2.637   4.138   7.166 -0.0445  0.3470 -0.8329
  187SLPC   C2621546   2.601   4.285   7.321  0.3000  0.2561  0.0497
  187SLPC   H6R21547   2.515   4.235   7.371 -0.4102  1.3795 -0.0160
  187SLPC   H6S21548   2.573   4.392   7.326  0.6138  0.2707  2.9534
  187SLPC   C2721549   2.724   4.253   7.394 -0.1016  0.1141 -0.0588
  187SLPC   H7R21550   2.755   4.321   7.476  2.0779 -1.5660  0.6174
  187SLPC   H7S21551   2.818   4.262   7.336  1.2277  1.0588  2.0994
  187SLPC   C2821552   2.737   4.107   7.451  0.4190  0.3326 -0.1461
  187SLPC   H8R21553   2.836   4.096   7.500  0.5417 -2.2657 -0.8382
  187SLPC   H8S21554   2.733   4.033   7.368  0.5297 -0.2395  0.3536
  187SLPC   C2921555   2.627   4.078   7.555  0.0212 -0.0020 -0.0572
  187SLPC   H9R21556   2.546   4.011   7.523 -0.3953 -0.6741  2.2301
  187SLPC  C21021557   2.638   4.112   7.687 -0.1488  0.1588 -0.0383
  187SLPC  H10R21558   2.548   4.095   7.749  0.8274 -1.7406  0.9556
  187SLPC  C21121559   2.762   4.186   7.749  0.2348  1.1145  0.1209
  187SLPC  H11R21560   2.840   4.196   7.670 -0.6699  1.2620 -0.7807
  187SLPC  H11S21561   2.812   4.125   7.827 -0.0152  0.2566 -0.3798
  187SLPC  C21221562   2.722   4.327   7.795 -0.2556 -0.2936  0.2682
  187SLPC  H12R21563   2.698   4.401   7.717 -1.9722 -0.5073  0.5387
  187SLPC  C21321564   2.723   4.356   7.924 -0.5775 -0.6317 -0.8011
  187SLPC  H13R21565   2.694   4.457   7.957 -3.8793 -1.7443  0.0991
  187SLPC  C21421566   2.755   4.260   8.033 -0.0497  0.6693  0.1588
  187SLPC  H14R21567   2.865   4.242   8.031  0.1818  2.0332 -1.1434
  187SLPC  H14S21568   2.728   4.155   8.008  2.7502 -0.3626  1.1052
  187SLPC  C21521569   2.692   4.301   8.168 -0.0206 -0.1784 -0.5752
  187SLPC  H15R21570   2.730   4.400   8.201 -3.1891  1.2317 -0.8629
  187SLPC  H15S21571   2.715   4.235   8.254 -0.2399 -0.5477 -0.8006
  187SLPC  C21621572   2.537   4.307   8.168  0.3679 -0.8192 -0.4322
  187SLPC  H16R21573   2.498   4.203   8.163 -0.2881 -0.6086  0.1827
  187SLPC  H16S21574   2.500   4.362   8.079  2.5587 -1.3206 -1.7243
  187SLPC  C21721575   2.473   4.373   8.295  0.1897 -0.7148 -0.3663
  187SLPC  H17R21576   2.519   4.474   8.298  1.1693 -1.1556  2.0766
  187SLPC  H17S21577   2.500   4.328   8.393 -2.6354 -0.1283  0.7569
  187SLPC  C21821578   2.316   4.379   8.285  0.3605 -0.5520 -0.1263
  187SLPC  H18R21579   2.269   4.278   8.279 -0.8971 -0.0482  0.8665
  187SLPC  H18S21580   2.296   4.430   8.188  3.1953  1.7578  0.3772
  187SLPC  H18T21581   2.270   4.432   8.371 -1.0612 -0.6086 -0.8062
  187SLPC   C3321582   2.327   3.685   7.310 -0.1502  0.2359 -0.3995
  187SLPC   H3X21583   2.249   3.608   7.295  1.1136 -1.8773  2.8089
  187SLPC   H3Y21584   2.283   3.782   7.341  2.4908  1.4954 -0.2792
  187SLPC   C3421585   2.425   3.628   7.408 -0.2211  0.3279 -0.4370
  187SLPC   H4X21586   2.518   3.689   7.417  0.8392 -1.1748 -0.8594
  187SLPC   H4Y21587   2.467   3.532   7.372  2.7632 -0.2507  3.9185
  187SLPC   C3521588   2.366   3.620   7.550  0.4090  0.5934 -0.4409
  187SLPC   H5X21589   2.278   3.553   7.558 -0.0737  1.0463 -1.6631
  187SLPC   H5Y21590   2.331   3.721   7.581 -0.4987  0.3176 -0.5216
  187SLPC   C3621591   2.468   3.582   7.662 -0.7878  0.0962  0.2912
  187SLPC   H6X21592   2.551   3.655   7.673 -2.1335  1.4337  2.1589
  187SLPC   H6Y21593   2.518   3.484   7.645 -2.9587 -1.1012  0.5287
  187SLPC   C3721594   2.414   3.575   7.796  0.0647  0.0205 -0.3807
  187SLPC   H7X21595   2.317   3.521   7.794  1.0231 -1.7696 -0.9747
  187SLPC   H7Y21596   2.477   3.504   7.854  0.8271 -0.6709 -1.9979
  187SLPC   C3821597   2.399   3.707   7.874 -0.0494  0.1247  0.0854
  187SLPC   H8X21598   2.351   3.687   7.972  2.5047 -0.6400  1.2837
  187SLPC   H8Y21599   2.342   3.782   7.815  0.9416  2.5973  2.0379
  187SLPC   C3921600   2.538   3.775   7.901 -0.0920  0.4877 -0.1256
  187SLPC   H9X21601   2.556   3.817   7.800  0.7840  1.8987  0.5872
  187SLPC   H9Y21602   2.615   3.698   7.923 -0.5647 -0.0648 -0.3726
  187SLPC  C31021603   2.537   3.877   8.021  0.1800 -0.7134  0.9375
  187SLPC  H10X21604   2.448   3.939   7.996  1.6794  0.8961 -0.6394
  187SLPC  H10Y21605   2.622   3.946   8.005 -0.6202  0.9408  3.2069
  187SLPC  C31121606   2.544   3.812   8.160  0.2178 -0.1532 -0.3265
  187SLPC  H11X21607   2.628   3.741   8.169  0.3562  0.2023  1.8656
  187SLPC  H11Y21608   2.454   3.752   8.186  0.6523 -0.1822  1.1988
  187SLPC  C31221609   2.565   3.917   8.271 -0.3583 -0.1184  0.2891
  187SLPC  H12X21610   2.470   3.963   8.306  0.0136  1.0855 -0.2170
  187SLPC  H12Y21611   2.629   4.000   8.233 -2.1073  0.6762 -1.0625
  187SLPC  C31321612   2.633   3.856   8.395  0.4312  0.0127 -0.1293
  187SLPC  H13X21613   2.743   3.860   8.382  0.7326  2.3679  2.1654
  187SLPC  H13Y21614   2.608   3.749   8.411  1.5531 -0.3709 -0.7911
  187SLPC  C31421615   2.595   3.925   8.531 -0.0864 -0.4588 -0.5297
  187SLPC  H14X21616   2.653   3.879   8.614 -0.3537 -1.2013 -0.7471
  187SLPC  H14Y21617   2.486   3.926   8.555 -0.2119 -0.3756 -1.0841
  187SLPC  C31521618   2.628   4.080   8.535  0.0076 -0.1805  0.2787
  187SLPC  H15X21619   2.553   4.136   8.476 -0.7491  1.0529  2.3132
  187SLPC  H15Y21620   2.728   4.092   8.487 -0.1386 -0.9747 -0.2417
  187SLPC  C31621621   2.643   4.129   8.683 -0.6577  0.3676  0.1303
  187SLPC  H16X21622   2.570   4.071   8.743 -0.0433  0.1521  0.6835
  187SLPC  H16Y21623   2.619   4.237   8.688  0.4669  0.7960 -2.2296
  187SLPC  C31721624   2.786   4.122   8.745  0.5995 -0.5265  0.2610
  187SLPC  H17X21625   2.830   4.021   8.729 -0.0380 -0.7035 -0.4069
  187SLPC  H17Y21626   2.777   4.130   8.855 -0.0492 -2.3342  0.3747
  187SLPC  C31821627   2.869   4.239   8.695 -0.1190 -0.5006 -1.0969
  187SLPC  H18X21628   2.851   4.256   8.587 -1.2936  3.3810 -0.4813
  187SLPC  H18Y21629   2.976   4.230   8.724 -0.7200 -0.8864  1.2273
  187SLPC  H18Z21630   2.833   4.335   8.740  0.1231 -1.4330  1.2603
  188SLPC     N21631   2.030   4.953   6.359 -0.2363 -0.2921 -1.4707
  188SLPC   C1321632   1.950   4.839   6.297  0.4720 -0.2250  0.6060
  188SLPC  H13A21633   1.877   4.871   6.224  2.1939 -0.7472 -1.4575
  188SLPC  H13B21634   2.013   4.772   6.240 -2.7735 -1.2942 -2.0057
  188SLPC  H13C21635   1.893   4.789   6.374  1.0347  1.2501  2.0539
  188SLPC   C1421636   1.935   5.037   6.428  0.0744  0.7872 -0.4596
  188SLPC  H14A21637   1.844   5.054   6.373  1.5151 -1.0132 -3.7066
  188SLPC  H14B21638   1.918   4.984   6.520  0.6048  2.0913  0.4077
  188SLPC  H14C21639   1.980   5.129   6.462 -1.1513  1.3675 -0.3414
  188SLPC   C1521640   2.096   5.017   6.245  0.5473 -0.9188  0.9685
  188SLPC  H15A21641   2.175   4.949   6.219  1.3074  0.2669  0.1232
  188SLPC  H15B21642   2.025   5.051   6.171  1.0817  3.0118  1.9983
  188SLPC  H15C21643   2.143   5.108   6.279 -2.3993  1.7743 -1.5079
  188SLPC   C1221644   2.135   4.897   6.449  0.4390 -0.1785 -0.4434
  188SLPC  H12A21645   2.211   4.971   6.471 -0.3903  0.6357 -0.2561
  188SLPC  H12B21646   2.181   4.819   6.391  1.1027 -0.8025  0.8889
  188SLPC   C1121647   2.096   4.835   6.588 -0.9001  0.1361 -0.0293
  188SLPC  H11A21648   2.056   4.916   6.654 -0.6146 -0.5072  0.9569
  188SLPC  H11B21649   2.190   4.802   6.636 -1.2843 -0.0952  0.5805
  188SLPC     P21650   2.030   4.574   6.559 -0.1343 -0.0488  0.5022
  188SLPC   O1321651   1.903   4.510   6.525  0.5267 -0.0433 -0.9459
  188SLPC   O1421652   2.141   4.578   6.456  0.3487 -0.3903 -0.2924
  188SLPC   O1221653   2.005   4.724   6.586  0.2132  0.4741 -0.1561
  188SLPC   O1121654   2.083   4.508   6.690  0.2720  0.2525 -0.5524
  188SLPC    C121655   2.041   4.553   6.819  0.2308  0.0488 -0.6174
  188SLPC    HA21656   1.939   4.597   6.820  0.2131  0.0131 -0.8354
  188SLPC    HB21657   2.037   4.467   6.890 -0.2653  1.5068  1.1961
  188SLPC    C221658   2.127   4.661   6.887 -0.6713 -0.3098 -0.7683
  188SLPC    HS21659   2.142   4.747   6.819  1.0548  0.2793  0.3084
  188SLPC   O2121660   2.250   4.610   6.922 -0.0052 -0.1183 -0.2382
  188SLPC   C2121661   2.344   4.704   6.940 -0.5015 -0.1693  0.2716
  188SLPC   O2221662   2.326   4.824   6.923 -0.2592  0.1268 -0.2298
  188SLPC   C2221663   2.477   4.640   6.978 -0.2221  0.2835 -0.1353
  188SLPC   H2R21664   2.446   4.558   7.046 -2.2461  1.0575 -0.0370
  188SLPC   H2S21665   2.523   4.591   6.890 -0.1577  0.4406 -0.1908
  188SLPC    C321666   2.052   4.719   7.018 -0.2502  0.0330 -0.0663
  188SLPC    HX21667   1.950   4.745   6.981 -1.1897 -0.4758  2.0016
  188SLPC    HY21668   2.112   4.808   7.048 -0.6588  0.4894 -0.5735
  188SLPC   O3121669   2.034   4.615   7.113 -0.0750 -0.3034  0.0262
  188SLPC   C3121670   2.112   4.620   7.218 -0.1174  0.1593  0.2669
  188SLPC   O3221671   2.213   4.689   7.222  0.0449 -0.1106 -0.0167
  188SLPC   C3221672   2.059   4.522   7.328  0.0893  0.2756  0.4901
  188SLPC   H2X21673   2.047   4.420   7.284 -1.5210  0.7850 -0.3527
  188SLPC   H2Y21674   1.958   4.562   7.352 -0.8892 -1.6314 -0.2498
  188SLPC   C2321675   2.580   4.727   7.048  0.0819  0.2895  0.2771
  188SLPC   H3R21676   2.566   4.835   7.024 -2.7083 -0.0998 -0.1323
  188SLPC   H3S21677   2.678   4.690   7.013  0.8341  1.8872  0.6038
  188SLPC   C2421678   2.558   4.704   7.201 -0.2597 -0.6385  0.0423
  188SLPC   H4R21679   2.593   4.603   7.230  2.6027  0.2555  0.0376
  188SLPC   H4S21680   2.453   4.719   7.232 -0.4225  1.1064 -1.2206
  188SLPC   C2521681   2.637   4.817   7.269 -0.7332 -0.0496  0.4242
  188SLPC   H5R21682   2.631   4.911   7.210  1.0126  0.8704  1.6247
  188SLPC   H5S21683   2.743   4.786   7.259 -0.7657  0.2540 -1.0783
  188SLPC   C2621684   2.605   4.843   7.416  0.7246  0.8416  0.4273
  188SLPC   H6R21685   2.585   4.745   7.465 -1.9113  1.1031  0.0674
  188SLPC   H6S21686   2.500   4.881   7.408 -1.4171 -3.9672  1.9160
  188SLPC   C2721687   2.715   4.922   7.480 -0.1386  0.1421 -0.5394
  188SLPC   H7R21688   2.726   5.013   7.417 -2.4708 -0.0480 -1.3040
  188SLPC   H7S21689   2.809   4.862   7.476 -0.6564 -0.7330  0.1019
  188SLPC   C2821690   2.675   4.947   7.625 -0.1561 -0.2128 -0.0735
  188SLPC   H8R21691   2.643   4.846   7.657  2.8125 -1.5780 -1.0303
  188SLPC   H8S21692   2.584   5.010   7.619  1.0430  1.4569 -2.8422
  188SLPC   C2921693   2.775   5.008   7.716  0.0875  0.6455  0.7363
  188SLPC   H9R21694   2.849   5.079   7.677  0.6448  0.4381  1.3766
  188SLPC  C21021695   2.780   4.977   7.848 -0.4370 -0.8612  0.3996
  188SLPC  H10R21696   2.848   5.035   7.914 -1.1901  0.6239 -0.0755
  188SLPC  C21121697   2.694   4.874   7.920  0.0509 -0.8802  0.8933
  188SLPC  H11R21698   2.647   4.803   7.847 -2.7000  3.0984 -1.6041
  188SLPC  H11S21699   2.613   4.943   7.953  0.7062  1.1080 -1.3559
  188SLPC  C21221700   2.757   4.806   8.039  0.5959 -0.4368 -0.3008
  188SLPC  H12R21701   2.770   4.699   8.014 -1.1106 -0.7089 -0.1425
  188SLPC  C21321702   2.799   4.867   8.154  0.3694 -0.1858 -0.2573
  188SLPC  H13R21703   2.849   4.802   8.228  0.0149 -1.7388 -1.3185
  188SLPC  C21421704   2.780   5.009   8.193 -0.4622 -0.2966  0.5710
  188SLPC  H14R21705   2.715   5.068   8.126  1.8001  2.2587  0.4522
  188SLPC  H14S21706   2.875   5.066   8.184 -1.4253  1.0403 -2.1279
  188SLPC  C21521707   2.728   5.020   8.341 -0.1967 -0.5661  0.0553
  188SLPC  H15R21708   2.808   4.977   8.406 -0.8908 -0.3546  1.0801
  188SLPC  H15S21709   2.629   4.973   8.358 -0.6793  0.8648  1.4987
  188SLPC  C21621710   2.711   5.159   8.388 -0.3430  0.4782  0.5136
  188SLPC  H16R21711   2.622   5.203   8.339  0.3925  2.9497  1.2211
  188SLPC  H16S21712   2.799   5.213   8.348  0.7222 -0.5271  1.4339
  188SLPC  C21721713   2.676   5.174   8.535 -0.7773 -0.6045  0.3285
  188SLPC  H17R21714   2.762   5.139   8.596  0.1326  1.0618  0.0683
  188SLPC  H17S21715   2.587   5.109   8.550 -0.8527 -0.3811  0.8902
  188SLPC  C21821716   2.641   5.312   8.580 -1.1174  0.3412  0.1418
  188SLPC  H18R21717   2.730   5.379   8.581 -2.6356  2.4747  1.1711
  188SLPC  H18S21718   2.614   5.316   8.688  0.0337 -1.2705  0.5304
  188SLPC  H18T21719   2.568   5.359   8.511 -1.8556 -1.9447 -0.7100
  188SLPC   C3321720   2.147   4.526   7.451 -0.1126  0.4240  0.2251
  188SLPC   H3X21721   2.097   4.468   7.532 -0.4642  1.3256  0.6726
  188SLPC   H3Y21722   2.143   4.629   7.492  3.3777  0.9588 -0.4700
  188SLPC   C3421723   2.287   4.479   7.440 -0.3144 -0.6457 -0.6621
  188SLPC   H4X21724   2.360   4.555   7.404  0.8525 -1.8335 -0.8631
  188SLPC   H4Y21725   2.291   4.401   7.361 -0.2095 -1.4447  0.1285
  188SLPC   C3521726   2.345   4.416   7.569 -0.3743  0.0510  0.0231
  188SLPC   H5X21727   2.455   4.407   7.569 -0.1852  0.6306  3.7857
  188SLPC   H5Y21728   2.298   4.315   7.576 -0.4758  0.1265  0.4596
  188SLPC   C3621729   2.312   4.479   7.706 -0.1795 -0.5212  0.0581
  188SLPC   H6X21730   2.351   4.421   7.793  0.1058 -1.6034 -0.7759
  188SLPC   H6Y21731   2.203   4.483   7.731 -0.0010  1.8893  0.6815
  188SLPC   C3721732   2.376   4.619   7.714  0.4685  0.6715 -0.0384
  188SLPC   H7X21733   2.346   4.692   7.635 -0.0151 -0.0035 -0.4935
  188SLPC   H7Y21734   2.481   4.597   7.689 -0.0352 -0.6340 -1.1139
  188SLPC   C3821735   2.387   4.681   7.854 -0.6917 -0.4164 -0.3656
  188SLPC   H8X21736   2.439   4.779   7.846  0.0142 -0.6873  0.6643
  188SLPC   H8Y21737   2.446   4.608   7.914 -0.8486 -0.3576 -0.1387
  188SLPC   C3921738   2.253   4.713   7.929 -0.5406  0.5552  0.4167
  188SLPC   H9X21739   2.192   4.623   7.951 -1.2513  1.0013  0.3157
  188SLPC   H9Y21740   2.201   4.777   7.855  2.8689  1.0610 -1.7864
  188SLPC  C31021741   2.282   4.791   8.056 -0.1961 -0.3396 -0.3668
  188SLPC  H10X21742   2.193   4.843   8.098 -0.4483 -0.3940 -0.8280
  188SLPC  H10Y21743   2.357   4.873   8.042  1.0826 -1.3331  0.4168
  188SLPC  C31121744   2.340   4.707   8.170 -0.4354  0.2805  0.0599
  188SLPC  H11X21745   2.430   4.647   8.141 -0.3535  0.3559  0.1565
  188SLPC  H11Y21746   2.263   4.638   8.210  0.6997  0.4787  2.8346
  188SLPC  C31221747   2.399   4.790   8.282 -0.5369 -0.2568 -0.8396
  188SLPC  H12X21748   2.320   4.853   8.329  0.5228  0.6115 -0.1629
  188SLPC  H12Y21749   2.478   4.864   8.257  0.3463 -0.7374  0.4236
  188SLPC  C31321750   2.460   4.710   8.398 -0.9091  0.0983 -0.3814
  188SLPC  H13X21751   2.552   4.652   8.372 -0.9857 -0.6434  0.8938
  188SLPC  H13Y21752   2.388   4.629   8.422 -0.8134 -0.1285 -0.8448
  188SLPC  C31421753   2.492   4.795   8.519 -0.3373  0.0490  0.2541
  188SLPC  H14X21754   2.412   4.872   8.526 -1.9363 -1.5708  0.6719
  188SLPC  H14Y21755   2.583   4.854   8.499 -0.0893 -0.5206 -0.3504
  188SLPC  C31521756   2.506   4.704   8.641  0.5454 -0.4577 -0.2774
  188SLPC  H15X21757   2.593   4.635   8.643  0.0563 -1.0869 -0.5897
  188SLPC  H15Y21758   2.421   4.634   8.648 -0.0431  0.2919  0.2505
  188SLPC  C31621759   2.511   4.789   8.770  0.6272 -0.0981  0.2338
  188SLPC  H16X21760   2.434   4.869   8.766 -0.4943 -0.9609  2.5816
  188SLPC  H16Y21761   2.612   4.833   8.786  1.1022 -0.4509 -1.6308
  188SLPC  C31721762   2.501   4.708   8.905 -0.1235 -0.4768  0.0269
  188SLPC  H17X21763   2.522   4.782   8.985  0.6038  0.8098 -1.2947
  188SLPC  H17Y21764   2.568   4.619   8.901 -0.3218 -0.5887 -1.5042
  188SLPC  C31821765   2.365   4.654   8.935 -0.7250 -0.3982  0.0669
  188SLPC  H18X21766   2.334   4.598   8.845 -1.6591  1.0065 -0.5232
  188SLPC  H18Y21767   2.286   4.732   8.936 -0.2865  0.0465  0.3151
  188SLPC  H18Z21768   2.354   4.592   9.027  1.0512 -1.7657 -0.5836
  189SLPC     N21769   5.093   0.686   6.189  0.6806 -0.1337 -0.6673
  189SLPC   C1321770   5.163   0.742   6.306 -0.1432  0.3327  0.3160
  189SLPC  H13A21771   5.251   0.683   6.325  0.3773  1.0593  0.1805
  189SLPC  H13B21772   5.191   0.844   6.285 -0.7918  0.1447 -1.6294
  189SLPC  H13C21773   5.103   0.739   6.396  0.4997 -0.4369  0.7303
  189SLPC   C1421774   5.189   0.706   6.072 -0.1913  0.5777 -0.0377
  189SLPC  H14A21775   5.219   0.809   6.057 -0.0977  0.4475 -0.7655
  189SLPC  H14B21776   5.281   0.650   6.086 -0.7022 -0.1183  0.5887
  189SLPC  H14C21777   5.139   0.665   5.986 -0.5441  1.6269 -0.3470
  189SLPC   C1521778   4.974   0.763   6.162  0.0253  0.1609 -0.0363
  189SLPC  H15A21779   4.982   0.870   6.172  1.8909  0.0677 -0.1391
  189SLPC  H15B21780   4.937   0.746   6.063 -0.8622  0.3344  0.2589
  189SLPC  H15C21781   4.904   0.735   6.240 -0.2014 -0.4166 -0.4463
  189SLPC   C1221782   5.073   0.543   6.208 -0.0675  0.5047 -0.0618
  189SLPC  H12A21783   5.168   0.491   6.212 -3.1602 -6.1053  1.2614
  189SLPC  H12B21784   5.022   0.494   6.127 -2.0677  3.6368 -0.8806
  189SLPC   C1121785   4.996   0.496   6.340 -0.2852 -0.1994  0.2590
  189SLPC  H11A21786   5.062   0.529   6.423  2.3043 -2.3555 -0.7694
  189SLPC  H11B21787   4.999   0.385   6.343 -1.4345 -0.3409 -1.7458
  189SLPC     P21788   4.746   0.439   6.272  0.2049  0.4634  0.1828
  189SLPC   O1321789   4.627   0.527   6.246  0.1942  0.8417  0.4194
  189SLPC   O1421790   4.813   0.379   6.154 -0.7711 -0.5001  0.1525
  189SLPC   O1221791   4.852   0.537   6.337  0.7339 -0.2859 -0.6361
  189SLPC   O1121792   4.703   0.333   6.378 -0.4211 -0.2749 -0.1925
  189SLPC    C121793   4.719   0.369   6.518  0.0473  0.1915 -0.1999
  189SLPC    HA21794   4.716   0.273   6.573  0.8826 -0.0425 -0.5446
  189SLPC    HB21795   4.808   0.431   6.543  0.6725 -0.1653 -1.4686
  189SLPC    C221796   4.595   0.443   6.578  0.3190 -0.0861  0.3767
  189SLPC    HS21797   4.575   0.539   6.525 -1.1692 -0.7830 -0.4087
  189SLPC   O2121798   4.617   0.459   6.720  1.0278 -0.0790 -0.3416
  189SLPC   C2121799   4.655   0.585   6.743 -0.1803  0.0185  0.1257
  189SLPC   O2221800   4.689   0.667   6.659  0.2463  0.2224 -0.1405
  189SLPC   C2221801   4.654   0.606   6.892  0.3088 -0.1533  0.9265
  189SLPC   H2R21802   4.545   0.606   6.914  0.1040  1.0313  0.0228
  189SLPC   H2S21803   4.703   0.520   6.942  1.1587 -0.2023  0.0326
  189SLPC    C321804   4.482   0.354   6.534  0.1727  1.1917 -0.3272
  189SLPC    HX21805   4.490   0.259   6.591 -0.8060 -0.2543 -2.4251
  189SLPC    HY21806   4.486   0.335   6.424  0.0501  2.4118 -0.5608
  189SLPC   O3121807   4.358   0.429   6.567  0.2602 -0.1526  0.0947
  189SLPC   C3121808   4.246   0.351   6.567 -0.6180  0.4528 -1.3182
  189SLPC   O3221809   4.251   0.229   6.555 -0.6747 -0.4636 -0.0202
  189SLPC   C3221810   4.121   0.446   6.582 -0.0818 -0.1645 -0.3315
  189SLPC   H2X21811   4.028   0.387   6.573 -0.2140  0.0479 -0.3790
  189SLPC   H2Y21812   4.135   0.522   6.501 -0.0114 -1.1362 -1.2486
  189SLPC   C2321813   4.713   0.737   6.948  0.0326  0.7562  0.5096
  189SLPC   H3R21814   4.645   0.823   6.927 -1.0227 -0.6478 -2.5337
  189SLPC   H3S21815   4.807   0.766   6.896 -0.2919  0.1709 -0.4417
  189SLPC   C2421816   4.729   0.711   7.098  0.2004 -0.5567 -0.7623
  189SLPC   H4R21817   4.798   0.787   7.142 -1.7748  0.4983  0.6881
  189SLPC   H4S21818   4.761   0.609   7.126 -3.1467 -0.9441  2.4256
  189SLPC   C2521819   4.589   0.729   7.163  0.7933 -0.1040 -0.8124
  189SLPC   H5R21820   4.507   0.663   7.127 -0.9517  1.3195  0.3747
  189SLPC   H5S21821   4.565   0.836   7.146  2.2781  0.2388 -0.9123
  189SLPC   C2621822   4.587   0.701   7.317 -0.3335 -0.2399 -0.7792
  189SLPC   H6R21823   4.673   0.749   7.369 -1.1336  0.9317 -0.5239
  189SLPC   H6S21824   4.601   0.592   7.332  0.4631 -0.0421  0.0216
  189SLPC   C2721825   4.453   0.739   7.384 -0.1832  1.1982 -0.2621
  189SLPC   H7R21826   4.386   0.656   7.354  0.8586 -0.5018  1.8031
  189SLPC   H7S21827   4.420   0.842   7.355  0.4719  1.6259  0.4665
  189SLPC   C2821828   4.465   0.750   7.540 -0.1948  0.0593 -1.2613
  189SLPC   H8R21829   4.378   0.799   7.587 -0.9763 -1.1679 -1.3941
  189SLPC   H8S21830   4.550   0.813   7.574 -0.9025 -0.3635  1.5621
  189SLPC   C2921831   4.473   0.609   7.607  0.3388  0.0661 -0.1158
  189SLPC   H9R21832   4.520   0.527   7.551  0.0475 -0.5134  0.4768
  189SLPC  C21021833   4.454   0.589   7.740  0.2570  0.5741 -0.1920
  189SLPC  H10R21834   4.467   0.485   7.772  2.6052  0.4781 -1.2477
  189SLPC  C21121835   4.418   0.703   7.834 -0.4535  0.0472  0.1668
  189SLPC  H11R21836   4.420   0.800   7.781 -2.0529  0.6916  1.2224
  189SLPC  H11S21837   4.489   0.716   7.919  0.3161 -1.9108 -0.1083
  189SLPC  C21221838   4.276   0.700   7.891  0.0577 -0.0453  0.3291
  189SLPC  H12R21839   4.214   0.786   7.861 -1.0088 -0.7375  0.5231
  189SLPC  C21321840   4.224   0.623   7.988 -0.6830 -0.6391 -0.5750
  189SLPC  H13R21841   4.120   0.636   8.019 -0.0278 -1.6546  2.3727
  189SLPC  C21421842   4.299   0.513   8.066  0.3935  0.0006  0.4461
  189SLPC  H14R21843   4.378   0.471   8.000 -0.3077 -0.0768 -0.3684
  189SLPC  H14S21844   4.238   0.425   8.095  1.0777 -2.1074 -3.6918
  189SLPC  C21521845   4.362   0.565   8.199  0.2116  0.5758 -0.3545
  189SLPC  H15R21846   4.287   0.609   8.268 -1.4627 -1.0552 -1.0387
  189SLPC  H15S21847   4.441   0.639   8.173  0.7116  0.3121  0.3974
  189SLPC  C21621848   4.441   0.452   8.273 -0.0626 -0.3834 -0.2570
  189SLPC  H16R21849   4.494   0.498   8.359 -2.0325  2.6522 -0.5023
  189SLPC  H16S21850   4.516   0.413   8.202  0.8235  3.0091 -1.3985
  189SLPC  C21721851   4.362   0.342   8.341  0.5347  0.2173  0.5638
  189SLPC  H17R21852   4.290   0.289   8.275 -0.5137  0.4715  1.4675
  189SLPC  H17S21853   4.294   0.388   8.416 -1.6855 -0.7283 -0.7476
  189SLPC  C21821854   4.449   0.240   8.406  0.2683 -0.4353  0.5062
  189SLPC  H18R21855   4.524   0.290   8.471 -1.1475  1.2130  0.9513
  189SLPC  H18S21856   4.506   0.176   8.335  0.5126  0.6144 -0.2678
  189SLPC  H18T21857   4.397   0.165   8.469 -0.0271 -2.0066 -1.4877
  189SLPC   C3321858   4.113   0.513   6.724 -0.1914  0.5293  0.0975
  189SLPC   H3X21859   4.048   0.603   6.721 -0.4324  0.4252  1.3497
  189SLPC   H3Y21860   4.214   0.550   6.754  0.2465 -0.2661 -0.3657
  189SLPC   C3421861   4.078   0.399   6.831 -0.2776  0.3349  0.2892
  189SLPC   H4X21862   4.158   0.323   6.819 -2.1979 -2.0647  1.6559
  189SLPC   H4Y21863   3.974   0.367   6.809 -1.3876  4.0165 -0.4636
  189SLPC   C3521864   4.098   0.451   6.976  0.6857 -0.0839 -0.7550
  189SLPC   H5X21865   4.049   0.551   6.984  1.1831  0.1264 -0.2250
  189SLPC   H5Y21866   4.208   0.452   6.995  1.0570 -1.7253 -2.4934
  189SLPC   C3621867   4.036   0.347   7.072  0.2126 -0.1265  0.8535
  189SLPC   H6X21868   4.060   0.241   7.050 -1.3845 -0.6310  1.3651
  189SLPC   H6Y21869   3.926   0.365   7.070  0.2301  0.1246  1.6782
  189SLPC   C3721870   4.088   0.377   7.216 -0.8510 -0.6085 -0.3813
  189SLPC   H7X21871   4.071   0.483   7.243  0.1386 -0.0950 -1.6873
  189SLPC   H7Y21872   4.198   0.369   7.213 -0.7464  0.3158  0.7413
  189SLPC   C3821873   4.028   0.290   7.321  0.5710  0.2029  0.3458
  189SLPC   H8X21874   4.058   0.193   7.276 -0.6123 -0.3890  0.7851
  189SLPC   H8Y21875   3.917   0.295   7.317  0.5401  3.7251  1.7043
  189SLPC   C3921876   4.078   0.298   7.461  0.5372  0.1159  0.2398
  189SLPC   H9X21877   4.189   0.292   7.463  0.5026 -4.8045  2.4113
  189SLPC   H9Y21878   4.045   0.216   7.529  0.4841 -0.4836 -0.4924
  189SLPC  C31021879   4.032   0.424   7.535 -0.6151  0.5416 -0.6782
  189SLPC  H10X21880   3.923   0.408   7.553 -0.9897  0.9568 -2.4459
  189SLPC  H10Y21881   4.045   0.508   7.464  0.7894 -1.7721 -3.3500
  189SLPC  C31121882   4.098   0.443   7.670 -0.3450 -0.5806  0.3891
  189SLPC  H11X21883   4.056   0.541   7.701  0.1508 -0.0387 -0.5894
  189SLPC  H11Y21884   4.204   0.473   7.658 -0.5287  0.0122  0.2444
  189SLPC  C31221885   4.082   0.328   7.766 -0.2472  0.1195 -0.8221
  189SLPC  H12X21886   4.118   0.356   7.867  1.5311 -2.2490 -0.7227
  189SLPC  H12Y21887   4.153   0.247   7.739  0.1935 -0.6587  2.2629
  189SLPC  C31321888   3.934   0.274   7.793  0.1764  0.5152  0.0084
  189SLPC  H13X21889   3.885   0.230   7.703 -1.5533  1.6339  0.3439
  189SLPC  H13Y21890   3.876   0.369   7.805 -0.2144  0.3042 -0.1629
  189SLPC  C31421891   3.916   0.185   7.915  0.1014  0.1450 -0.3857
  189SLPC  H14X21892   3.950   0.240   8.005  0.4413  0.2434 -0.5747
  189SLPC  H14Y21893   3.977   0.093   7.903  1.4570  0.7711  1.2381
  189SLPC  C31521894   3.769   0.151   7.943  0.8941  0.6141 -0.1821
  189SLPC  H15X21895   3.725   0.096   7.858  1.3775  2.1271 -1.4480
  189SLPC  H15Y21896   3.704   0.241   7.955 -0.3973 -0.3763  0.5083
  189SLPC  C31621897   3.753   0.063   8.068  0.7950  0.6230  0.0218
  189SLPC  H16X21898   3.777   0.114   8.164  2.0975 -0.2777  0.2115
  189SLPC  H16Y21899   3.836  -0.010   8.054  0.3588 -0.0007  0.6527
  189SLPC  C31721900   3.626  -0.009   8.074  0.3775 -0.5834 -0.2377
  189SLPC  H17X21901   3.644  -0.102   8.131 -0.3544  0.1716  1.2722
  189SLPC  H17Y21902   3.586  -0.030   7.972 -0.7912 -2.8921  0.6200
  189SLPC  C31821903   3.508   0.063   8.146  0.1973  0.4834 -0.1322
  189SLPC  H18X21904   3.415   0.001   8.143 -1.1107  2.3812 -1.0118
  189SLPC  H18Y21905   3.480   0.155   8.090 -3.2690 -0.8446 -0.8899
  189SLPC  H18Z21906   3.545   0.080   8.249 -3.1691 -2.7169  1.8859
  190SLPC     N21907   5.833   4.378   6.318 -0.0688 -0.2986  0.0781
  190SLPC   C1321908   5.870   4.242   6.269 -0.1445 -0.3869 -0.4415
  190SLPC  H13A21909   5.923   4.250   6.176  0.5733  0.1038  0.0013
  190SLPC  H13B21910   5.929   4.185   6.340  1.5894  1.1062 -0.6129
  190SLPC  H13C21911   5.786   4.179   6.242  0.6351 -1.3550 -0.6687
  190SLPC   C1421912   5.731   4.428   6.221  0.5455  0.0441  0.0383
  190SLPC  H14A21913   5.782   4.444   6.127 -2.0279 -0.2449 -1.4955
  190SLPC  H14B21914   5.645   4.364   6.209  1.7011 -1.5171 -0.2207
  190SLPC  H14C21915   5.687   4.523   6.246 -1.7805 -0.7911 -0.6291
  190SLPC   C1521916   5.949   4.464   6.312  0.2432  0.0493 -0.5223
  190SLPC  H15A21917   6.034   4.434   6.372  0.2160  2.5243  0.8972
  190SLPC  H15B21918   5.982   4.474   6.210 -0.1864 -0.6278 -0.7300
  190SLPC  H15C21919   5.927   4.567   6.334 -1.6982 -0.3799 -0.3080
  190SLPC   C1221920   5.776   4.369   6.456  0.0876 -0.0972  0.0331
  190SLPC  H12A21921   5.849   4.317   6.515 -1.2756 -1.9496  0.1768
  190SLPC  H12B21922   5.691   4.303   6.464  1.7390 -2.2475  0.4658
  190SLPC   C1121923   5.734   4.509   6.521 -0.4611 -0.4936  0.5903
  190SLPC  H11A21924   5.824   4.573   6.534  1.3214 -2.6258 -0.5160
  190SLPC  H11B21925   5.702   4.478   6.622 -0.0371 -1.3876  0.4625
  190SLPC     P21926   5.561   4.705   6.484  0.0073  0.4289 -0.4400
  190SLPC   O1321927   5.655   4.812   6.468 -0.3266  0.0730  0.4591
  190SLPC   O1421928   5.438   4.725   6.404 -0.0967  0.2833  0.2800
  190SLPC   O1221929   5.622   4.561   6.453  0.1519 -0.5929  0.5546
  190SLPC   O1121930   5.514   4.692   6.632 -0.7160 -1.0424 -0.4221
  190SLPC    C121931   5.456   4.572   6.681 -0.0786  0.2110  0.3920
  190SLPC    HA21932   5.346   4.580   6.664 -0.5998 -1.2634  2.6343
  190SLPC    HB21933   5.485   4.478   6.629 -1.4134 -0.4089  0.7237
  190SLPC    C221934   5.463   4.569   6.837 -0.4600 -0.1232 -0.2461
  190SLPC    HS21935   5.362   4.535   6.869 -1.3381  0.8198 -1.8412
  190SLPC   O2121936   5.497   4.689   6.900  0.3247 -0.1990 -0.5908
  190SLPC   C2121937   5.423   4.802   6.886  0.2633  0.0845  0.3904
  190SLPC   O2221938   5.320   4.812   6.818 -0.5457 -0.4673 -0.2150
  190SLPC   C2221939   5.477   4.903   6.988  0.7566 -0.2035 -0.0744
  190SLPC   H2R21940   5.588   4.908   6.992  0.7740 -0.1333 -0.5767
  190SLPC   H2S21941   5.445   4.999   6.942  1.9175  2.1677  3.6205
  190SLPC    C321942   5.564   4.456   6.882  0.5199  0.2357 -0.0547
  190SLPC    HX21943   5.658   4.484   6.829  0.2899  1.8671  0.3347
  190SLPC    HY21944   5.541   4.361   6.830 -1.1230  0.1673  0.7404
  190SLPC   O3121945   5.577   4.448   7.026 -0.2292  0.8258  0.4425
  190SLPC   C3121946   5.528   4.344   7.084 -0.1164  0.2685  0.0505
  190SLPC   O3221947   5.480   4.246   7.026 -0.1853 -0.0324  0.0189
  190SLPC   C3221948   5.534   4.364   7.232  0.2264  0.3958 -0.2227
  190SLPC   H2X21949   5.467   4.450   7.253  0.5923  0.4077  0.9406
  190SLPC   H2Y21950   5.632   4.407   7.261  0.6420  2.4677 -3.9617
  190SLPC   C2321951   5.403   4.886   7.122  0.2862  0.1294 -0.7387
  190SLPC   H3R21952   5.421   4.782   7.159 -0.5272  0.5177  0.8564
  190SLPC   H3S21953   5.293   4.898   7.112 -0.2921 -1.5103  2.3491
  190SLPC   C2421954   5.454   4.986   7.228 -1.3061  0.3704  0.3661
  190SLPC   H4R21955   5.458   5.092   7.194 -0.9415  0.7622  1.5851
  190SLPC   H4S21956   5.556   4.948   7.247 -1.3132 -1.6793 -2.9918
  190SLPC   C2521957   5.370   4.982   7.355  0.5890 -0.0348 -0.2762
  190SLPC   H5R21958   5.369   4.877   7.390  1.6084  0.6283  1.9716
  190SLPC   H5S21959   5.267   5.015   7.332  0.2721  0.6165  1.8178
  190SLPC   C2621960   5.412   5.072   7.466  0.6668 -0.7500 -0.4815
  190SLPC   H6R21961   5.333   5.079   7.543  0.3308  0.8913 -0.9215
  190SLPC   H6S21962   5.421   5.170   7.413  0.4974  0.3815  1.4988
  190SLPC   C2721963   5.549   5.045   7.537  0.0410  0.1311  0.1891
  190SLPC   H7R21964   5.629   5.031   7.461 -1.5464 -1.1332 -1.3390
  190SLPC   H7S21965   5.545   4.953   7.599  0.0551  0.1893  0.2765
  190SLPC   C2821966   5.597   5.165   7.613  0.1487 -0.2496 -0.4070
  190SLPC   H8R21967   5.605   5.251   7.543 -2.4833 -1.5161 -2.4462
  190SLPC   H8S21968   5.698   5.141   7.652 -0.4304  1.4359  2.3618
  190SLPC   C2921969   5.496   5.211   7.722 -0.2964 -0.1504 -0.5453
  190SLPC   H9R21970   5.408   5.268   7.690 -0.2065 -0.7642 -1.9690
  190SLPC  C21021971   5.505   5.170   7.855  0.0747 -0.4327  0.7649
  190SLPC  H10R21972   5.419   5.202   7.915  0.4385  0.2505  0.9308
  190SLPC  C21121973   5.605   5.089   7.926 -0.3327 -0.1671 -0.1519
  190SLPC  H11R21974   5.662   5.022   7.859 -1.6540 -0.8950 -0.5921
  190SLPC  H11S21975   5.548   5.019   7.991 -0.1728  0.4560  0.6779
  190SLPC  C21221976   5.695   5.177   8.007  0.1158  0.1162 -0.0505
  190SLPC  H12R21977   5.794   5.201   7.965  0.3765  0.8442  0.9527
  190SLPC  C21321978   5.670   5.239   8.126  0.9585 -0.1997  0.2709
  190SLPC  H13R21979   5.729   5.321   8.168 -2.3349  1.8667  1.3079
  190SLPC  C21421980   5.533   5.218   8.195  0.5594 -0.5978  0.3048
  190SLPC  H14R21981   5.508   5.109   8.197  2.5539 -1.0990  0.1335
  190SLPC  H14S21982   5.449   5.276   8.152  0.5939 -1.5289 -1.1080
  190SLPC  C21521983   5.545   5.249   8.344 -0.6067  0.2387  0.8183
  190SLPC  H15R21984   5.564   5.356   8.368  0.7568  0.0107  0.8529
  190SLPC  H15S21985   5.631   5.193   8.386 -1.2142 -0.1151  1.6208
  190SLPC  C21621986   5.424   5.198   8.424 -0.4155 -0.1352 -0.2878
  190SLPC  H16R21987   5.418   5.088   8.428 -0.2114 -0.1516 -0.4422
  190SLPC  H16S21988   5.332   5.237   8.376 -1.4602 -0.0590  1.6911
  190SLPC  C21721989   5.422   5.254   8.569  0.1480 -1.3501  0.2668
  190SLPC  H17R21990   5.442   5.363   8.568 -0.3026 -1.1839 -3.5746
  190SLPC  H17S21991   5.501   5.199   8.625 -0.7205 -1.8335  1.0636
  190SLPC  C21821992   5.286   5.224   8.638  0.0164 -0.1741  0.4144
  190SLPC  H18R21993   5.279   5.284   8.732  1.0988 -0.4049  0.6523
  190SLPC  H18S21994   5.265   5.120   8.670 -2.5196  0.9213  2.7399
  190SLPC  H18T21995   5.201   5.252   8.572  0.5681  2.5739  0.7221
  190SLPC   C3321996   5.475   4.251   7.323 -0.9915 -0.1455 -0.6354
  190SLPC   H3X21997   5.531   4.159   7.295 -0.8831 -0.3615  0.2424
  190SLPC   H3Y21998   5.372   4.247   7.282 -0.6262  1.0886 -1.7294
  190SLPC   C3421999   5.483   4.279   7.471 -0.3687 -1.0272 -0.2144
  190SLPC   H4X22000   5.396   4.338   7.507 -0.1162 -1.6867  1.5941
  190SLPC   H4Y22001   5.570   4.348   7.480 -1.0101 -0.1497 -0.5878
  190SLPC   C3522002   5.498   4.157   7.559  0.0535 -0.4103 -0.5440
  190SLPC   H5X22003   5.587   4.100   7.526 -1.1422 -1.5098 -2.0286
  190SLPC   H5Y22004   5.416   4.084   7.540  0.4610 -1.5309  1.7038
  190SLPC   C3622005   5.508   4.193   7.704  0.7215 -0.4355 -0.8393
  190SLPC   H6X22006   5.416   4.252   7.723  0.9697 -0.2446 -0.2141
  190SLPC   H6Y22007   5.592   4.264   7.718  0.1415 -0.2040  2.1024
  190SLPC   C3722008   5.522   4.067   7.800 -0.0882  0.2329 -0.4101
  190SLPC   H7X22009   5.616   4.010   7.783  0.0821  0.1554  0.7301
  190SLPC   H7Y22010   5.434   4.006   7.768  2.3157 -3.2198 -1.1069
  190SLPC   C3822011   5.514   4.101   7.953 -0.3436 -0.0718 -0.1909
  190SLPC   H8X22012   5.526   4.004   8.006  1.1627  0.0518 -0.2496
  190SLPC   H8Y22013   5.413   4.136   7.982 -0.3117  0.5351 -0.7686
  190SLPC   C3922014   5.612   4.207   8.006 -0.4653 -0.5747  0.5425
  190SLPC   H9X22015   5.583   4.311   7.980 -1.3061 -0.5396  1.5437
  190SLPC   H9Y22016   5.716   4.190   7.971 -0.6397  0.0845 -0.3189
  190SLPC  C31022017   5.619   4.210   8.157  0.0283 -0.9050 -0.1630
  190SLPC  H10X22018   5.687   4.291   8.190  0.0995 -0.1316 -2.0788
  190SLPC  H10Y22019   5.664   4.115   8.195  1.6243  0.3058  1.0823
  190SLPC  C31122020   5.484   4.230   8.221  0.2282 -0.3249 -0.9135
  190SLPC  H11X22021   5.419   4.147   8.188  0.7453 -1.2165  0.2351
  190SLPC  H11Y22022   5.434   4.325   8.190 -0.3683 -0.1234  0.5472
  190SLPC  C31222023   5.487   4.229   8.375  0.6340  0.3157 -0.1181
  190SLPC  H12X22024   5.534   4.326   8.405 -0.6672  0.0242  3.3515
  190SLPC  H12Y22025   5.559   4.156   8.416  0.1719  0.7948  1.6759
  190SLPC  C31322026   5.341   4.221   8.433 -0.7225  0.6164 -0.1978
  190SLPC  H13X22027   5.277   4.273   8.358 -0.0720  0.0367 -1.1885
  190SLPC  H13Y22028   5.333   4.269   8.533 -2.0282  1.6047 -0.7507
  190SLPC  C31422029   5.307   4.073   8.457  0.3729  0.3770 -0.3711
  190SLPC  H14X22030   5.330   4.016   8.365 -1.6570 -0.9559 -0.1313
  190SLPC  H14Y22031   5.197   4.058   8.465  0.5606 -1.2542 -0.3902
  190SLPC  C31522032   5.377   4.004   8.578 -0.5429  0.6230  0.1582
  190SLPC  H15X22033   5.338   4.051   8.671  0.0752 -0.3031  0.8976
  190SLPC  H15Y22034   5.487   4.018   8.585 -0.2312 -1.0647 -0.9301
  190SLPC  C31622035   5.348   3.850   8.591 -0.0625 -0.3600  0.3064
  190SLPC  H16X22036   5.375   3.797   8.497 -1.5817  0.2101 -0.4908
  190SLPC  H16Y22037   5.238   3.849   8.608 -0.4563 -0.8004 -1.9820
  190SLPC  C31722038   5.418   3.772   8.709  0.5495 -0.3202 -0.1955
  190SLPC  H17X22039   5.384   3.824   8.801  1.2407  0.9357 -0.6342
  190SLPC  H17Y22040   5.527   3.794   8.716  0.4668 -0.3372  2.1073
  190SLPC  C31822041   5.381   3.628   8.727 -0.4575 -0.3768  0.3511
  190SLPC  H18X22042   5.431   3.604   8.823 -0.9307  3.2497  1.6656
  190SLPC  H18Y22043   5.408   3.554   8.649 -2.1478  0.0701 -0.7110
  190SLPC  H18Z22044   5.272   3.618   8.740 -0.4688 -0.5835  0.1057
  191SLPC     N22045   3.905   0.681   5.603  0.1855  0.3563  0.3347
  191SLPC   C1322046   3.973   0.767   5.693  0.0887 -0.5450 -0.0226
  191SLPC  H13A22047   3.919   0.861   5.691 -0.1941 -0.6895  0.4941
  191SLPC  H13B22048   3.952   0.733   5.794 -0.0732 -0.3768  0.0024
  191SLPC  H13C22049   4.079   0.784   5.679  0.2645 -1.1351  0.5566
  191SLPC   C1422050   3.954   0.720   5.467  0.1437 -0.5180 -0.6819
  191SLPC  H14A22051   4.061   0.732   5.478  0.1353 -0.5859 -0.5114
  191SLPC  H14B22052   3.928   0.653   5.386  0.6379 -0.3552 -0.9775
  191SLPC  H14C22053   3.918   0.816   5.435  1.1771 -0.2862 -1.1908
  191SLPC   C1522054   3.756   0.699   5.608 -1.2424  0.5711  0.5095
  191SLPC  H15A22055   3.724   0.800   5.592 -1.0130  0.3346 -1.7712
  191SLPC  H15B22056   3.719   0.645   5.522  3.5329 -1.6421 -0.4877
  191SLPC  H15C22057   3.715   0.650   5.695  2.6656 -1.7165  1.3425
  191SLPC   C1222058   3.939   0.526   5.625  0.1289  0.3215  0.3380
  191SLPC  H12A22059   4.042   0.516   5.596 -0.3660  0.0955 -1.4834
  191SLPC  H12B22060   3.877   0.477   5.551  0.6974  1.1117 -0.6851
  191SLPC   C1122061   3.916   0.476   5.769  0.0467  0.4711 -0.0760
  191SLPC  H11A22062   3.810   0.492   5.797  0.3143 -1.7912  2.6688
  191SLPC  H11B22063   3.983   0.537   5.832  2.0737  0.3911 -2.0248
  191SLPC     P22064   3.912   0.228   5.889  0.0359  0.0121 -0.1629
  191SLPC   O1322065   3.788   0.155   5.872  0.1553  0.0948  0.2696
  191SLPC   O1422066   4.031   0.145   5.914 -0.6603 -0.1680 -0.2043
  191SLPC   O1222067   3.938   0.334   5.767  0.7907  0.9105 -0.0785
  191SLPC   O1122068   3.887   0.322   6.014 -0.4725 -0.0467  0.2248
  191SLPC    C122069   3.998   0.369   6.098  0.1592  0.0191 -0.2372
  191SLPC    HA22070   4.064   0.288   6.136  1.8926  1.5685  0.2303
  191SLPC    HB22071   4.060   0.441   6.041 -0.2152 -1.5594 -2.7698
  191SLPC    C222072   3.942   0.434   6.227  0.5991  0.4100  0.6866
  191SLPC    HS22073   4.021   0.468   6.296  1.3894 -0.7630  0.3802
  191SLPC   O2122074   3.845   0.350   6.296 -0.5566 -0.0124  0.2963
  191SLPC   C2122075   3.891   0.239   6.343 -0.8013 -0.3856  0.1351
  191SLPC   O2222076   4.006   0.209   6.367  0.0216  0.5430  0.2014
  191SLPC   C2222077   3.774   0.150   6.378 -0.0254  0.0586  0.6479
  191SLPC   H2R22078   3.736   0.119   6.278 -0.6767  1.6594  0.3590
  191SLPC   H2S22079   3.803   0.048   6.410 -1.0246 -0.5519 -0.2971
  191SLPC    C322080   3.878   0.566   6.191 -0.6752 -0.2945 -0.1269
  191SLPC    HX22081   3.784   0.548   6.135  0.6419 -1.5886 -2.0489
  191SLPC    HY22082   3.942   0.609   6.111 -2.6169 -1.2072 -2.2978
  191SLPC   O3122083   3.874   0.661   6.298  0.0043  0.1217  0.2059
  191SLPC   C3122084   3.771   0.645   6.374 -0.2438 -0.1767 -0.4510
  191SLPC   O3222085   3.672   0.572   6.358  0.1096 -0.1419  0.1489
  191SLPC   C3222086   3.805   0.699   6.515 -0.6321 -0.1381  0.2545
  191SLPC   H2X22087   3.900   0.648   6.541  1.4925  2.9768 -0.7219
  191SLPC   H2Y22088   3.719   0.664   6.575 -0.6476 -1.9952 -0.7732
  191SLPC   C2322089   3.671   0.200   6.478 -0.6353  0.2320  0.4023
  191SLPC   H3R22090   3.597   0.117   6.477 -0.6704  0.2247  1.7662
  191SLPC   H3S22091   3.612   0.290   6.448 -1.5142 -0.9536 -1.5845
  191SLPC   C2422092   3.730   0.207   6.620  0.1051 -0.4001  0.8373
  191SLPC   H4R22093   3.801   0.291   6.635 -1.3616  0.6027  2.6128
  191SLPC   H4S22094   3.791   0.117   6.643 -0.1974 -0.5156  1.1866
  191SLPC   C2522095   3.625   0.227   6.732 -0.3613 -0.9205  0.0606
  191SLPC   H5R22096   3.667   0.194   6.829 -1.4579  0.2520  0.9567
  191SLPC   H5S22097   3.537   0.161   6.713 -0.3499 -1.3388  1.3546
  191SLPC   C2622098   3.588   0.373   6.735  0.1621 -0.0348  0.2928
  191SLPC   H6R22099   3.487   0.377   6.782 -0.1220 -4.5349  0.4776
  191SLPC   H6S22100   3.596   0.421   6.635  2.0656  0.0790  0.4675
  191SLPC   C2722101   3.684   0.456   6.819 -0.2974 -0.0111 -0.4496
  191SLPC   H7R22102   3.776   0.494   6.770 -0.9757  0.8132 -1.1318
  191SLPC   H7S22103   3.730   0.387   6.892  3.1914  0.0199 -2.4080
  191SLPC   C2822104   3.630   0.583   6.891  0.4734  0.9759 -0.2871
  191SLPC   H8R22105   3.533   0.553   6.937  1.8487  0.6678  2.5870
  191SLPC   H8S22106   3.611   0.659   6.813 -1.1290  0.4366 -0.4660
  191SLPC   C2922107   3.717   0.645   6.999 -0.0620 -0.3283  0.1508
  191SLPC   H9R22108   3.823   0.650   6.970 -0.5671  0.3519 -1.7047
  191SLPC  C21022109   3.668   0.698   7.118 -0.7172 -0.1871  0.6609
  191SLPC  H10R22110   3.738   0.735   7.194 -0.3973  0.4358  0.0714
  191SLPC  C21122111   3.525   0.708   7.150  0.1059  0.5210 -0.2670
  191SLPC  H11R22112   3.493   0.621   7.211 -3.4468  2.5940  1.1638
  191SLPC  H11S22113   3.462   0.710   7.059 -1.0389 -0.4325  0.4875
  191SLPC  C21222114   3.506   0.839   7.217  0.0487 -0.4369  0.0457
  191SLPC  H12R22115   3.539   0.928   7.162 -0.8706 -0.7439 -1.0458
  191SLPC  C21322116   3.454   0.857   7.344 -0.4648  0.3082 -0.4759
  191SLPC  H13R22117   3.426   0.959   7.376  0.0877  0.7495 -1.3545
  191SLPC  C21422118   3.407   0.751   7.441 -0.0032 -0.3986  0.3536
  191SLPC  H14R22119   3.390   0.649   7.400  0.4325 -0.8407  1.2522
  191SLPC  H14S22120   3.317   0.767   7.504  0.6874  0.2357  1.1996
  191SLPC  C21522121   3.530   0.707   7.527  0.6486  0.3548  0.0138
  191SLPC  H15R22122   3.570   0.781   7.599 -0.2961  0.4950  0.4102
  191SLPC  H15S22123   3.609   0.675   7.456  0.1676  0.3096 -0.5079
  191SLPC  C21622124   3.489   0.580   7.602 -0.7534 -0.6446 -0.7736
  191SLPC  H16R22125   3.484   0.494   7.532  0.2378  0.0919 -1.7707
  191SLPC  H16S22126   3.391   0.593   7.652  0.4027  3.4332  0.8361
  191SLPC  C21722127   3.598   0.531   7.696  0.4566  0.3799 -0.3298
  191SLPC  H17R22128   3.620   0.617   7.762 -0.1870  0.5535 -0.3264
  191SLPC  H17S22129   3.693   0.526   7.639  0.3099  0.7631 -0.6153
  191SLPC  C21822130   3.554   0.399   7.774  0.1832 -0.1523  0.5619
  191SLPC  H18R22131   3.645   0.369   7.830  0.4858  0.3602  0.3481
  191SLPC  H18S22132   3.530   0.317   7.703  4.0708 -0.9159 -0.1092
  191SLPC  H18T22133   3.474   0.419   7.849  0.3695  0.5359  0.5786
  191SLPC   C3322134   3.828   0.851   6.529 -0.8051  0.9642  0.0401
  191SLPC   H3X22135   3.739   0.899   6.483 -0.6197  1.2762  0.0060
  191SLPC   H3Y22136   3.919   0.862   6.467  1.2374 -1.2232  2.4104
  191SLPC   C3422137   3.853   0.899   6.671  0.0800 -0.2805  0.0518
  191SLPC   H4X22138   3.923   0.835   6.728  0.3834 -0.0480 -0.0603
  191SLPC   H4Y22139   3.754   0.894   6.722  0.3270 -3.3856  0.4413
  191SLPC   C3522140   3.897   1.054   6.672  0.1562 -0.2919 -0.1666
  191SLPC   H5X22141   3.806   1.116   6.660  1.8021  2.1721 -0.7716
  191SLPC   H5Y22142   3.977   1.076   6.598 -1.0537  0.4943 -1.2959
  191SLPC   C3622143   3.960   1.115   6.805  0.3565  0.4815  0.5546
  191SLPC   H6X22144   3.977   1.224   6.791 -2.0248  0.7895 -0.3771
  191SLPC   H6Y22145   4.054   1.060   6.825 -0.4592 -1.7582 -1.4236
  191SLPC   C3722146   3.854   1.111   6.911  0.2975  0.3825 -0.4200
  191SLPC   H7X22147   3.834   1.004   6.935 -0.4278  1.0102  2.0390
  191SLPC   H7Y22148   3.764   1.154   6.862  0.1689  1.1244  0.4488
  191SLPC   C3822149   3.888   1.188   7.035 -0.0230  0.1200  0.0088
  191SLPC   H8X22150   3.904   1.295   7.008 -2.2378  0.3484 -0.5784
  191SLPC   H8Y22151   3.986   1.163   7.080  0.9947  2.9869 -0.3770
  191SLPC   C3922152   3.773   1.180   7.135  0.1798 -0.2954 -0.3913
  191SLPC   H9X22153   3.740   1.076   7.155  0.2564 -0.0912  0.8744
  191SLPC   H9Y22154   3.697   1.242   7.082  0.0428 -0.6576 -0.6217
  191SLPC  C31022155   3.821   1.262   7.261  0.3338  0.2677  0.2100
  191SLPC  H10X22156   3.841   1.367   7.233  0.4191  0.0949 -0.4007
  191SLPC  H10Y22157   3.918   1.227   7.301  0.2883  0.1841  0.2498
  191SLPC  C31122158   3.714   1.267   7.377 -0.2220  0.1635  1.0246
  191SLPC  H11X22159   3.710   1.162   7.414 -0.3224 -0.4050 -0.5291
  191SLPC  H11Y22160   3.612   1.291   7.340  0.7647  1.8716 -0.7335
  191SLPC  C31222161   3.765   1.353   7.490  0.1923  0.6020  0.7027
  191SLPC  H12X22162   3.784   1.448   7.436 -3.8510  0.1067 -2.0660
  191SLPC  H12Y22163   3.864   1.321   7.527  0.3965  0.6392  0.1902
  191SLPC  C31322164   3.672   1.372   7.611 -0.1953  0.1201  1.1720
  191SLPC  H13X22165   3.666   1.271   7.657 -1.2961  0.1614  1.1313
  191SLPC  H13Y22166   3.570   1.385   7.569  1.2437 -1.0563 -3.2131
  191SLPC  C31422167   3.710   1.465   7.726 -0.0072  0.1274  0.5414
  191SLPC  H14X22168   3.729   1.566   7.685  1.1162  0.0889  0.9310
  191SLPC  H14Y22169   3.811   1.432   7.759 -0.1374 -1.3379 -0.4246
  191SLPC  C31522170   3.601   1.467   7.828  0.1200 -0.0654 -0.8038
  191SLPC  H15X22171   3.624   1.492   7.934  0.1983 -0.9477 -0.6066
  191SLPC  H15Y22172   3.556   1.366   7.841 -1.2591  0.5412 -0.7033
  191SLPC  C31622173   3.483   1.562   7.786 -0.0254  0.4510  0.1452
  191SLPC  H16X22174   3.434   1.534   7.690  1.5158  0.4760 -0.6934
  191SLPC  H16Y22175   3.529   1.659   7.757  1.4985 -0.5722 -1.1098
  191SLPC  C31722176   3.382   1.591   7.904  0.5076  0.3202 -0.7287
  191SLPC  H17X22177   3.343   1.695   7.897 -1.0574 -0.1957  0.1169
  191SLPC  H17Y22178   3.449   1.598   7.992 -0.2749 -0.2401 -0.0776
  191SLPC  C31822179   3.276   1.486   7.906 -0.6176  0.2902  0.0187
  191SLPC  H18X22180   3.212   1.488   7.815  0.1884  1.3376 -0.5552
  191SLPC  H18Y22181   3.214   1.482   7.998  1.3550 -0.8134  1.3786
  191SLPC  H18Z22182   3.306   1.381   7.890 -1.1993  0.2528 -0.8375
  192SLPC     N22183   4.788   1.366   5.987 -0.7619  0.2838 -0.0444
  192SLPC   C1322184   4.900   1.279   6.046 -0.7565  0.0251 -0.2723
  192SLPC  H13A22185   4.888   1.255   6.150  0.1327  0.5272 -0.0478
  192SLPC  H13B22186   4.906   1.188   5.988 -1.1613 -0.6193  0.6774
  192SLPC  H13C22187   4.998   1.324   6.039  0.0834 -1.3744  1.6639
  192SLPC   C1422188   4.655   1.312   6.018 -0.0129  0.1604 -0.0598
  192SLPC  H14A22189   4.580   1.358   5.955 -2.0635 -1.7205  0.8888
  192SLPC  H14B22190   4.640   1.206   6.000 -0.1715 -0.0720  1.3597
  192SLPC  H14C22191   4.628   1.334   6.120  0.6340  0.9849 -0.0539
  192SLPC   C1522192   4.805   1.363   5.837 -0.1634  0.3790 -0.0507
  192SLPC  H15A22193   4.797   1.261   5.803 -1.2676  0.4696 -0.1123
  192SLPC  H15B22194   4.725   1.415   5.786 -0.8599 -1.0331 -0.4623
  192SLPC  H15C22195   4.897   1.415   5.816  0.1934  0.3241  1.2742
  192SLPC   C1222196   4.796   1.507   6.048 -0.4265  0.1871  0.2559
  192SLPC  H12A22197   4.710   1.560   6.011 -0.0335 -0.0092 -0.9736
  192SLPC  H12B22198   4.878   1.560   6.003 -0.0659 -0.8102 -0.3121
  192SLPC   C1122199   4.803   1.511   6.197  0.0241  0.5243  0.3017
  192SLPC  H11A22200   4.893   1.456   6.231 -0.2551 -0.6206 -0.7163
  192SLPC  H11B22201   4.718   1.462   6.248 -0.7307  0.3766 -1.0301
  192SLPC     P22202   4.901   1.708   6.341  0.2139 -0.3108  0.1514
  192SLPC   O1322203   5.007   1.615   6.380 -0.2058  0.1517 -0.1810
  192SLPC   O1422204   4.941   1.836   6.289 -0.0578 -0.8756 -0.0896
  192SLPC   O1222205   4.810   1.651   6.226  0.0990 -0.1548 -0.7297
  192SLPC   O1122206   4.804   1.722   6.456  0.4674 -0.7655  0.0600
  192SLPC    C122207   4.711   1.623   6.509 -0.1086 -0.2949 -0.2180
  192SLPC    HA22208   4.642   1.593   6.428 -0.2945 -0.1748 -0.1042
  192SLPC    HB22209   4.762   1.530   6.544 -2.7711 -1.5831  0.5007
  192SLPC    C222210   4.626   1.691   6.617  0.2730  0.1995 -0.2129
  192SLPC    HS22211   4.590   1.788   6.575 -1.6402 -0.2316  0.3422
  192SLPC   O2122212   4.696   1.706   6.742 -0.3287  0.1638 -0.4306
  192SLPC   C2122213   4.688   1.835   6.787 -0.6876  0.2700 -0.5413
  192SLPC   O2222214   4.621   1.921   6.738 -0.3519  0.1069 -0.3384
  192SLPC   C2222215   4.763   1.857   6.923  0.2741  0.6730 -0.1527
  192SLPC   H2R22216   4.732   1.788   7.004  0.4883 -0.2870 -0.8719
  192SLPC   H2S22217   4.873   1.851   6.909  0.4085  2.8527 -0.3561
  192SLPC    C322218   4.502   1.605   6.654  0.1672 -0.5479 -0.4130
  192SLPC    HX22219   4.533   1.530   6.730  2.1397  0.0051 -0.6164
  192SLPC    HY22220   4.479   1.542   6.565  0.6171 -0.7857 -0.3648
  192SLPC   O3122221   4.390   1.676   6.708  0.1490 -0.2446  0.7187
  192SLPC   C3122222   4.281   1.600   6.718 -0.0190  0.2780 -0.3796
  192SLPC   O3222223   4.281   1.481   6.704 -0.5269  0.3260 -0.4450
  192SLPC   C3222224   4.160   1.687   6.760  0.0769 -0.1140  0.0669
  192SLPC   H2X22225   4.091   1.687   6.672 -0.6574 -1.5283  0.6065
  192SLPC   H2Y22226   4.203   1.788   6.777 -1.6838  1.5397 -4.0490
  192SLPC   C2322227   4.729   1.991   6.994 -0.2327  0.2058 -0.1793
  192SLPC   H3R22228   4.625   1.995   7.031 -0.0169 -0.8364  0.5940
  192SLPC   H3S22229   4.751   2.085   6.938 -0.5244  0.0862 -0.5029
  192SLPC   C2422230   4.795   1.994   7.132  0.4309 -0.3052  0.0170
  192SLPC   H4R22231   4.905   1.984   7.119  0.3314  0.3548 -1.5209
  192SLPC   H4S22232   4.763   1.908   7.194  0.7970 -1.5280 -1.4379
  192SLPC   C2522233   4.770   2.129   7.208 -0.7623  1.1800 -0.7901
  192SLPC   H5R22234   4.664   2.118   7.242 -0.2358 -0.9494  0.3412
  192SLPC   H5S22235   4.782   2.219   7.144  1.8868  3.0638  2.0899
  192SLPC   C2622236   4.857   2.132   7.338  0.7755  0.1826  0.2908
  192SLPC   H6R22237   4.966   2.114   7.324  0.7330 -0.7558  1.0493
  192SLPC   H6S22238   4.825   2.052   7.408  2.5506 -0.0124  0.9233
  192SLPC   C2722239   4.845   2.262   7.414  0.4074  0.2928  0.5705
  192SLPC   H7R22240   4.736   2.283   7.425  0.0299 -0.8273 -0.7826
  192SLPC   H7S22241   4.876   2.342   7.344 -2.1765  1.4519  0.6246
  192SLPC   C2822242   4.934   2.273   7.536  0.3495 -0.0978 -0.6328
  192SLPC   H8R22243   4.938   2.379   7.568 -1.5416 -0.4448  0.9698
  192SLPC   H8S22244   5.036   2.230   7.524  0.5630 -0.2981  1.4205
  192SLPC   C2922245   4.868   2.196   7.644 -0.2203  0.2835 -0.0823
  192SLPC   H9R22246   4.787   2.250   7.695 -0.6273 -1.4438  1.2119
  192SLPC  C21022247   4.896   2.066   7.689 -0.2350  0.6564  0.6810
  192SLPC  H10R22248   4.838   2.027   7.774 -0.8887 -0.2530 -0.1528
  192SLPC  C21122249   4.999   1.979   7.630  0.2230  0.0163  0.5654
  192SLPC  H11R22250   5.086   1.993   7.697  0.3030  1.0923  0.2591
  192SLPC  H11S22251   5.024   2.014   7.527 -0.9387  0.0266  0.2656
  192SLPC  C21222252   4.973   1.836   7.622  0.0716 -0.4840  1.0436
  192SLPC  H12R22253   4.872   1.800   7.645 -0.4789  0.0274 -0.4792
  192SLPC  C21322254   5.065   1.747   7.591 -0.1971 -0.2772  0.0632
  192SLPC  H13R22255   5.047   1.640   7.574  0.4015 -0.5887  1.2724
  192SLPC  C21422256   5.207   1.775   7.554  0.0528  0.3072  0.6690
  192SLPC  H14R22257   5.288   1.754   7.627  0.4835  0.8207  0.3573
  192SLPC  H14S22258   5.235   1.878   7.523  3.8834 -0.7099  0.2603
  192SLPC  C21522259   5.241   1.679   7.435  0.2418  0.2437 -0.3586
  192SLPC  H15R22260   5.160   1.687   7.360 -0.0962 -0.9544 -0.1336
  192SLPC  H15S22261   5.226   1.573   7.463  0.3141  0.1302 -0.7403
  192SLPC  C21622262   5.375   1.712   7.362  0.2219  0.3809  0.4367
  192SLPC  H16R22263   5.384   1.822   7.366 -1.6933  0.5531  0.5721
  192SLPC  H16S22264   5.390   1.679   7.257  0.2438 -1.7514  1.0563
  192SLPC  C21722265   5.501   1.646   7.428 -0.1159  0.1671  0.7063
  192SLPC  H17R22266   5.503   1.680   7.533 -1.1281  4.1596 -0.3902
  192SLPC  H17S22267   5.487   1.536   7.417 -1.4952  0.3747  0.2473
  192SLPC  C21822268   5.631   1.694   7.367 -0.3192  0.6551  0.4201
  192SLPC  H18R22269   5.720   1.649   7.417 -0.4120 -0.9222 -0.7504
  192SLPC  H18S22270   5.645   1.804   7.379 -1.3008  0.6970  1.3508
  192SLPC  H18T22271   5.644   1.669   7.259  0.2811  1.0280  0.4005
  192SLPC   C3322272   4.093   1.608   6.875  0.1190 -0.5587 -0.4306
  192SLPC   H3X22273   4.066   1.508   6.836 -0.6110 -0.1425 -1.0174
  192SLPC   H3Y22274   4.000   1.665   6.896  0.3365  0.1241 -1.2605
  192SLPC   C3422275   4.179   1.605   7.001 -0.3346 -0.5976  0.4576
  192SLPC   H4X22276   4.238   1.695   7.029 -2.1698  0.3927  1.2577
  192SLPC   H4Y22277   4.257   1.527   7.015  0.9703  0.6768  0.5173
  192SLPC   C3522278   4.088   1.603   7.132 -0.1658  0.7305  0.1601
  192SLPC   H5X22279   4.013   1.522   7.119  0.4762  0.1263  0.1240
  192SLPC   H5Y22280   4.046   1.703   7.155  0.1749  1.0715 -0.6775
  192SLPC   C3622281   4.177   1.573   7.255 -0.4639  0.7095  0.7103
  192SLPC   H6X22282   4.243   1.662   7.259 -0.2191  0.5936 -0.5457
  192SLPC   H6Y22283   4.236   1.482   7.233  1.5945  2.2695 -0.5354
  192SLPC   C3722284   4.099   1.562   7.388 -1.0949  0.6291 -0.0729
  192SLPC   H7X22285   4.063   1.458   7.385 -1.0921  0.6403 -0.5612
  192SLPC   H7Y22286   4.020   1.640   7.387 -2.2949 -0.5536 -2.0698
  192SLPC   C3822287   4.183   1.591   7.516  0.5017  0.6522  0.4724
  192SLPC   H8X22288   4.192   1.701   7.506  1.4737  0.4215 -1.8273
  192SLPC   H8Y22289   4.286   1.549   7.517  0.1490 -0.2636 -0.1105
  192SLPC   C3922290   4.117   1.553   7.648 -0.3985 -0.2757  0.1787
  192SLPC   H9X22291   4.121   1.444   7.667  0.7943  0.1818  3.1171
  192SLPC   H9Y22292   4.010   1.582   7.646  0.2880  2.6082 -1.9852
  192SLPC  C31022293   4.186   1.614   7.766 -0.5557 -0.5747 -0.1735
  192SLPC  H10X22294   4.177   1.724   7.773  1.1447 -0.5090  1.8602
  192SLPC  H10Y22295   4.295   1.607   7.744 -0.6891  2.2272 -2.2022
  192SLPC  C31122296   4.171   1.555   7.913  0.1096  0.1299  0.4368
  192SLPC  H11X22297   4.202   1.450   7.893 -0.6734  0.3315 -2.2940
  192SLPC  H11Y22298   4.063   1.564   7.937  0.0536 -0.5776  0.4690
  192SLPC  C31222299   4.257   1.622   8.017  0.1073  0.2891  0.0502
  192SLPC  H12X22300   4.248   1.733   8.015  2.6470  0.5420 -1.1080
  192SLPC  H12Y22301   4.361   1.622   7.979 -0.0088 -0.1974 -0.2716
  192SLPC  C31322302   4.245   1.572   8.163  0.1367  0.6030 -0.2328
  192SLPC  H13X22303   4.142   1.544   8.194 -0.0984  1.6275 -0.0649
  192SLPC  H13Y22304   4.288   1.649   8.230 -0.5827  0.0085  0.9354
  192SLPC  C31422305   4.342   1.457   8.190  0.4423 -0.0198 -0.2280
  192SLPC  H14X22306   4.436   1.484   8.136 -0.7047  2.0898 -1.3194
  192SLPC  H14Y22307   4.292   1.375   8.134 -1.9860  0.3804  1.2153
  192SLPC  C31522308   4.343   1.419   8.337 -0.4058 -0.3955  0.8742
  192SLPC  H15X22309   4.238   1.409   8.370 -1.8250  1.8331 -2.4471
  192SLPC  H15Y22310   4.388   1.499   8.399 -2.5959 -0.9253  3.3282
  192SLPC  C31622311   4.433   1.297   8.367  0.2381  0.5352  0.4464
  192SLPC  H16X22312   4.389   1.216   8.304  0.9055  1.0799 -0.7497
  192SLPC  H16Y22313   4.432   1.274   8.476  2.7196 -1.7806  0.0737
  192SLPC  C31722314   4.577   1.303   8.325 -0.2578  0.0896 -0.5016
  192SLPC  H17X22315   4.621   1.397   8.364 -0.0981 -1.0963  2.4359
  192SLPC  H17Y22316   4.581   1.319   8.215  0.1077  1.1266 -0.3471
  192SLPC  C31822317   4.665   1.186   8.380 -0.1912 -0.2529 -0.0765
  192SLPC  H18X22318   4.767   1.182   8.336  0.3341 -1.0648  1.1747
  192SLPC  H18Y22319   4.619   1.087   8.362 -0.3149 -0.3982  1.0061
  192SLPC  H18Z22320   4.673   1.188   8.491  2.0250  1.4077 -0.1876
  193SOD    SOD22321   5.116   0.931   0.271  0.5684 -0.1550  0.2591
  194SOD    SOD22322   5.112   4.843  12.622  0.6407 -0.6734 -0.2377
  195SOD    SOD22323   5.408   2.910  14.095 -0.2014  0.1032  0.2213
  196SOD    SOD22324   2.133   3.297   3.785 -0.1950 -0.0523  0.2826
  197SOD    SOD22325   1.102   0.298  15.825 -0.4907  0.3037 -0.3426
  198SOD    SOD22326   5.320   0.065   6.138 -0.4980 -0.4313 -0.0064
  199SOD    SOD22327   4.895   3.319   6.080  0.0257  0.5770  0.7909
  200SOD    SOD22328   1.280   5.526   2.340  0.1940  0.0378  0.1821
  201SOD    SOD22329   5.691   4.280   4.139 -0.0867  0.5303  0.3790
  202SOD    SOD22330   3.478   3.710   2.568 -0.1073 -0.1410  0.2833
  203SOD    SOD22331   0.794   5.463   0.125  0.0387  0.3717 -0.2327
  204SOD    SOD22332   2.171   1.640  13.046 -0.0018  0.0484  0.0089
  205SOD    SOD22333   5.516   4.642   1.190  0.2856 -0.1876  0.2745
  206SOD    SOD22334   0.642   1.934  17.278  0.1383  0.0754 -0.0724
  207SOD    SOD22335   4.876   1.622   2.812 -0.0605  0.3642 -0.4713
  208SOD    SOD22336   3.591   2.696  14.189 -0.1069 -0.1425 -0.1827
  209SOD    SOD22337   4.831   4.274   2.259 -0.2297 -0.1554 -0.3519
  210SOD    SOD22338   2.168   0.229  16.560 -0.3027 -0.6354 -0.5814
  211SOD    SOD22339   1.971   1.737   4.978  0.1893 -0.1612 -0.3836
  212SOD    SOD22340   1.556   1.039  13.198  0.1775  0.0007  0.2551
  213SOD    SOD22341   3.201   1.776  11.837  0.1999 -0.0787  0.1179
  214SOD    SOD22342   6.727   1.026   3.459 -0.1260 -0.0470 -0.0775
  215SOD    SOD22343   5.289   6.082   5.168 -0.0678 -0.3932  0.1597
  216SOD    SOD22344   3.142   5.101   5.626  0.0977  0.2268  0.0082
  217SOD    SOD22345   0.226   4.286   1.708 -0.5135 -0.3892  0.0840
  218SOD    SOD22346   3.306   4.869  11.599  0.1969  0.0830 -0.1837
  219SOD    SOD22347   0.216   1.723   5.228 -0.7754  0.6752 -0.1437
  220SOD    SOD22348   1.054   4.787  11.182 -0.3493  0.0305  0.2117
  221SOD    SOD22349   3.014   5.096  13.393 -0.2009 -0.7092  0.0614
  222SOD    SOD22350   1.486   0.356  11.368 -0.8877  0.1303  0.0710
  223SOD    SOD22351   3.360   0.146  12.547  0.0730  0.6517  0.5452
  224SOD    SOD22352   3.201   2.284   5.199  0.0846  0.2073 -0.5005
  225SOD    SOD22353   6.044   4.837  13.737 -0.0202 -0.4120 -0.1247
  226SOD    SOD22354   4.484   3.478  15.391  0.4135 -0.2436  0.1506
  227SOD    SOD22355   4.530   0.014  12.679 -0.1634 -0.5137  0.2631
  228SOD    SOD22356   1.004   3.367   6.080  0.1572  0.0429  0.2047
  229SOD    SOD22357   0.511   6.108  14.543  0.2188 -0.2097 -0.3039
  230SOD    SOD22358   3.898   5.427  11.221 -0.3955  0.0476  0.2628
  231SOD    SOD22359   4.476   2.824  11.157  0.6411 -0.2474  0.0792
  232SOD    SOD22360   5.676   0.874   6.114 -0.7351  0.3230  0.1223
  233SOD    SOD22361   3.735   1.697   3.809  0.3181  0.4139  0.3619
  234SOD    SOD22362   6.806   3.925   5.742  0.2228  0.0919 -0.3561
  235SOD    SOD22363   3.485   2.508   3.598 -0.2213  0.4391 -0.2139
  236SOD    SOD22364   2.152   5.164   1.332 -0.5075 -0.1719 -0.1610
  237SOD    SOD22365   5.832   4.133  16.570  0.4013  0.1301  0.2904
  238SOD    SOD22366   1.706   3.093   6.350  0.0867  0.1640  0.4687
  239SOD    SOD22367   3.658   6.035  14.406 -0.4286 -0.1119  0.2782
  240SOD    SOD22368   0.025   3.337  14.811  0.3278 -0.4107 -0.1091
  241SOD    SOD22369   4.165   5.307   3.627 -0.7359 -0.1238  0.3796
  242SOD    SOD22370   4.840   5.213   5.739 -0.5480 -0.1385 -0.6621
  243SOD    SOD22371   0.432   0.936  11.134 -0.3714  0.2369 -0.0244
  244SOD    SOD22372   1.946   5.661   5.964  0.0958  0.6080  0.4505
  245SOD    SOD22373   3.410   4.717  12.488 -0.0058  0.3218 -0.1052
  246SOD    SOD22374   4.189   0.057   6.369 -0.1013 -0.6241 -0.0607
  247SOD    SOD22375   2.894   3.833   5.327 -0.6618  0.0729  0.0537
  248SOD    SOD22376   2.404   0.188   2.247 -0.0804  0.2352 -0.0639
  249SOD    SOD22377   4.578   2.672   1.820 -0.2852  0.0832  0.6139
  250SOD    SOD22378   3.307   5.364   2.006  0.2330 -0.0126  0.0353
  251SOD    SOD22379   6.805   1.507  16.761  0.9587 -0.4520 -0.1885
  252SOD    SOD22380   1.948   4.662  13.739 -0.2151 -0.1352  0.8298
  253SOD    SOD22381   4.296   5.135  16.270  0.1243 -0.3363 -0.1397
  254SOD    SOD22382   4.378   4.571   0.153 -0.6192 -0.2766  0.0496
  255SOD    SOD22383   1.932   2.675   2.754  0.4900  0.2596  0.0052
  256SOD    SOD22384   4.663   6.546  11.662 -0.4285  0.3287 -0.0567
  257SOD    SOD22385   6.136   3.762  11.185  0.2699  0.0584  0.8622
  258SOD    SOD22386   1.963   5.882  14.940 -0.4061 -0.3790  0.3857
  259SOD    SOD22387   4.638   0.521  12.222  0.5002 -0.1487 -0.2611
  260SOD    SOD22388   6.472   0.332   4.855  0.3028 -0.1243  0.1062
  261SOD    SOD22389   4.414   3.721  10.961  0.0828 -0.1632 -0.3261
  262SOD    SOD22390   0.698   3.009  12.431  0.2218  0.0888  0.5296
  263SOD    SOD22391   0.385   1.671  12.635 -0.2091  0.1071  0.3141
  264SOD    SOD22392   2.391   1.040  11.679  0.2667 -0.4927 -0.1639
  265SOD    SOD22393   6.592   5.482  10.991 -0.0471 -0.3477  0.7281
  266CLA    CLA22394   0.223   0.208   3.587  0.4210  0.1273 -0.0431
  267CLA    CLA22395   3.697   2.643   1.642 -0.4597 -0.1950 -0.6627
  268CLA    CLA22396   3.518   5.365  13.458  0.1853 -0.1704 -0.0654
  269CLA    CLA22397   4.446   4.652  16.693  0.0594 -0.0157 -0.2341
  270CLA    CLA22398   4.138   2.833   5.290  0.0034 -0.2498 -0.0355
  271CLA    CLA22399   0.391   3.961   2.292 -0.1409 -0.0837  0.0554
  272CLA    CLA22400   2.368   3.188   4.417  0.0380  0.0462  0.3269
  273CLA    CLA22401   1.267   1.138  17.027  0.2427  0.1073  0.1002
  274CLA    CLA22402   1.618   0.985  14.441  0.0089 -0.0286 -0.1008
  275CLA    CLA22403   3.569   5.182  11.949 -0.3089 -0.2481  0.4306
  276CLA    CLA22404   6.676   4.974  13.278 -0.1676  0.2013 -0.2484
  277CLA    CLA22405   4.238   2.087  12.826 -0.1831  0.0197  0.1199
  278CLA    CLA22406   4.614   1.635   1.293 -0.3142 -0.2716 -0.0798
  279CLA    CLA22407   3.837   1.761   2.616 -0.2170 -0.4013  0.0279
  280CLA    CLA22408   3.524   5.029   2.563 -0.2484 -0.0920  0.2504
  281CLA    CLA22409   1.769   6.434  12.759 -0.0383  0.2187 -0.3373
  282CLA    CLA22410   1.900   1.305  13.149  0.0175  0.3715  0.2221
  283CLA    CLA22411   0.602   2.162   5.721  0.1292  0.7151 -0.2956
  284CLA    CLA22412   2.498   3.734  14.578 -0.1476  0.1235  0.0026
  285CLA    CLA22413   0.103   5.132   1.514  0.1445 -0.0196  0.2311
  286CLA    CLA22414   6.170   3.838   4.612  0.1118  0.3880  0.0664
  287CLA    CLA22415   4.947   4.204  16.905 -0.2394 -0.1735  0.1215
  288CLA    CLA22416   0.458   4.685   3.338 -0.0021 -0.4060 -0.2645
  289CLA    CLA22417   2.825   3.136  12.924  0.1173 -0.1729  0.0575
  290CLA    CLA22418   2.871   2.505  13.661 -0.4756  0.1315  0.0690
  291CLA    CLA22419   3.622   3.308   1.231  0.0714 -0.3232 -0.1638
  292CLA    CLA22420   5.935   1.315   1.086 -0.1550  0.3675 -0.4815
  293CLA    CLA22421   2.422   3.857   3.516 -0.0572 -0.1720 -0.3134
  294CLA    CLA22422   3.469   4.657  11.645  0.0853 -0.1345  0.3975
  295CLA    CLA22423   6.545   4.409  13.908 -0.3262 -0.1978  0.1073
  296CLA    CLA22424   2.828   3.535   2.552  0.0450 -0.0852  0.0169
  297CLA    CLA22425   2.629   2.442  14.420 -0.3127  0.1465 -0.0063
  298CLA    CLA22426   5.386   5.659  14.742  0.2411  0.0426  0.0788
  299CLA    CLA22427   0.325   2.793  14.057  0.5354  0.0341 -0.2620
  300CLA    CLA22428   6.363   3.265   5.925 -0.1604  0.2923 -0.1589
  301CLA    CLA22429   5.647   5.840   5.448 -0.2306 -0.1584  0.0913
  302CLA    CLA22430   3.661   0.249  11.358  0.1428 -0.2950 -0.2005
  303CLA    CLA22431   5.662   6.055  17.281 -0.0897 -0.0140 -0.0624
  304CLA    CLA22432   2.897   0.764  15.778 -0.1044  0.1653 -0.4530
  305CLA    CLA22433   6.593   0.041  12.613  0.1815  0.1047  0.0926
  306CLA    CLA22434   5.885   0.361   5.625  0.3331  0.2666 -0.3592
  307CLA    CLA22435   0.700   2.813   5.308 -0.4137  0.0534 -0.0020
  308CLA    CLA22436   6.726   6.177  14.012  0.4452  0.2900 -0.4994
  309CLA    CLA22437   0.375   4.066   0.293  0.1139 -0.0677  0.0006
  310CLA    CLA22438   2.336   6.609  15.899  0.3324 -0.1692  0.1358
  311CLA    CLA22439   6.197   2.281   1.855  0.1390 -0.2728 -0.0780
  312CLA    CLA22440   0.945   2.002  12.215 -0.0083 -0.3799  0.0897
  313CLA    CLA22441   4.912   4.784   0.591  0.3242 -0.3823 -0.0179
  314CLA    CLA22442   4.138   3.881   1.253  0.1591  0.3263  0.4010
  315CLA    CLA22443   2.193   5.169   0.559  0.1879  0.4196  0.0917
  316CLA    CLA22444   5.000   2.773   0.972 -0.0362  0.0952  0.2822
  317CLA    CLA22445   0.119   1.650  14.943  0.0196 -0.3181 -0.0914
  318CLA    CLA22446   5.901   2.650   1.071  0.1317  0.1962 -0.1573
  319TIP3   OH222447   1.967   0.309  13.116 -0.0734 -0.3572 -0.2322
  319TIP3    H122448   1.898   0.357  13.071  0.5473 -1.4056 -2.5164
  319TIP3    H222449   1.940   0.217  13.110  0.7822 -0.6473  0.1613
  320TIP3   OH222450   4.629   5.045  12.831 -0.5917 -0.1166  0.2042
  320TIP3    H122451   4.608   5.038  12.738 -2.4134  0.2326  0.5620
  320TIP3    H222452   4.616   5.137  12.853 -0.8875 -0.3254  0.9583
  321TIP3   OH222453   0.167   2.316  15.356 -0.1527 -0.1844 -0.1257
  321TIP3    H122454   0.235   2.313  15.289 -0.4223  0.9430 -0.4843
  321TIP3    H222455   0.135   2.226  15.362  1.3534 -0.7302  0.0514
  322TIP3   OH222456   4.160   1.585  16.234  0.2372 -0.5826  0.3999
  322TIP3    H122457   4.077   1.563  16.276 -0.5946  0.7734 -0.4691
  322TIP3    H222458   4.191   1.662  16.282 -1.7488  2.3222 -2.5324
  323TIP3   OH222459   0.190   2.271   2.834  0.0571  0.2246  0.2581
  323TIP3    H122460   0.102   2.247   2.806  0.1309 -0.8611  0.8947
  323TIP3    H222461   0.245   2.196   2.810  0.8304  0.9067 -0.1831
  324TIP3   OH222462   4.654   3.425   4.927 -0.3296 -0.2456 -0.7397
  324TIP3    H122463   4.599   3.357   4.965  0.8581 -0.6743  0.2889
  324TIP3    H222464   4.600   3.504   4.926 -1.8182 -1.2316 -2.1822
  325TIP3   OH222465   0.473   6.000  12.902  0.7009 -0.1498  0.0530
  325TIP3    H122466   0.419   5.940  12.954 -0.2291  0.2655 -0.4099
  325TIP3    H222467   0.520   6.052  12.968 -1.2558  1.0933  0.5850
  326TIP3   OH222468   6.152   0.956   2.917  0.1766  0.4141 -0.0739
  326TIP3    H122469   6.215   0.966   2.846 -0.2391 -0.0623 -0.5167
  326TIP3    H222470   6.130   0.863   2.916 -0.3335  0.5286  0.2553
  327TIP3   OH222471   4.716   4.902  11.608  0.0088  0.4801 -0.1124
  327TIP3    H122472   4.791   4.845  11.620  1.2546  2.0851  0.0328
  327TIP3    H222473   4.753   4.989  11.594 -1.8185  1.5371  1.0697
  328TIP3   OH222474   5.107   6.052   4.987 -0.1769 -0.1604 -0.1021
  328TIP3    H122475   5.031   5.995   4.996 -1.3632  1.3054 -0.5410
  328TIP3    H222476   5.109   6.077   4.895 -0.3817  1.4186  0.2941
  329TIP3   OH222477   6.227   4.458   1.440  0.2254 -0.5509 -0.5754
  329TIP3    H122478   6.245   4.535   1.386 -2.1778  1.2656  0.9452
  329TIP3    H222479   6.158   4.411   1.393 -0.9026  0.2986  0.1510
  330TIP3   OH222480   3.213   2.854   5.618  0.1237 -0.6397  0.3290
  330TIP3    H122481   3.164   2.787   5.572 -0.5574  0.8706 -1.2749
  330TIP3    H222482   3.146   2.915   5.650  0.8143  0.9324 -1.0361
  331TIP3   OH222483   3.674   5.239   0.599  0.5375  0.3367 -0.2849
  331TIP3    H122484   3.706   5.260   0.687 -1.2470  1.1310  0.2036
  331TIP3    H222485   3.692   5.146   0.589 -0.5003 -0.0904  1.4901
  332TIP3   OH222486   0.660   5.259   0.557 -0.3012  0.3851  0.2979
  332TIP3    H122487   0.598   5.224   0.493  0.8937  0.7547 -1.1254
  332TIP3    H222488   0.632   5.349   0.571  0.7907  1.0892 -1.6105
  333TIP3   OH222489   3.855   3.446   3.508 -0.0216  0.5731 -0.1858
  333TIP3    H122490   3.819   3.358   3.517  0.4329  0.2984 -0.9074
  333TIP3    H222491   3.801   3.488   3.440  0.0976  0.6600 -0.2284
  334TIP3   OH222492   1.006   2.462  11.920  0.2539 -0.5179  0.0966
  334TIP3    H122493   0.986   2.537  11.976  1.2292 -2.0932  2.7483
  334TIP3    H222494   0.921   2.437  11.882 -1.7996 -2.5256  5.1363
  335TIP3   OH222495   2.584   4.545  16.585  0.1911 -0.1734 -0.5290
  335TIP3    H122496   2.504   4.594  16.572  0.2283  0.3854  1.0346
  335TIP3    H222497   2.563   4.456  16.558 -0.9797 -0.0427 -0.1155
  336TIP3   OH222498   6.328   1.798  11.222  0.2179  0.1518 -0.0643
  336TIP3    H122499   6.367   1.839  11.145  1.2984  0.5449  0.6690
  336TIP3    H222500   6.355   1.707  11.217 -1.8276 -0.4390 -1.4674
  337TIP3   OH222501   5.196   2.497   3.991  0.7819 -0.1573  0.2017
  337TIP3    H122502   5.149   2.507   4.074 -1.7920  0.6912 -1.2736
  337TIP3    H222503   5.168   2.412   3.957  2.0174 -0.6131  0.2516
  338TIP3   OH222504   2.605   6.000  17.053 -0.0925  0.4057 -0.0034
  338TIP3    H122505   2.529   5.993  16.996 -1.5957  1.8965  1.6936
  338TIP3    H222506   2.669   6.049  17.002  0.2897 -1.9122 -1.9204
  339TIP3   OH222507   3.052   2.671   5.488 -0.0805 -0.2802  0.0527
  339TIP3    H122508   3.025   2.589   5.529  0.1652  0.5867  2.0309
  339TIP3    H222509   2.976   2.699   5.438 -0.4164 -1.3204 -0.0476
  340TIP3   OH222510   2.540   1.762  15.058 -0.1358  0.0682 -0.0401
  340TIP3    H122511   2.595   1.822  15.110  1.2502 -0.6292 -0.6481
  340TIP3    H222512   2.484   1.819  15.006  1.1419  0.8532 -0.5877
  341TIP3   OH222513   4.196   3.465  15.080 -0.2993 -0.2908  0.5077
  341TIP3    H122514   4.238   3.397  15.133  1.2889 -0.8839 -1.4183
  341TIP3    H222515   4.213   3.439  14.990 -1.2738  1.7036 -0.3031
  342TIP3   OH222516   0.064   5.773   4.836  0.0681 -0.3959  0.1748
  342TIP3    H122517   0.009   5.695   4.848  1.0336 -1.0607  0.3657
  342TIP3    H222518   0.133   5.744   4.777  0.6319  0.2266  0.5241
  343TIP3   OH222519   0.638   5.623   4.911 -0.0255  0.1796 -0.2943
  343TIP3    H122520   0.710   5.584   4.961 -1.0581 -1.2181  0.1506
  343TIP3    H222521   0.559   5.596   4.958 -1.0153 -0.8914 -2.4562
  344TIP3   OH222522   3.213   1.974   3.202  0.0080  0.0606  0.2881
  344TIP3    H122523   3.208   1.921   3.122  0.7591 -0.7318  0.7436
  344TIP3    H222524   3.228   1.910   3.271  1.6892  0.9168  0.7758
  345TIP3   OH222525   0.402   4.690   3.884 -0.1557  0.1562  1.0699
  345TIP3    H122526   0.451   4.755   3.833 -0.3615 -0.4118  0.1315
  345TIP3    H222527   0.460   4.668   3.956  0.9036 -0.3407  0.1013
  346TIP3   OH222528   2.872   0.687   3.412 -0.1833 -0.1858 -0.5898
  346TIP3    H122529   2.786   0.646   3.426 -1.1405  1.9817  0.4448
  346TIP3    H222530   2.857   0.751   3.343  0.1248  1.4132  0.7755
  347TIP3   OH222531   5.198   1.084   4.388  0.4095 -0.6072 -0.3618
  347TIP3    H122532   5.188   1.171   4.351  2.0160 -1.0628 -2.0443
  347TIP3    H222533   5.286   1.084   4.426  0.5375 -1.5555 -0.6266
  348TIP3   OH222534   5.257   5.222   1.411 -0.2749  0.0930  0.0081
  348TIP3    H122535   5.227   5.244   1.499 -0.1264  0.1970  0.0318
  348TIP3    H222536   5.335   5.275   1.398 -0.0869 -0.1954 -0.0483
  349TIP3   OH222537   6.512   0.941  15.160 -0.6275 -0.8606  0.6238
  349TIP3    H122538   6.557   1.018  15.125 -1.4408  0.8063  2.9863
  349TIP3    H222539   6.463   0.905  15.086  1.2414 -0.2510 -0.9738
  350TIP3   OH222540   6.644   5.085  16.804  0.4057  0.4460  0.6193
  350TIP3    H122541   6.699   5.162  16.793  1.4791 -0.2084  1.2279
  350TIP3    H222542   6.696   5.026  16.859 -0.7999 -0.3042  0.9905
  351TIP3   OH222543   3.691   1.761   4.422  0.0874 -0.3619  0.6453
  351TIP3    H122544   3.700   1.750   4.517  1.5352  1.4399  0.7640
  351TIP3    H222545   3.653   1.848   4.411  2.0406  0.4105 -0.4437
  352TIP3   OH222546   1.452   5.855   2.187 -0.0175 -0.3491  0.1533
  352TIP3    H122547   1.476   5.866   2.279 -0.0838  0.4679  0.0785
  352TIP3    H222548   1.380   5.917   2.173  0.5206  0.1127 -0.6498
  353TIP3   OH222549   5.293   5.907  15.480 -0.4368 -0.1566 -0.0289
  353TIP3    H122550   5.298   5.873  15.391  1.7743 -0.6871  0.2515
  353TIP3    H222551   5.345   5.847  15.532 -1.1416  0.5228  1.5269
  354TIP3   OH222552   3.541   0.093  14.616  0.0525 -0.3706 -0.3163
  354TIP3    H122553   3.597   0.027  14.658  1.7248  1.4016  0.3702
  354TIP3    H222554   3.549   0.075  14.522  1.6856 -0.2477 -0.2251
  355TIP3   OH222555   1.175   2.086   3.120 -0.3786  0.0743  0.7923
  355TIP3    H122556   1.225   2.069   3.040 -0.9568  0.9491  0.2183
  355TIP3    H222557   1.117   2.010   3.130 -0.2972 -0.0411  0.3788
  356TIP3   OH222558   5.937   2.216  16.173 -0.0158 -0.4515  0.4149
  356TIP3    H122559   5.972   2.138  16.217  0.3166 -0.6807 -0.2569
  356TIP3    H222560   5.880   2.256  16.239 -0.7427 -1.6391  0.5272
  357TIP3   OH222561   5.291   4.414   5.739 -0.1250  0.0793  0.0077
  357TIP3    H122562   5.290   4.446   5.830 -1.2469 -0.1663  0.1063
  357TIP3    H222563   5.296   4.319   5.747 -1.0877 -0.0014 -0.1375
  358TIP3   OH222564   2.251   2.718  12.179 -0.6113 -1.3642 -0.3485
  358TIP3    H122565   2.220   2.631  12.155  0.8310 -1.6745 -1.2103
  358TIP3    H222566   2.341   2.722  12.145 -0.2431  0.0353  0.6844
  359TIP3   OH222567   5.567   5.507  11.011 -0.6534  0.0551 -0.6174
  359TIP3    H122568   5.603   5.594  10.991  0.5175 -0.2200  0.1741
  359TIP3    H222569   5.563   5.463  10.926  1.4291 -0.0795 -0.7100
  360TIP3   OH222570   5.004   6.327   2.561 -0.2794  0.5583 -0.5725
  360TIP3    H122571   5.014   6.422   2.554 -1.8535  0.7585 -0.4834
  360TIP3    H222572   4.915   6.310   2.529  0.1874 -0.9590 -1.1495
  361TIP3   OH222573   0.259   5.905  14.204  0.3903 -0.5090  0.2357
  361TIP3    H122574   0.265   5.961  14.127  0.2236  0.4698  0.9239
  361TIP3    H222575   0.195   5.838  14.180 -0.1299  0.1559 -0.2513
  362TIP3   OH222576   0.308   1.251  11.553 -0.0162 -0.0825 -0.2657
  362TIP3    H122577   0.349   1.172  11.519  1.9586  0.7787 -0.0233
  362TIP3    H222578   0.350   1.322  11.504 -1.2659  0.8630 -0.0112
  363TIP3   OH222579   5.339   4.275  11.731  0.1432  0.0266  0.2827
  363TIP3    H122580   5.302   4.196  11.690  1.8545 -1.1412  0.8903
  363TIP3    H222581   5.329   4.259  11.825 -2.5256  2.0829  0.4814
  364TIP3   OH222582   0.511   4.389  16.873  0.0157  0.1698  0.1747
  364TIP3    H122583   0.538   4.352  16.789 -2.5322 -0.6907 -0.3218
  364TIP3    H222584   0.474   4.316  16.922 -1.3420  1.2383  0.8174
  365TIP3   OH222585   5.883   1.571   1.316 -0.5988 -0.4880  0.0396
  365TIP3    H122586   5.865   1.487   1.272 -1.0576  0.3180 -1.3676
  365TIP3    H222587   5.937   1.620   1.254  0.2842  0.0064  1.1512
  366TIP3   OH222588   2.458   5.229  13.744  0.1191  0.7890  0.0535
  366TIP3    H122589   2.390   5.295  13.731  0.9783  1.6257 -0.2746
  366TIP3    H222590   2.519   5.270  13.805 -1.4398 -1.2835  3.3291
  367TIP3   OH222591   1.208   2.469  14.513  0.1785 -0.5592 -0.4380
  367TIP3    H122592   1.171   2.455  14.426 -0.4123  1.8856 -0.6475
  367TIP3    H222593   1.146   2.528  14.556  2.0297  0.8112  0.4817
  368TIP3   OH222594   3.935   1.302   2.420  0.3521  0.1861  0.4218
  368TIP3    H122595   3.890   1.345   2.347  1.3633  1.3233  0.4312
  368TIP3    H222596   4.001   1.247   2.378  0.1200 -0.1153  0.4512
  369TIP3   OH222597   3.657   0.796   4.877  0.0050  0.2963  0.2915
  369TIP3    H122598   3.660   0.890   4.861 -0.4017  0.6335  2.0133
  369TIP3    H222599   3.596   0.763   4.811 -0.9564  1.4553  0.5635
  370TIP3   OH222600   4.662   3.987   2.549 -0.0095 -0.1077 -0.4941
  370TIP3    H122601   4.682   3.968   2.641 -1.7821  0.0454 -0.0489
  370TIP3    H222602   4.582   3.938   2.531  0.1811  0.0552 -1.9103
  371TIP3   OH222603   5.236   3.376   3.235 -0.1127 -0.1011 -0.1655
  371TIP3    H122604   5.324   3.348   3.209  0.8910 -0.9873  3.5354
  371TIP3    H222605   5.240   3.471   3.238  0.1826 -0.0584 -1.5427
  372TIP3   OH222606   5.231   5.776   4.304  0.2913 -0.0513  0.2808
  372TIP3    H122607   5.136   5.768   4.295  0.4715 -0.5594 -1.5540
  372TIP3    H222608   5.251   5.737   4.389 -0.9017 -2.0470 -0.2995
  373TIP3   OH222609   0.551   2.371  15.277 -0.3344 -0.3120  0.1909
  373TIP3    H122610   0.609   2.352  15.350 -0.0126 -1.0967 -0.2581
  373TIP3    H222611   0.515   2.458  15.297  0.1799 -0.2719  0.9899
  374TIP3   OH222612   1.320   4.599  16.468 -0.2283 -0.8990 -0.0995
  374TIP3    H122613   1.394   4.557  16.513 -0.4053 -0.6686  0.4144
  374TIP3    H222614   1.333   4.692  16.484 -0.9439 -0.8866  0.5019
  375TIP3   OH222615   5.383   6.566  14.414 -0.2545 -0.7219  0.5555
  375TIP3    H122616   5.406   6.514  14.491  1.4205  0.4727  0.8943
  375TIP3    H222617   5.438   6.643  14.419 -1.5153  0.3291 -0.8238
  376TIP3   OH222618   0.532   5.201  16.770  0.1906  0.2769  0.0923
  376TIP3    H122619   0.561   5.111  16.787  0.0384  0.2258  0.0847
  376TIP3    H222620   0.476   5.222  16.845 -0.2356  0.1599 -0.1870
  377TIP3   OH222621   3.625   4.282   0.794  0.5013  0.4041 -0.6077
  377TIP3    H122622   3.589   4.204   0.836  0.0696  0.2080 -1.3152
  377TIP3    H222623   3.603   4.354   0.854  0.0032  0.1160 -0.4328
  378TIP3   OH222624   4.300   3.139   0.842  0.0017 -0.1312  0.0908
  378TIP3    H122625   4.360   3.083   0.891  0.1622 -0.9579 -1.0017
  378TIP3    H222626   4.351   3.218   0.823  1.9898 -1.9615 -3.4045
  379TIP3   OH222627   2.885   3.675   6.635 -0.0753  0.3550 -0.0965
  379TIP3    H122628   2.792   3.651   6.642  0.0671  0.0521  0.8580
  379TIP3    H222629   2.921   3.613   6.572 -0.2613 -0.3211  0.4483
  380TIP3   OH222630   3.343   5.406  12.787 -0.1235  0.2525 -0.4401
  380TIP3    H122631   3.354   5.365  12.873 -1.1545  3.1388  1.2144
  380TIP3    H222632   3.250   5.426  12.783  0.0200  0.6689 -2.0241
  381TIP3   OH222633   3.049   3.393   0.353  0.3184 -0.3543  0.7806
  381TIP3    H122634   3.079   3.454   0.286 -1.4870 -0.9471 -0.6555
  381TIP3    H222635   3.089   3.309   0.330 -1.1675 -0.8219 -0.3169
  382TIP3   OH222636   6.823   0.560  12.528  0.1613 -0.0402  0.0690
  382TIP3    H122637   6.731   0.533  12.527  0.3680 -0.7784 -1.0262
  382TIP3    H222638   6.854   0.540  12.440  1.6019 -0.6097  0.6784
  383TIP3   OH222639   1.677   3.870  14.578 -0.0950 -0.6075  0.3161
  383TIP3    H122640   1.705   3.961  14.564 -0.0239 -0.7332 -0.3671
  383TIP3    H222641   1.744   3.817  14.535 -0.5086 -0.9646  0.1103
  384TIP3   OH222642   0.839   1.846  16.553  0.1495  0.2336 -0.3271
  384TIP3    H122643   0.824   1.894  16.472 -1.3476  0.8550  0.2829
  384TIP3    H222644   0.931   1.819  16.548  0.3205  0.9824 -1.8317
  385TIP3   OH222645   3.870   4.506  14.187 -0.2886  0.4722 -0.7571
  385TIP3    H122646   3.787   4.552  14.181 -0.5520  0.3008  0.9387
  385TIP3    H222647   3.936   4.576  14.197 -0.3378  0.5789 -1.1891
  386TIP3   OH222648   0.994   4.717  15.632  0.1619 -0.0355  0.2717
  386TIP3    H122649   0.939   4.789  15.601 -0.0884  0.5939  2.0560
  386TIP3    H222650   0.947   4.638  15.608 -0.7561  0.4611  0.3813
  387TIP3   OH222651   3.415   6.449  11.442 -0.0541 -0.0077 -0.1030
  387TIP3    H122652   3.487   6.388  11.456  0.2825  0.9264  2.7034
  387TIP3    H222653   3.451   6.516  11.384  0.6829 -0.5638 -0.3013
  388TIP3   OH222654   3.633   4.786   4.175 -0.3301  0.2056  0.6084
  388TIP3    H122655   3.548   4.829   4.181 -0.7039 -0.2012 -1.2622
  388TIP3    H222656   3.618   4.710   4.119  1.4222  0.5417 -0.3970
  389TIP3   OH222657   5.429   0.219  14.324 -0.2248 -0.4063  0.0493
  389TIP3    H122658   5.461   0.304  14.293  1.3285 -1.0444 -0.2151
  389TIP3    H222659   5.412   0.169  14.245 -0.4610 -0.5635  0.1989
  390TIP3   OH222660   3.721   0.197   4.504  0.3224 -0.1849 -0.0880
  390TIP3    H122661   3.638   0.244   4.511  0.4632  0.0260  0.1889
  390TIP3    H222662   3.708   0.117   4.555  0.0725 -0.4666 -0.5825
  391TIP3   OH222663   2.877   5.145   1.263  0.3766  0.4169  0.1919
  391TIP3    H122664   2.875   5.049   1.269  0.8472  0.1633 -2.5723
  391TIP3    H222665   2.947   5.164   1.200 -0.1413  2.5586  0.1910
  392TIP3   OH222666   2.139   1.051   4.786  0.0792  0.1200 -0.1842
  392TIP3    H122667   2.098   0.969   4.757 -0.6301  1.1063 -2.1667
  392TIP3    H222668   2.225   1.024   4.819 -0.9449 -1.6390  1.1982
  393TIP3   OH222669   0.510   5.869  16.746 -0.6230  0.4482 -0.0347
  393TIP3    H122670   0.539   5.902  16.661  0.9192 -0.3431  0.1537
  393TIP3    H222671   0.418   5.896  16.752 -0.3179  1.8768 -1.2536
  394TIP3   OH222672   3.185   5.480  13.055 -0.2896 -0.8431 -0.5631
  394TIP3    H122673   3.097   5.450  13.075 -0.8159  0.9143 -0.0293
  394TIP3    H222674   3.184   5.500  12.962 -0.7663  0.0888 -0.3661
  395TIP3   OH222675   6.042   6.785  15.008 -0.1323 -0.0988 -0.0701
  395TIP3    H122676   6.049   6.729  15.086  0.5460 -1.3214 -0.9817
  395TIP3    H222677   5.957   6.762  14.970 -0.3413  0.2957  0.1600
  396TIP3   OH222678   2.305   5.384   2.698  0.2166 -0.2551 -0.3793
  396TIP3    H122679   2.267   5.450   2.756  1.4355  0.2292 -0.1041
  396TIP3    H222680   2.290   5.418   2.610 -0.8716 -0.5717 -0.3349
  397TIP3   OH222681   5.805   5.583   3.363  0.5798  0.0739  0.5813
  397TIP3    H122682   5.856   5.525   3.306  0.3214 -0.9143  1.3300
  397TIP3    H222683   5.720   5.591   3.319  0.8671  0.5087  0.0938
  398TIP3   OH222684   6.674   3.690  14.016 -0.0273 -0.5216 -0.0421
  398TIP3    H122685   6.686   3.784  13.999  0.7240 -0.4712  0.6894
  398TIP3    H222686   6.586   3.670  13.983 -0.4607  0.5883  0.3954
  399TIP3   OH222687   5.898   3.819   0.905  0.2126  0.3702  1.2128
  399TIP3    H122688   5.921   3.773   0.986  0.4223 -0.7206  0.5442
  399TIP3    H222689   5.815   3.781   0.878  0.2747  0.5500  0.7645
  400TIP3   OH222690   5.544   5.551   1.633 -0.2414  0.3709 -0.4017
  400TIP3    H122691   5.626   5.521   1.593 -0.4309  0.5970 -0.9780
  400TIP3    H222692   5.502   5.603   1.565  0.0754  1.9542  0.5731
  401TIP3   OH222693   0.732   3.095  14.021  0.2814  0.1513 -0.4084
  401TIP3    H122694   0.684   3.013  14.031 -2.5201  1.5841 -0.7665
  401TIP3    H222695   0.739   3.130  14.110  1.7150 -0.5427 -0.2222
  402TIP3   OH222696   5.631   5.992  11.775  0.0710  0.2971 -0.6911
  402TIP3    H122697   5.625   6.058  11.844  0.8566  0.9311 -1.2111
  402TIP3    H222698   5.541   5.961  11.763 -0.4414  1.8356 -0.9763
  403TIP3   OH222699   2.578   2.185   2.397 -0.4016  1.2247 -0.0327
  403TIP3    H122700   2.503   2.181   2.457  0.4622 -0.9801  1.0080
  403TIP3    H222701   2.653   2.199   2.454  0.3999 -0.4992 -0.6041
  404TIP3   OH222702   5.960   3.578   0.058 -0.3363  0.1658  0.4526
  404TIP3    H122703   6.031   3.613   0.004 -1.1246  1.2954  0.1258
  404TIP3    H222704   5.999   3.502   0.102  1.1376  0.8894  0.4521
  405TIP3   OH222705   2.873   2.554   2.993 -0.1985  0.3639 -0.1468
  405TIP3    H122706   2.809   2.614   3.033 -0.3980  1.8802 -2.5044
  405TIP3    H222707   2.936   2.612   2.951  0.2481 -1.1008 -1.5855
  406TIP3   OH222708   2.585   6.432  15.905 -0.1624 -0.0728 -0.0885
  406TIP3    H122709   2.494   6.458  15.917 -0.2253  0.0070 -0.6795
  406TIP3    H222710   2.609   6.387  15.986 -0.5393  0.4401  0.3051
  407TIP3   OH222711   3.382   6.647   1.682  0.1042 -0.6932 -0.2624
  407TIP3    H122712   3.332   6.714   1.730  2.3239  0.1583  1.0326
  407TIP3    H222713   3.352   6.564   1.718 -1.8322 -0.3796 -1.0259
  408TIP3   OH222714   3.270   6.280   3.127  0.3668  0.0041  0.6073
  408TIP3    H122715   3.326   6.206   3.148  0.1990 -0.5270 -0.7686
  408TIP3    H222716   3.330   6.348   3.095  0.4113  0.1193  0.9263
  409TIP3   OH222717   3.762   0.941  12.895  0.6840 -0.0948  0.0542
  409TIP3    H122718   3.808   0.954  12.811  0.1672 -1.9804 -0.5694
  409TIP3    H222719   3.670   0.951  12.874  0.6106  0.6971  0.6942
  410TIP3   OH222720   4.618   1.078  16.145 -0.2943 -0.2591  0.2043
  410TIP3    H122721   4.697   1.131  16.152 -0.9170  0.6010  0.7792
  410TIP3    H222722   4.630   1.009  16.211 -0.1153 -0.0144  0.4284
  411TIP3   OH222723   5.432   5.863   6.392 -0.4456  0.2131  0.5734
  411TIP3    H122724   5.349   5.910   6.384  0.0280  0.9734 -0.0028
  411TIP3    H222725   5.489   5.923   6.440  1.0990  1.5893 -2.6458
  412TIP3   OH222726   1.138   1.470   6.435 -0.5184  0.0982 -0.2719
  412TIP3    H122727   1.152   1.377   6.418  0.4377  0.4246 -1.3692
  412TIP3    H222728   1.071   1.497   6.372 -0.8333  0.1514  0.0792
  413TIP3   OH222729   0.488   1.465   0.525 -0.0577  0.1873  0.9451
  413TIP3    H122730   0.402   1.433   0.555 -0.2748  0.4282  0.5863
  413TIP3    H222731   0.550   1.426   0.586 -0.2488 -1.4885  0.1447
  414TIP3   OH222732   5.351   2.121  11.267 -0.4260  0.4755 -0.1549
  414TIP3    H122733   5.365   2.170  11.349  0.3166  0.5283 -0.3083
  414TIP3    H222734   5.354   2.188  11.199  1.9792  0.0942 -0.5038
  415TIP3   OH222735   5.187   2.849  12.991 -0.3224  0.1841  0.5376
  415TIP3    H122736   5.260   2.909  12.973 -0.7991  0.4836 -0.4452
  415TIP3    H222737   5.137   2.892  13.061 -0.8507  1.1199 -0.3929
  416TIP3   OH222738   2.876   0.975  11.377 -0.6268 -0.2540 -0.2004
  416TIP3    H122739   2.971   0.983  11.368 -0.4294 -1.1088  0.9155
  416TIP3    H222740   2.841   1.053  11.333  0.5853  0.1116 -0.5546
  417TIP3   OH222741   3.150   1.581   4.900 -0.6569 -0.5038  0.2842
  417TIP3    H122742   3.088   1.641   4.859 -0.0765  0.5660  0.9436
  417TIP3    H222743   3.116   1.569   4.988  1.7406  2.7805  1.8651
  418TIP3   OH222744   1.976   2.462   2.346  0.0888  0.3891  0.2182
  418TIP3    H122745   1.955   2.508   2.265 -1.6831 -1.2221 -0.3205
  418TIP3    H222746   2.053   2.507   2.380  0.2624  1.7668 -1.8128
  419TIP3   OH222747   2.544   2.226   3.420  0.0852  0.2310 -0.5661
  419TIP3    H122748   2.550   2.261   3.508  2.0840 -2.8203  0.6824
  419TIP3    H222749   2.627   2.251   3.378  0.8658 -1.5388 -0.1689
  420TIP3   OH222750   1.881   5.424  13.187  0.2647 -0.4066 -0.1172
  420TIP3    H122751   1.895   5.516  13.206  0.0211 -0.7338  1.8642
  420TIP3    H222752   1.836   5.423  13.102 -0.1807  1.3149  0.0669
  421TIP3   OH222753   0.446   3.333  12.299  0.1110 -0.8686  0.6619
  421TIP3    H122754   0.478   3.418  12.330 -0.9982 -0.4590  0.7284
  421TIP3    H222755   0.412   3.290  12.378  0.6031 -1.3531  0.6160
  422TIP3   OH222756   6.507   0.720  15.312 -0.0301  0.1177 -0.5511
  422TIP3    H122757   6.535   0.803  15.273  3.1306 -0.8758 -0.7085
  422TIP3    H222758   6.550   0.653  15.259 -0.4895 -1.5144  1.0504
  423TIP3   OH222759   6.682   0.421   0.229  0.0937  0.5964  0.2822
  423TIP3    H122760   6.601   0.443   0.276 -0.6201 -0.6721 -0.3115
  423TIP3    H222761   6.688   0.486   0.159  0.1767  1.3531  0.9773
  424TIP3   OH222762   0.618   0.902   6.497 -0.4843  0.3678  0.1497
  424TIP3    H122763   0.538   0.932   6.540  1.3998  0.3000  4.1347
  424TIP3    H222764   0.633   0.814   6.532  0.6414 -0.2310 -1.6646
  425TIP3   OH222765   1.466   2.697  16.522 -0.1221 -0.2166  0.3362
  425TIP3    H122766   1.396   2.752  16.486 -1.1152 -1.7240 -0.1429
  425TIP3    H222767   1.422   2.640  16.585  0.6095 -1.3384 -0.1289
  426TIP3   OH222768   5.432   1.574   4.170  0.8122  0.3358  0.1420
  426TIP3    H122769   5.462   1.663   4.151  0.5738  0.2190 -0.8319
  426TIP3    H222770   5.468   1.521   4.098 -0.4953 -0.0575 -0.2452
  427TIP3   OH222771   4.722   0.132  12.644  0.0682 -0.1616 -0.0171
  427TIP3    H122772   4.741   0.225  12.638  1.1361 -0.3464  0.3860
  427TIP3    H222773   4.808   0.089  12.645 -0.3987 -1.2510 -1.7052
  428TIP3   OH222774   0.609   0.778  16.996 -0.2879 -0.9277 -0.7384
  428TIP3    H122775   0.569   0.826  17.068 -0.7778 -0.2840 -1.4211
  428TIP3    H222776   0.678   0.836  16.964 -0.2531 -1.0898 -0.9570
  429TIP3   OH222777   2.090   1.547   4.887  0.0113 -0.0101  0.2990
  429TIP3    H122778   2.098   1.452   4.893  0.0363 -0.0173  0.1464
  429TIP3    H222779   2.124   1.569   4.800  0.0862  0.1471  0.3665
  430TIP3   OH222780   1.186   5.242  12.873  0.0677  0.3403 -0.1285
  430TIP3    H122781   1.163   5.236  12.780  0.3597  1.8318 -0.3187
  430TIP3    H222782   1.109   5.209  12.919 -0.7523  1.1730 -0.8711
  431TIP3   OH222783   1.872   5.236  14.320 -0.0734  0.4864 -0.0457
  431TIP3    H122784   1.823   5.316  14.303 -1.6518  0.2914  2.8304
  431TIP3    H222785   1.854   5.180  14.244 -2.9020  1.1449  0.0356
  432TIP3   OH222786   5.482   2.463  12.055 -0.0271  1.0235 -0.3304
  432TIP3    H122787   5.386   2.458  12.052 -0.0534  1.7582 -0.8797
  432TIP3    H222788   5.505   2.531  11.992  0.8319  1.1851  0.1388
  433TIP3   OH222789   5.713   2.037  16.698  0.1115 -0.3416 -0.6226
  433TIP3    H122790   5.687   1.950  16.668  1.7132 -0.4884 -1.7511
  433TIP3    H222791   5.638   2.070  16.747 -0.0576 -2.8574  0.9476
  434TIP3   OH222792   3.283   5.393  14.111  0.2488 -0.0714  0.0126
  434TIP3    H122793   3.331   5.319  14.075 -1.7817 -0.0445 -3.1359
  434TIP3    H222794   3.317   5.469  14.063 -0.2450  0.4948  0.5370
  435TIP3   OH222795   3.697   6.698  16.452  0.0003  0.0702 -0.3613
  435TIP3    H122796   3.728   6.781  16.491  1.8609 -0.9340  0.4430
  435TIP3    H222797   3.735   6.697  16.364  0.7990 -0.3429 -0.0228
  436TIP3   OH222798   4.545   0.518  15.881 -0.7035  0.1030 -0.2812
  436TIP3    H122799   4.579   0.576  15.950  0.0770 -0.1118 -0.4724
  436TIP3    H222800   4.455   0.548  15.867 -1.0496 -0.1749  1.1718
  437TIP3   OH222801   0.016   0.596  13.849 -0.0909 -0.1030  0.2685
  437TIP3    H122802  -0.010   0.522  13.905 -0.2460 -0.1911  0.0801
  437TIP3    H222803   0.112   0.599  13.857  0.0151 -0.9700 -0.5240
  438TIP3   OH222804   1.086   5.359   1.020  0.0414 -0.0213  0.3989
  438TIP3    H122805   1.165   5.413   1.031  0.3423 -0.2246 -0.6919
  438TIP3    H222806   1.117   5.269   1.035 -0.3173  0.0261  1.5213
  439TIP3   OH222807   5.894   2.652   3.359 -0.6679  0.2237 -0.2413
  439TIP3    H122808   5.906   2.605   3.441  0.3227  0.7726 -0.0592
  439TIP3    H222809   5.976   2.700   3.346 -0.3993 -0.6198 -2.0489
  440TIP3   OH222810   6.343   0.599  12.548  0.4636  0.1900  0.0069
  440TIP3    H122811   6.355   0.641  12.633 -1.9313 -1.0687  1.0765
  440TIP3    H222812   6.251   0.617  12.527  0.5208 -1.0873 -1.4370
  441TIP3   OH222813   0.628   6.793   0.166  0.1475 -0.2477 -0.0036
  441TIP3    H122814   0.697   6.778   0.102  0.5328 -0.6184  0.4862
  441TIP3    H222815   0.649   6.734   0.238 -0.0314  0.4718  0.6566
  442TIP3   OH222816   4.305   0.048  14.509 -0.5464 -0.0768  0.1189
  442TIP3    H122817   4.318   0.029  14.416  0.2386  2.2668 -0.2929
  442TIP3    H222818   4.346  -0.026  14.554 -0.2606 -0.8575 -1.3625
  443TIP3   OH222819   0.282   0.068  16.472  0.1879  0.1493 -0.4751
  443TIP3    H122820   0.308   0.041  16.384 -1.3883 -1.1301 -0.5930
  443TIP3    H222821   0.350   0.031  16.529 -0.4713 -1.8548 -0.9035
  444TIP3   OH222822   3.291   0.220  14.504 -0.2188  0.2263 -0.4989
  444TIP3    H122823   3.351   0.162  14.551  0.3989  0.3484 -1.1176
  444TIP3    H222824   3.205   0.203  14.543  0.4152  1.0439  1.3600
  445TIP3   OH222825   0.399   3.323   1.744  0.3310 -0.2358  0.1121
  445TIP3    H122826   0.481   3.284   1.774 -0.0626 -2.3997 -1.3682
  445TIP3    H222827   0.425   3.388   1.679  0.9372  1.1434  1.6487
  446TIP3   OH222828   2.316   0.759   5.506 -0.5391  0.3560  0.0785
  446TIP3    H122829   2.385   0.719   5.558 -0.7673  1.3296  1.1790
  446TIP3    H222830   2.283   0.689   5.450  1.1806 -0.1669 -0.3161
  447TIP3   OH222831   5.747   5.512   3.635 -0.0199  0.8920 -0.2423
  447TIP3    H122832   5.690   5.587   3.618 -0.1559  0.3170 -2.7077
  447TIP3    H222833   5.787   5.493   3.550 -0.4468 -2.1777  0.1323
  448TIP3   OH222834   4.543   3.858  16.043  0.0241  0.2296  0.1424
  448TIP3    H122835   4.455   3.866  16.080  0.7008  0.6910  1.7623
  448TIP3    H222836   4.575   3.774  16.077  0.2480  0.1117 -0.3572
  449TIP3   OH222837   2.505   0.676  14.732 -0.5405  0.1066 -0.4568
  449TIP3    H122838   2.537   0.710  14.648 -3.4055  1.0301 -1.3090
  449TIP3    H222839   2.553   0.726  14.798  1.3517 -0.2295 -1.4968
  450TIP3   OH222840   6.449   1.215  12.324 -0.3987 -0.2907  0.1411
  450TIP3    H122841   6.355   1.231  12.320 -0.5379 -1.2672 -1.4124
  450TIP3    H222842   6.462   1.166  12.405 -1.4317 -1.2677 -0.2616
  451TIP3   OH222843   3.068   1.773   0.603 -0.3361  0.2821  0.1009
  451TIP3    H122844   3.100   1.727   0.526  0.3014  1.6266 -0.4617
  451TIP3    H222845   3.146   1.786   0.657  0.1455  3.1979 -1.0790
  452TIP3   OH222846   6.240   2.927  15.147  0.1236 -0.1057  0.0854
  452TIP3    H122847   6.235   2.859  15.080  0.3806  1.7548 -1.8928
  452TIP3    H222848   6.155   2.924  15.191 -0.9058  0.1058 -1.8244
  453TIP3   OH222849   1.646   3.670  15.660 -0.8149  0.1943  0.6217
  453TIP3    H122850   1.602   3.749  15.692 -0.0054  0.9778 -0.1888
  453TIP3    H222851   1.686   3.695  15.578 -3.0416 -1.8476 -1.2466
  454TIP3   OH222852   5.215   2.994  10.825  0.3916  0.3794  0.2985
  454TIP3    H122853   5.253   2.912  10.794 -1.3861  0.5673 -2.8430
  454TIP3    H222854   5.172   2.970  10.907  2.1787 -1.1381  0.8763
  455TIP3   OH222855   6.713   3.538   4.765 -0.1890  0.2767  0.1264
  455TIP3    H122856   6.773   3.592   4.817  2.8063 -2.1760 -0.4999
  455TIP3    H222857   6.770   3.491   4.704 -3.0286 -0.7814 -1.9322
  456TIP3   OH222858   0.836   2.879   1.601  0.4900 -0.2591  0.2856
  456TIP3    H122859   0.771   2.916   1.660  3.4183  1.9056  2.4270
  456TIP3    H222860   0.876   2.954   1.557  2.7181 -1.2593  0.4173
  457TIP3   OH222861   6.373   3.129  12.719  0.1973 -0.2948  0.1030
  457TIP3    H122862   6.281   3.157  12.714  0.1513 -0.6795 -2.3736
  457TIP3    H222863   6.422   3.207  12.693  0.4517 -0.6926 -0.6018
  458TIP3   OH222864   6.527   5.701   6.025  0.0781 -0.3387  0.3778
  458TIP3    H122865   6.573   5.653   6.094 -1.2172 -0.4687  1.1730
  458TIP3    H222866   6.473   5.765   6.072  0.1797  0.4663 -0.5800
  459TIP3   OH222867   3.399   3.288   4.664  0.1677  0.0666  0.0972
  459TIP3    H122868   3.442   3.342   4.730  0.1200 -0.6567  0.7259
  459TIP3    H222869   3.402   3.341   4.584 -0.1806  1.1400  0.7786
  460TIP3   OH222870   6.277   0.462   5.738 -0.0429  0.7302 -0.1188
  460TIP3    H122871   6.227   0.385   5.766  1.1471 -0.0723 -0.1147
  460TIP3    H222872   6.229   0.496   5.663 -0.4014 -0.2240 -0.3346
  461TIP3   OH222873   2.450   4.143  16.611  0.2269  0.6724 -0.3368
  461TIP3    H122874   2.499   4.164  16.690  2.1124 -1.4532 -0.8636
  461TIP3    H222875   2.488   4.199  16.543  2.7838 -1.5806 -0.9515
  462TIP3   OH222876   3.605   4.131   2.717 -0.3640  0.1321 -0.1149
  462TIP3    H122877   3.514   4.108   2.698 -0.2925 -0.0460 -0.2369
  462TIP3    H222878   3.650   4.123   2.633  0.1186 -1.4231  0.2742
  463TIP3   OH222879   0.769   4.324  12.821  0.1377  0.1478 -0.3830
  463TIP3    H122880   0.826   4.353  12.749 -0.7603  0.7198 -0.8894
  463TIP3    H222881   0.737   4.405  12.860 -0.8708 -0.1545 -0.5576
  464TIP3   OH222882   2.313   0.159   5.741 -0.2326 -0.6762 -0.3210
  464TIP3    H122883   2.385   0.198   5.791  0.4235 -0.8232 -1.1273
  464TIP3    H222884   2.298   0.220   5.669 -1.3739 -0.3127  0.2142
  465TIP3   OH222885   3.652   2.766   4.303  0.6239 -0.0222  0.3751
  465TIP3    H122886   3.634   2.859   4.289 -0.3069  0.0810  2.0248
  465TIP3    H222887   3.700   2.763   4.385 -0.4320 -1.0686  0.9857
  466TIP3   OH222888   2.996   6.777  13.671  0.4765  0.0496 -0.0465
  466TIP3    H122889   2.921   6.738  13.716  0.4948 -0.8335 -0.7456
  466TIP3    H222890   2.975   6.870  13.664 -1.0978 -0.3609 -1.2667
  467TIP3   OH222891   4.054   2.093   5.422  0.4056 -0.6834 -0.2991
  467TIP3    H122892   3.993   2.045   5.366 -0.6008 -1.1799  1.1611
  467TIP3    H222893   4.101   2.151   5.363  0.7241 -2.5115 -1.9308
  468TIP3   OH222894   0.607   3.821   1.875 -0.6026  0.4374  0.4143
  468TIP3    H122895   0.628   3.833   1.782 -0.3955  1.9054  0.6156
  468TIP3    H222896   0.521   3.863   1.885 -0.1820  1.1639  1.0656
  469TIP3   OH222897   2.624   3.684   4.018 -0.4314 -0.2035 -0.2161
  469TIP3    H122898   2.553   3.625   3.993 -1.0269  0.6094 -0.4672
  469TIP3    H222899   2.603   3.711   4.108 -0.8501  0.6342 -0.5618
  470TIP3   OH222900   4.889   0.841   3.620 -0.0709 -0.2919  0.2758
  470TIP3    H122901   4.907   0.901   3.548  0.6149  0.5785  1.1456
  470TIP3    H222902   4.929   0.883   3.697 -2.4834 -0.1973  1.5659
  471TIP3   OH222903   5.491   1.929  15.927  0.3556  0.4842 -0.2905
  471TIP3    H122904   5.502   1.843  15.886  0.8382  0.5188 -0.2443
  471TIP3    H222905   5.530   1.919  16.014 -1.9738 -0.0227  0.7590
  472TIP3   OH222906   0.880   4.409  17.276  0.0445  0.0044 -0.3384
  472TIP3    H122907   0.951   4.345  17.274  0.4088  0.3822  0.2691
  472TIP3    H222908   0.924   4.494  17.263 -0.5705  0.0484 -2.5632
  473TIP3   OH222909   2.910   3.013  16.043 -0.4545  0.5476  0.0328
  473TIP3    H122910   2.903   3.100  16.082 -1.4873  0.4940  0.0155
  473TIP3    H222911   2.873   2.954  16.110 -1.2090  0.3249 -0.5635
  474TIP3   OH222912   4.934   2.709  11.031  0.1407 -0.0501 -0.5707
  474TIP3    H122913   4.953   2.622  11.066  2.2981  0.7411  0.3646
  474TIP3    H222914   4.987   2.769  11.083 -0.7729  1.7866 -1.6305
  475TIP3   OH222915   0.294   4.789   5.803  0.1731  0.6967 -0.2279
  475TIP3    H122916   0.209   4.813   5.767 -0.0327  0.3205 -0.0038
  475TIP3    H222917   0.324   4.868   5.848 -1.8534 -0.2322  3.1009
  476TIP3   OH222918   2.855   1.246  13.287 -0.2271  0.1004 -0.3363
  476TIP3    H122919   2.880   1.160  13.252  0.8451  0.0233  0.5648
  476TIP3    H222920   2.774   1.268  13.241  0.5359 -0.4794 -2.0485
  477TIP3   OH222921   0.496   3.331  14.877 -0.1217 -0.1527 -0.1988
  477TIP3    H122922   0.438   3.333  14.953 -0.1716 -0.2849 -0.2339
  477TIP3    H222923   0.504   3.239  14.854 -0.1404 -0.1107 -0.3801
  478TIP3   OH222924   3.215   2.737  15.580 -0.6008  0.6057 -0.4376
  478TIP3    H122925   3.172   2.651  15.574 -3.0101  1.6674  0.4493
  478TIP3    H222926   3.253   2.738  15.667  0.7300 -0.0723 -0.9772
  479TIP3   OH222927   4.663   2.247   2.151  0.6424 -0.1408 -0.3811
  479TIP3    H122928   4.717   2.323   2.173 -1.2241  0.9676  0.6482
  479TIP3    H222929   4.583   2.284   2.113 -0.3526 -1.5565  0.2092
  480TIP3   OH222930   2.432   4.971   4.550 -0.2020 -0.4635 -0.1214
  480TIP3    H122931   2.421   4.880   4.525 -0.5712 -0.6935  0.8540
  480TIP3    H222932   2.498   4.969   4.620 -1.0725 -0.1232  0.7285
  481TIP3   OH222933   0.192   4.768  16.842  0.5221  0.3699 -0.6962
  481TIP3    H122934   0.284   4.746  16.856 -0.2892 -2.2458  1.7566
  481TIP3    H222935   0.156   4.691  16.798 -1.3312 -1.0581  2.8766
  482TIP3   OH222936   2.543   6.423   0.421  0.1167  0.7569  0.3281
  482TIP3    H122937   2.473   6.357   0.424  0.7061  0.1554  0.8857
  482TIP3    H222938   2.545   6.450   0.329  0.0867 -0.2385  0.0193
  483TIP3   OH222939   5.045   1.348  17.102 -0.1054  0.0118  0.1292
  483TIP3    H122940   4.983   1.300  17.047  1.6067 -2.4310  0.1783
  483TIP3    H222941   5.002   1.351  17.188 -0.8625 -0.1414 -0.2347
  484TIP3   OH222942   2.410   0.172  11.178  0.2617 -0.1301  0.2582
  484TIP3    H122943   2.331   0.133  11.215  0.2776 -0.4574 -0.0455
  484TIP3    H222944   2.475   0.164  11.248  0.6350 -1.8540 -0.2252
  485TIP3   OH222945   3.705   5.841  14.274  0.3713  0.3365 -0.3252
  485TIP3    H122946   3.719   5.749  14.297 -0.6670 -0.1413 -1.4936
  485TIP3    H222947   3.784   5.865  14.226  0.5554 -0.0038 -0.2019
  486TIP3   OH222948   4.768   6.005   4.612 -0.0635  0.8347 -0.3690
  486TIP3    H122949   4.780   6.084   4.665  0.6851 -1.2351  2.8255
  486TIP3    H222950   4.857   5.981   4.585  0.2858 -0.8598  1.9494
  487TIP3   OH222951   4.515   4.931  11.815  0.2496 -0.4787 -0.2432
  487TIP3    H122952   4.450   5.001  11.812  0.4361 -0.3236 -0.6931
  487TIP3    H222953   4.532   4.910  11.723 -0.1028 -1.3990 -0.1101
  488TIP3   OH222954   6.192   2.926   3.124  0.0185  0.2413 -0.6002
  488TIP3    H122955   6.157   3.015   3.129  1.0838  0.6840 -0.8232
  488TIP3    H222956   6.262   2.931   3.059 -2.0754 -1.5234 -3.2347
  489TIP3   OH222957   1.726   0.183  14.531  0.5035  0.3207  0.7652
  489TIP3    H122958   1.676   0.111  14.568 -0.5924  0.1642 -0.8949
  489TIP3    H222959   1.762   0.147  14.450 -0.8796  1.8652 -0.6044
  490TIP3   OH222960   3.763   6.041  17.120  0.5549 -0.5471 -0.5767
  490TIP3    H122961   3.812   5.962  17.097  1.0708 -0.2614 -0.4636
  490TIP3    H222962   3.721   6.069  17.039 -0.1077 -1.2677 -0.4920
  491TIP3   OH222963   2.695   1.959  16.574  0.7935 -0.4729  0.1004
  491TIP3    H122964   2.646   1.908  16.510  0.5008  0.1789 -0.2025
  491TIP3    H222965   2.655   1.938  16.658  0.7776 -0.8640 -0.0055
  492TIP3   OH222966   5.399   1.342   0.177  0.1636 -0.2917  0.8909
  492TIP3    H122967   5.356   1.426   0.192 -0.1674 -0.5510  1.4196
  492TIP3    H222968   5.464   1.335   0.246  0.7107 -0.1371  0.4018
  493TIP3   OH222969   6.825   0.081  16.160  0.5722  0.0269 -0.0722
  493TIP3    H122970   6.820   0.055  16.251 -0.6728 -1.9896 -0.6729
  493TIP3    H222971   6.784   0.168  16.157  0.9273  0.2606  1.2962
  494TIP3   OH222972   5.957   0.264  10.597 -0.0410  0.5312 -0.1203
  494TIP3    H122973   5.910   0.226  10.670 -0.7632  2.7038  0.6366
  494TIP3    H222974   5.965   0.193  10.533 -1.7436 -0.6970  0.9593
  495TIP3   OH222975   6.265   4.071   2.662 -0.2486 -0.2597 -0.2931
  495TIP3    H122976   6.228   4.002   2.607 -1.2066  0.7066 -0.8814
  495TIP3    H222977   6.203   4.082   2.733  1.0239 -1.5560  1.0918
  496TIP3   OH222978   2.267   0.977  13.062 -0.3892  0.1563  0.6546
  496TIP3    H122979   2.225   1.056  13.030  0.7018 -0.3213 -2.2260
  496TIP3    H222980   2.358   1.001  13.075  0.0559 -0.7208 -0.7214
  497TIP3   OH222981   6.539   1.927  17.221  0.3643  0.0509 -0.0984
  497TIP3    H122982   6.492   2.011  17.228  0.1205 -0.2263  2.3004
  497TIP3    H222983   6.499   1.884  17.146 -0.0597  1.7371 -0.8942
  498TIP3   OH222984   2.638   1.483   5.212 -0.5350  0.2414  0.1228
  498TIP3    H122985   2.650   1.420   5.141 -0.0640 -0.2452  0.6287
  498TIP3    H222986   2.676   1.441   5.289 -0.1463  1.1684  0.4562
  499TIP3   OH222987   1.076   5.475   5.211  0.1486 -0.0331  0.7820
  499TIP3    H122988   0.991   5.445   5.243 -1.0408  2.7288  0.4364
  499TIP3    H222989   1.133   5.474   5.288 -0.4232 -1.0329  1.2058
  500TIP3   OH222990   3.526   3.147  13.713  0.1620 -0.2673  0.3848
  500TIP3    H122991   3.555   3.227  13.757  1.4756 -0.0168 -0.8637
  500TIP3    H222992   3.598   3.086  13.726 -1.1072 -1.5196  1.8925
  501TIP3   OH222993   5.105   4.277  12.689 -0.6148 -0.0154 -0.6112
  501TIP3    H122994   5.142   4.204  12.739  0.0485 -0.5837 -1.8850
  501TIP3    H222995   5.101   4.349  12.751  1.0790 -0.4206  0.0199
  502TIP3   OH222996   0.208   4.504  10.564 -0.2977  0.3869 -0.5258
  502TIP3    H122997   0.168   4.423  10.595  0.9287  0.4057  1.2400
  502TIP3    H222998   0.167   4.573  10.617  0.7508  0.5895  0.0441
  503TIP3   OH222999   1.875   6.158  12.392 -0.0257  0.2243 -0.0313
  503TIP3    H123000   1.930   6.116  12.459  1.0686  0.4254 -0.7748
  503TIP3    H223001   1.820   6.219  12.441 -0.7286 -1.1013  0.9209
  504TIP3   OH223002   1.409   2.433   3.195 -0.1194  0.1512 -0.5845
  504TIP3    H123003   1.400   2.520   3.232  2.7008 -0.1059  1.0079
  504TIP3    H223004   1.472   2.443   3.124 -0.2100 -0.4940 -0.7666
  505TIP3   OH223005   3.126   4.473  11.970  0.2918  0.2651 -0.9398
  505TIP3    H123006   3.034   4.468  11.994  0.9851 -0.3736  2.0102
  505TIP3    H223007   3.130   4.439  11.881 -2.2709  0.0617 -1.0392
  506TIP3   OH223008   4.121   4.344   0.897  0.6326  0.0420 -0.0535
  506TIP3    H123009   4.055   4.408   0.869  0.8782  0.9742  1.4132
  506TIP3    H223010   4.082   4.298   0.970  0.8639 -0.7983 -0.4402
  507TIP3   OH223011   4.543   3.333  15.234 -0.9569 -0.1469  0.6245
  507TIP3    H123012   4.514   3.242  15.225  0.9010 -0.6511 -0.9444
  507TIP3    H223013   4.601   3.347  15.160  0.2848  1.7537  1.8708
  508TIP3   OH223014   1.436   0.626   2.175 -0.1601 -0.4542  0.1375
  508TIP3    H123015   1.453   0.601   2.266 -1.1545 -0.0596  0.4422
  508TIP3    H223016   1.363   0.570   2.148 -0.9469  0.5565  0.1192
  509TIP3   OH223017   2.865   0.723   2.880 -0.3355  0.8641 -0.2257
  509TIP3    H123018   2.869   0.649   2.941 -1.0823  1.6762  0.8499
  509TIP3    H223019   2.956   0.743   2.860 -0.0871  0.3929  0.3994
  510TIP3   OH223020   1.623   6.064   3.653 -0.0415 -0.0303 -0.3184
  510TIP3    H123021   1.705   6.109   3.671  1.0701 -1.4231 -1.5813
  510TIP3    H223022   1.603   6.086   3.562 -2.0411  1.6638  0.4403
  511TIP3   OH223023   0.018   1.130  14.513  0.3676 -0.2561  0.1338
  511TIP3    H123024   0.041   1.056  14.569  0.4192 -0.2728  0.0904
  511TIP3    H223025  -0.044   1.181  14.565  0.4138 -0.2728  0.2046
  512TIP3   OH223026   6.177   6.168   0.469 -0.4048  0.0710 -0.0438
  512TIP3    H123027   6.233   6.127   0.403  0.0568 -1.1607  1.0645
  512TIP3    H223028   6.234   6.229   0.515  0.1484 -1.2817  1.1751
  513TIP3   OH223029   4.556   6.655  12.565 -0.1827 -0.1916 -0.3866
  513TIP3    H123030   4.590   6.596  12.632 -0.9636 -2.0786 -1.5593
  513TIP3    H223031   4.596   6.626  12.483 -1.1600  0.4075 -1.1183
  514TIP3   OH223032   2.184   3.530  15.992  0.5031 -0.7008  0.3043
  514TIP3    H123033   2.273   3.557  15.968  0.8493  0.1149  2.3350
  514TIP3    H223034   2.176   3.552  16.085 -2.2362  0.4044 -0.0870
  515TIP3   OH223035   4.274   4.819  13.472 -0.0644  0.0410  0.4837
  515TIP3    H123036   4.189   4.817  13.428  0.4686 -0.0510 -0.5999
  515TIP3    H223037   4.329   4.873  13.415  0.5024  0.4149  1.3620
  516TIP3   OH223038   3.505   3.810  15.185  0.7079 -0.0322  0.4994
  516TIP3    H123039   3.583   3.755  15.196  0.5375 -0.0723  1.5141
  516TIP3    H223040   3.507   3.871  15.258 -0.2170 -0.0282  0.5334
  517TIP3   OH223041   4.726   4.047  15.975  0.1075 -0.4198  0.1092
  517TIP3    H123042   4.775   4.062  16.055 -1.2136 -0.8731  1.0359
  517TIP3    H223043   4.650   3.995  16.002 -1.7167  1.4811 -0.9672
  518TIP3   OH223044   1.054   1.581   5.309 -0.8713  0.5474  0.7254
  518TIP3    H123045   1.044   1.660   5.363 -0.6987  0.6848  0.5603
  518TIP3    H223046   1.091   1.614   5.226  2.2382 -0.0307  1.7455
  519TIP3   OH223047   2.102   4.078  15.486 -0.1144 -0.3964 -0.1932
  519TIP3    H123048   2.077   4.169  15.470 -2.0823 -0.7330  0.6574
  519TIP3    H223049   2.060   4.030  15.415 -1.3880 -0.9051  0.8632
  520TIP3   OH223050   3.634   4.967  16.717 -0.6237  0.3888  0.3454
  520TIP3    H123051   3.712   5.021  16.711 -1.2278  1.1474 -1.3216
  520TIP3    H223052   3.579   5.010  16.782 -0.1138  0.4616  0.7281
  521TIP3   OH223053   1.392   0.254  14.543  0.2850 -0.3959 -0.2382
  521TIP3    H123054   1.360   0.283  14.629 -1.0348 -0.4521 -0.6959
  521TIP3    H223055   1.364   0.322  14.483  1.5862 -0.1425 -0.5796
  522TIP3   OH223056   1.787   5.434   1.304  0.0738  0.2378  0.2526
  522TIP3    H123057   1.840   5.508   1.333  1.3714 -1.4656  2.5531
  522TIP3    H223058   1.836   5.397   1.231  0.2762  0.6779  0.1624
  523TIP3   OH223059   0.490   5.403   2.457  0.4793  0.6571  0.7053
  523TIP3    H123060   0.468   5.474   2.396  1.2535  0.6817  0.4442
  523TIP3    H223061   0.422   5.407   2.523 -1.0820 -0.1162 -0.7812
  524TIP3   OH223062   0.817   6.130  16.956  0.2595  1.0559  0.2478
  524TIP3    H123063   0.854   6.117  17.044  0.0697  0.9863  0.3181
  524TIP3    H223064   0.824   6.044  16.915 -1.8474  0.4507  1.0317
  525TIP3   OH223065   0.437   4.397   0.241  0.2372 -0.3996 -0.3709
  525TIP3    H123066   0.440   4.301   0.242 -0.2470 -0.4425  1.8067
  525TIP3    H223067   0.455   4.420   0.150  0.4846 -2.5452 -0.9327
  526TIP3   OH223068   3.872   5.490   6.411  0.0431  0.3556  0.2606
  526TIP3    H123069   3.967   5.507   6.414  0.2109 -0.3646 -0.6205
  526TIP3    H223070   3.834   5.575   6.389  0.8445 -0.1223 -3.7901
  527TIP3   OH223071   2.222   4.640   3.701 -0.3405 -0.6754  0.4416
  527TIP3    H123072   2.293   4.705   3.705  0.1348 -1.2367  1.3098
  527TIP3    H223073   2.168   4.659   3.779 -0.5058 -0.9820  0.4017
  528TIP3   OH223074   4.536   1.854   0.334 -0.2012  0.8445 -0.3777
  528TIP3    H123075   4.465   1.883   0.392  0.9704  0.6886  1.1992
  528TIP3    H223076   4.528   1.910   0.257 -2.5146  0.3111 -0.6126
  529TIP3   OH223077   5.513   1.898   4.883  0.2749  0.1624  0.0294
  529TIP3    H123078   5.450   1.961   4.848 -2.1222 -1.8174  0.5228
  529TIP3    H223079   5.467   1.814   4.881  2.3007 -1.1081  2.0347
  530TIP3   OH223080   4.307   4.445  12.808  0.5432  0.2880  0.1492
  530TIP3    H123081   4.223   4.445  12.855  1.0612 -0.2465  1.0857
  530TIP3    H223082   4.299   4.374  12.744  1.0699 -1.2252  1.7053
  531TIP3   OH223083   3.015   3.239  15.580 -0.2934  0.5775  0.2611
  531TIP3    H123084   3.004   3.328  15.613  0.5260  0.6252  0.4143
  531TIP3    H223085   3.100   3.210  15.613 -0.7197 -0.4146  0.5507
  532TIP3   OH223086   3.489   4.777   5.570  0.1460 -0.1543 -0.5986
  532TIP3    H123087   3.406   4.766   5.616  0.2456  1.4725  0.0247
  532TIP3    H223088   3.504   4.692   5.527 -1.1062 -0.9420  0.4496
  533TIP3   OH223089   1.455   2.789  11.575  1.0191  0.1991  0.1648
  533TIP3    H123090   1.388   2.731  11.611 -0.1406  2.9041  2.8512
  533TIP3    H223091   1.518   2.799  11.646  1.5220  1.6360 -0.4465
  534TIP3   OH223092   1.237   2.972  15.217 -0.0160  1.1577 -0.2152
  534TIP3    H123093   1.168   2.907  15.223  0.3829  0.6622 -0.9082
  534TIP3    H223094   1.224   3.028  15.294 -0.3478  0.2545  0.4010
  535TIP3   OH223095   1.312   2.975   1.344 -0.2777 -0.2737 -0.6978
  535TIP3    H123096   1.386   2.958   1.402 -1.1953 -0.6484  0.4077
  535TIP3    H223097   1.265   2.891   1.340 -1.5374  0.3705 -0.0423
  536TIP3   OH223098   6.626   0.313   2.450 -0.3496  0.1462  0.5792
  536TIP3    H123099   6.660   0.391   2.406 -0.4542 -0.5613 -0.8179
  536TIP3    H223100   6.630   0.244   2.384 -2.7007 -0.4259  0.9162
  537TIP3   OH223101   5.810   2.796  16.197  0.3020  0.5911  0.2984
  537TIP3    H123102   5.880   2.849  16.235 -0.9488  2.5992 -0.0441
  537TIP3    H223103   5.799   2.724  16.259  1.1416  1.4831  1.5546
  538TIP3   OH223104   4.691   5.770  16.137  0.8570 -0.6817  0.0427
  538TIP3    H123105   4.757   5.778  16.068  1.0952 -1.4076  0.1824
  538TIP3    H223106   4.738   5.795  16.217 -0.2724  3.7228 -0.3961
  539TIP3   OH223107   4.605   0.884   0.265  0.2046 -0.0538  0.5903
  539TIP3    H123108   4.547   0.956   0.240 -0.7455 -0.2443  2.1387
  539TIP3    H223109   4.680   0.928   0.306 -0.5092  0.0664  1.7994
  540TIP3   OH223110   1.640   2.923  11.745  0.2204 -0.2432 -0.6228
  540TIP3    H123111   1.697   2.891  11.815 -1.0709  0.2528  0.7198
  540TIP3    H223112   1.570   2.970  11.791 -0.3405  0.6466 -2.2935
  541TIP3   OH223113   6.120   5.409  11.260  0.0951  0.5558  0.1913
  541TIP3    H123114   6.038   5.418  11.212 -0.0538  1.8372  0.6404
  541TIP3    H223115   6.160   5.496  11.257  1.1315  0.1138  0.5271
  542TIP3   OH223116   1.437   3.940  16.709 -0.1475  0.1286  0.2517
  542TIP3    H123117   1.422   3.874  16.776  1.8944  0.5307  1.1850
  542TIP3    H223118   1.530   3.934  16.689 -0.3002  1.4173 -1.0492
  543TIP3   OH223119   3.431   6.534   1.236 -0.6552  0.1900 -0.1177
  543TIP3    H123120   3.480   6.452   1.223 -1.3762 -0.0004 -1.9600
  543TIP3    H223121   3.401   6.529   1.327  1.7110 -0.2199  0.7101
  544TIP3   OH223122   2.422   3.508   3.210  0.0440 -0.1827 -0.4191
  544TIP3    H123123   2.469   3.462   3.140  0.6872 -0.7386  0.3562
  544TIP3    H223124   2.491   3.553   3.259 -0.2533 -0.7888  0.5761
  545TIP3   OH223125   0.622   2.027   3.996 -0.6097 -0.0918  0.3636
  545TIP3    H123126   0.545   1.973   4.012  0.9143 -2.2760  0.7109
  545TIP3    H223127   0.675   2.018   4.075  1.7420 -1.7963 -1.2502
  546TIP3   OH223128   1.315   5.248   4.326  0.0415 -0.1322  0.1844
  546TIP3    H123129   1.319   5.321   4.388  0.0300 -0.0884  0.1342
  546TIP3    H223130   1.344   5.172   4.376 -2.4904 -0.6398  1.0519
  547TIP3   OH223131   2.953   1.493  12.430  0.1808 -0.3322 -0.1724
  547TIP3    H123132   2.888   1.431  12.463 -1.2009  0.9477 -0.3912
  547TIP3    H223133   2.942   1.570  12.485  0.8682  0.2590 -0.8380
  548TIP3   OH223134   1.355   2.655  13.855 -0.1705 -0.4332 -0.1721
  548TIP3    H123135   1.299   2.727  13.882  0.3123 -1.3119  3.7554
  548TIP3    H223136   1.301   2.577  13.870  0.2456 -1.0434 -1.7319
  549TIP3   OH223137   0.715   2.847  17.134 -0.2597  0.0511 -0.0436
  549TIP3    H123138   0.622   2.829  17.150  0.4452 -1.1572  3.6076
  549TIP3    H223139   0.740   2.782  17.068 -1.1486 -2.7170  2.1060
  550TIP3   OH223140   3.444   6.284   4.989  0.2184 -0.1580  0.3289
  550TIP3    H123141   3.526   6.288   4.940  1.0364 -1.0744  1.5506
  550TIP3    H223142   3.456   6.346   5.061  0.9376 -2.0988  1.9982
  551TIP3   OH223143   2.888   1.843  14.963 -0.9350  0.8203 -0.2853
  551TIP3    H123144   2.915   1.896  14.887  0.1758  1.9899  0.8745
  551TIP3    H223145   2.835   1.773  14.925 -1.0996  1.8327 -2.0583
  552TIP3   OH223146   2.554   6.208   2.628 -0.1651 -0.1108 -0.2686
  552TIP3    H123147   2.511   6.153   2.693  0.6581 -0.9070 -0.3794
  552TIP3    H223148   2.639   6.229   2.666 -0.7537  1.8047  0.1380
  553TIP3   OH223149   1.202   0.686  13.832  0.2149  0.4435  0.1056
  553TIP3    H123150   1.214   0.676  13.737 -0.8729  0.7074 -0.0738
  553TIP3    H223151   1.158   0.605  13.859 -0.0950  0.6640  0.2648
  554TIP3   OH223152   2.949   3.968   6.029 -0.5933  0.4148  0.3176
  554TIP3    H123153   2.902   3.889   6.002 -0.4106  0.3171  0.2821
  554TIP3    H223154   2.904   3.998   6.107  0.3514 -0.6742  1.3132
  555TIP3   OH223155   4.221   4.562   0.315  0.4248 -0.1004 -0.1301
  555TIP3    H123156   4.209   4.651   0.347 -0.3436  0.1986 -1.2045
  555TIP3    H223157   4.153   4.512   0.360 -0.6169  0.3097 -1.1931
  556TIP3   OH223158   0.864   6.348   2.749 -0.2320 -0.0635 -0.4557
  556TIP3    H123159   0.941   6.403   2.765 -0.3004  0.1118 -0.7317
  556TIP3    H223160   0.790   6.407   2.754 -0.3619 -0.2507 -0.0967
  557TIP3   OH223161   6.096   0.584   3.297 -0.4159  0.0231  0.0998
  557TIP3    H123162   6.012   0.612   3.335 -0.8909 -0.9623 -0.1878
  557TIP3    H223163   6.081   0.493   3.273 -0.3527  0.7596 -3.1007
  558TIP3   OH223164   1.629   6.388   2.687  1.0384  0.1298 -0.3642
  558TIP3    H123165   1.617   6.341   2.604  2.4916  0.1936 -0.6224
  558TIP3    H223166   1.603   6.478   2.668  0.4245 -0.0592 -0.4662
  559TIP3   OH223167   5.985   2.069  14.684  0.0641  0.0003 -0.0309
  559TIP3    H123168   5.909   2.020  14.716 -0.5004  0.9179  0.0686
  559TIP3    H223169   6.052   2.002  14.668 -0.0292 -0.6395  1.9448
  560TIP3   OH223170   3.218   2.360   0.912 -0.8055 -0.2115  0.4528
  560TIP3    H123171   3.248   2.309   0.987 -1.0177  0.0242  0.7014
  560TIP3    H223172   3.297   2.405   0.881 -0.7350 -0.2416  0.5886
  561TIP3   OH223173   0.654   2.292   0.992  0.8384 -0.4217  0.1207
  561TIP3    H123174   0.598   2.238   1.049  0.6186 -0.2372  0.0772
  561TIP3    H223175   0.669   2.237   0.915  0.5629 -0.3994  0.0488
  562TIP3   OH223176   1.054   0.487   4.494  0.2185 -0.3674 -0.2109
  562TIP3    H123177   0.979   0.445   4.453  0.2239  0.1597 -0.7773
  562TIP3    H223178   1.107   0.414   4.527 -0.8830 -0.7262  0.8432
  563TIP3   OH223179   2.921   1.568  11.532  0.5090 -0.5677 -0.1373
  563TIP3    H123180   2.963   1.492  11.573  1.2628 -0.3341 -0.4538
  563TIP3    H223181   2.926   1.551  11.438 -0.5160 -0.7380 -0.1672
  564TIP3   OH223182   1.898   3.114  17.209  0.6183  0.3616 -0.0720
  564TIP3    H123183   1.990   3.128  17.187  0.8054 -0.1243  0.3739
  564TIP3    H223184   1.849   3.145  17.132  1.1414  0.7750 -0.2410
  565TIP3   OH223185   2.576   4.678   0.804 -0.1433 -0.2877  0.5755
  565TIP3    H123186   2.481   4.692   0.807 -0.8776 -3.0566 -2.8464
  565TIP3    H223187   2.607   4.747   0.745 -0.3023 -0.4187  0.3377
  566TIP3   OH223188   0.633   1.759  14.910  0.5289 -0.5499  0.3720
  566TIP3    H123189   0.646   1.797  14.997  0.3665 -1.5308  0.8322
  566TIP3    H223190   0.549   1.794  14.880  0.2766 -0.7172  0.8815
  567TIP3   OH223191   4.596   2.003   4.496  0.1319 -0.0288  0.6883
  567TIP3    H123192   4.600   2.098   4.487  0.5583 -0.0460  0.6897
  567TIP3    H223193   4.686   1.973   4.482 -0.3020 -0.5947 -1.0617
  568TIP3   OH223194   2.943   6.414   0.320  0.1437 -0.1302 -0.4400
  568TIP3    H123195   2.997   6.487   0.289 -0.9673  0.1933 -1.6809
  568TIP3    H223196   2.946   6.350   0.249 -0.0289 -0.6952  0.0528
  569TIP3   OH223197   1.763   3.207  16.955 -0.7588  0.7305 -0.0277
  569TIP3    H123198   1.765   3.164  16.869  0.3944 -0.2370  0.4637
  569TIP3    H223199   1.670   3.223  16.971 -1.2237 -1.4564 -0.2989
  570TIP3   OH223200   1.198   0.292   4.622 -0.1256  0.5705 -0.5240
  570TIP3    H123201   1.193   0.321   4.713  1.6316 -0.3450 -0.1062
  570TIP3    H223202   1.159   0.204   4.623 -0.2301  0.6140 -0.6968
  571TIP3   OH223203   2.856   1.240   5.811 -0.2963  0.5923  0.6204
  571TIP3    H123204   2.862   1.181   5.887 -0.8503  0.4461  0.5562
  571TIP3    H223205   2.931   1.299   5.821  0.6748 -0.5313  0.3369
  572TIP3   OH223206   0.856   1.375   5.258  0.8650 -0.0089  0.0451
  572TIP3    H123207   0.865   1.317   5.333  1.7668 -1.6051 -1.2417
  572TIP3    H223208   0.909   1.452   5.280  1.0729 -0.4367  1.0567
  573TIP3   OH223209   5.070   6.286   4.430 -0.5565 -0.2386  0.2625
  573TIP3    H123210   5.107   6.369   4.459 -1.1983  0.1378  0.0402
  573TIP3    H223211   5.076   6.289   4.335 -1.8713  0.1908  0.1737
  574TIP3   OH223212   1.218   5.579   1.180 -0.1201  0.1421 -0.1530
  574TIP3    H123213   1.183   5.623   1.258 -0.6026  0.2095 -0.4090
  574TIP3    H223214   1.186   5.630   1.107 -0.7372 -0.6615 -0.4630
  575TIP3   OH223215   3.998   0.295  15.437  0.0267  0.1790  0.0194
  575TIP3    H123216   3.998   0.376  15.488  2.0965 -0.8166  1.7253
  575TIP3    H223217   3.958   0.230  15.494  0.8639 -0.5904 -0.2491
  576TIP3   OH223218   4.058   5.163   1.010 -0.7445  0.5557 -0.0502
  576TIP3    H123219   4.119   5.225   1.052 -1.3231  1.2591 -0.2298
  576TIP3    H223220   4.110   5.122   0.941 -0.7551  1.9568 -0.9337
  577TIP3   OH223221   5.090   6.471   6.034  0.2746 -0.4935  0.8180
  577TIP3    H123222   5.010   6.422   6.054 -0.4533  0.1547 -0.3995
  577TIP3    H223223   5.142   6.465   6.114 -0.1151 -2.6067  0.9563
  578TIP3   OH223224   0.649   0.771  14.341 -0.9853  0.6056 -0.8266
  578TIP3    H123225   0.632   0.734  14.428  1.6048 -0.0415 -0.5212
  578TIP3    H223226   0.698   0.851  14.357  0.5795 -0.1340 -1.6707
  579TIP3   OH223227   1.958   0.628   0.467  0.2338 -0.6914  0.0861
  579TIP3    H123228   1.939   0.565   0.398 -1.1702 -0.6918  0.4314
  579TIP3    H223229   1.979   0.710   0.421 -0.9093 -0.6313 -0.3481
  580TIP3   OH223230   3.865   2.607  16.203 -0.4297  0.7124 -0.6594
  580TIP3    H123231   3.771   2.618  16.215 -0.6010 -0.2714 -0.9766
  580TIP3    H223232   3.881   2.633  16.112 -0.8950 -1.7914 -1.5276
  581TIP3   OH223233   3.861   4.899   1.367 -0.0264  0.2903 -0.3497
  581TIP3    H123234   3.841   4.973   1.424 -0.8068 -0.5376  0.4818
  581TIP3    H223235   3.799   4.910   1.294  0.7885  1.1966 -0.9318
  582TIP3   OH223236   0.554   4.810   3.038  0.1952 -0.5126 -0.4785
  582TIP3    H123237   0.636   4.856   3.055 -1.1294  1.5994  0.5826
  582TIP3    H223238   0.534   4.764   3.120 -1.4569  2.0134  0.6608
  583TIP3   OH223239   2.059   2.226   2.273 -0.0833  0.4504 -0.4918
  583TIP3    H123240   2.053   2.317   2.303  1.2947  0.5318 -0.4194
  583TIP3    H223241   2.079   2.176   2.352 -0.2160  0.1659 -0.6379
  584TIP3   OH223242   2.014   5.902   1.079 -0.7502  0.0350  0.2967
  584TIP3    H123243   1.957   5.883   1.154 -1.0527  0.4268  0.1720
  584TIP3    H223244   2.017   5.820   1.030  0.8188 -0.7471  1.6171
  585TIP3   OH223245   4.169   1.625   1.557 -0.1636  0.6234  0.1120
  585TIP3    H123246   4.244   1.684   1.550  1.6583 -1.5226  0.3700
  585TIP3    H223247   4.125   1.650   1.638 -0.1472  2.3139 -0.3576
  586TIP3   OH223248   2.533   3.065   1.336 -0.0542 -0.0119  0.5735
  586TIP3    H123249   2.581   3.128   1.283 -0.7628 -0.3182 -0.4838
  586TIP3    H223250   2.445   3.065   1.298 -0.5485 -0.3399  1.6873
  587TIP3   OH223251   3.945   4.676  11.805  0.7516 -0.3544  0.4245
  587TIP3    H123252   3.965   4.587  11.777  0.0060 -0.9668  1.7450
  587TIP3    H223253   3.879   4.707  11.743  1.4128 -0.5098 -0.3658
  588TIP3   OH223254   3.279   5.224   2.495  0.5636  0.1181  0.0697
  588TIP3    H123255   3.353   5.177   2.533 -0.8637 -0.6059  2.0910
  588TIP3    H223256   3.269   5.302   2.549  0.7428  1.0142 -1.1300
  589TIP3   OH223257   0.276   2.776  13.549  0.3235 -0.6376 -0.3977
  589TIP3    H123258   0.291   2.739  13.636  2.7987  2.9893  0.9566
  589TIP3    H223259   0.190   2.818  13.555  1.0429  0.7486  0.8439
  590TIP3   OH223260   2.999   1.270  14.001 -0.3485 -0.1547  0.2486
  590TIP3    H123261   2.937   1.288  14.071  1.2596  1.9600  1.2519
  590TIP3    H223262   3.072   1.226  14.046 -0.8269 -2.1863 -0.8259
  591TIP3   OH223263   3.535   0.201   5.834  0.3248 -0.0046 -0.1808
  591TIP3    H123264   3.466   0.175   5.895 -0.2319 -0.6635 -1.0846
  591TIP3    H223265   3.616   0.175   5.878  0.1000  1.6682  1.3352
  592TIP3   OH223266   4.963   3.044   3.381 -0.1012 -0.5056  0.0163
  592TIP3    H123267   4.999   3.133   3.384  1.9141 -1.2980  1.8665
  592TIP3    H223268   5.038   2.987   3.397 -1.6948 -2.4254  1.1020
  593TIP3   OH223269   2.375   6.490   1.129 -0.3325 -0.3906  0.7629
  593TIP3    H123270   2.380   6.584   1.112 -1.2333 -0.1535  1.6784
  593TIP3    H223271   2.414   6.450   1.052  0.8862  0.7461  0.7476
  594TIP3   OH223272   6.754   0.509   5.824  0.8423 -0.2832  0.3159
  594TIP3    H123273   6.807   0.545   5.753  0.2171  3.5167  1.5676
  594TIP3    H223274   6.668   0.493   5.784  1.1325 -0.3604 -0.2881
  595TIP3   OH223275   2.015   6.682   4.957 -0.4311 -0.5751 -0.0851
  595TIP3    H123276   1.977   6.662   5.042  0.3267 -3.1299 -0.2752
  595TIP3    H223277   2.107   6.656   4.964 -0.3186 -0.7080 -1.6242
  596TIP3   OH223278   3.370   6.620  16.943 -0.0044 -0.6467 -0.1142
  596TIP3    H123279   3.386   6.539  16.894  0.0294 -0.9214  0.3500
  596TIP3    H223280   3.456   6.644  16.979 -0.6019 -2.4312  2.8569
  597TIP3   OH223281   2.143   3.381  13.626  0.9307 -0.0105 -0.2798
  597TIP3    H123282   2.152   3.285  13.622  0.5310 -0.0177 -1.7073
  597TIP3    H223283   2.184   3.412  13.545  2.4754  1.1768  0.9095
  598TIP3   OH223284   0.856   5.601   5.085  0.4860 -0.1471  0.1692
  598TIP3    H123285   0.821   5.645   5.161 -0.3141 -0.5375  0.0378
  598TIP3    H223286   0.935   5.556   5.117  1.8757  2.0710  0.1070
  599TIP3   OH223287   1.712   2.606   3.387  0.5808  0.5010 -0.0539
  599TIP3    H123288   1.777   2.544   3.352 -0.4117 -0.7374  0.2273
  599TIP3    H223289   1.668   2.558   3.456 -0.0035  1.6617  0.4076
  600TIP3   OH223290   0.081   3.549   0.584  0.0912 -0.3383  0.1025
  600TIP3    H123291   0.013   3.610   0.557 -0.3188  0.8972  3.4913
  600TIP3    H223292   0.045   3.462   0.565 -0.5318  0.3568 -2.1314
  601TIP3   OH223293   5.717   4.683  16.180  0.4062 -0.0319 -0.2671
  601TIP3    H123294   5.730   4.752  16.245  0.6076  0.3868 -0.7467
  601TIP3    H223295   5.779   4.704  16.110 -0.1256 -0.2257 -0.7994
  602TIP3   OH223296   1.734   3.342  11.605  0.1652  0.6218  0.0807
  602TIP3    H123297   1.697   3.400  11.538  0.3609  1.0377  0.3258
  602TIP3    H223298   1.719   3.388  11.687 -1.8420 -0.7755  0.5564
  603TIP3   OH223299   3.574   5.625   1.082 -0.6669 -0.4873 -0.0442
  603TIP3    H123300   3.551   5.608   0.990 -1.4739 -3.1393  0.5583
  603TIP3    H223301   3.523   5.703   1.105 -0.7861 -0.0303 -1.7263
  604TIP3   OH223302   0.924   2.228  13.266  0.3948  0.1635 -0.1760
  604TIP3    H123303   0.904   2.142  13.228 -3.0476  2.2927 -4.0473
  604TIP3    H223304   0.891   2.224  13.355  0.0538 -2.3984 -0.3630
  605TIP3   OH223305   2.920   4.656  14.693  0.4821 -1.1242  0.4161
  605TIP3    H123306   2.922   4.751  14.680  0.0302 -1.0657  0.7581
  605TIP3    H223307   2.939   4.644  14.786 -0.1056 -1.3338  0.5137
  606TIP3   OH223308   6.267   4.218  16.658  0.1447  0.3974 -0.8578
  606TIP3    H123309   6.286   4.303  16.619 -0.7133  0.6150 -0.8266
  606TIP3    H223310   6.263   4.158  16.583 -0.8210  0.6897 -1.0627
  607TIP3   OH223311   3.202   6.317  13.330 -0.7679 -0.3063  0.2990
  607TIP3    H123312   3.132   6.361  13.282 -2.4887 -2.8122  0.3017
  607TIP3    H223313   3.193   6.349  13.420  0.4308  2.0063 -0.3285
  608TIP3   OH223314   3.872   2.958   6.642 -0.3025 -0.2307  0.4958
  608TIP3    H123315   3.857   2.865   6.626  2.2988 -0.5352 -0.7879
  608TIP3    H223316   3.926   2.960   6.722  1.5779 -0.0921 -0.7021
  609TIP3   OH223317   1.536   2.462  12.417 -0.6472 -0.2853 -0.2270
  609TIP3    H123318   1.576   2.453  12.503 -3.0390 -0.4655  0.9460
  609TIP3    H223319   1.555   2.552  12.391  0.4329 -0.3524  0.2777
  610TIP3   OH223320   3.053   0.706  13.625 -0.0568  0.1738 -0.5824
  610TIP3    H123321   2.972   0.658  13.609  0.2619 -0.5235 -0.1486
  610TIP3    H223322   3.037   0.794  13.590 -1.5161  0.4976  0.8312
  611TIP3   OH223323   3.042   6.189   2.873  0.5548 -0.5522  0.9396
  611TIP3    H123324   3.009   6.276   2.893  0.4325  0.1788 -2.0147
  611TIP3    H223325   3.003   6.133   2.940 -0.9914  1.3432  1.7243
  612TIP3   OH223326   4.015   5.864   1.912 -0.2182 -0.1162  0.5980
  612TIP3    H123327   4.046   5.821   1.833 -4.1653  0.6182 -1.6059
  612TIP3    H223328   4.015   5.795   1.978  1.3194 -1.2849 -0.5566
  613TIP3   OH223329   2.597   0.215   6.124  0.1718 -0.1532  0.2146
  613TIP3    H123330   2.688   0.199   6.101  0.1143  0.3340 -0.3792
  613TIP3    H223331   2.549   0.205   6.041 -0.1235  1.0075  0.2201
  614TIP3   OH223332   1.611   5.905   6.266  0.1276 -0.0422 -0.2542
  614TIP3    H123333   1.559   5.967   6.317 -2.4498 -1.0160 -1.5360
  614TIP3    H223334   1.668   5.961   6.213 -1.2481  1.2033 -0.4831
  615TIP3   OH223335   3.951   4.736   6.208 -0.1313  0.0023 -0.0987
  615TIP3    H123336   3.896   4.777   6.275 -0.7714  0.1726 -0.7225
  615TIP3    H223337   4.014   4.804   6.184  0.1463 -0.0840  0.3802
  616TIP3   OH223338   0.583   2.006  15.673 -0.0766  0.1884  0.4798
  616TIP3    H123339   0.498   2.050  15.664 -0.3181 -0.2522  0.5668
  616TIP3    H223340   0.590   1.950  15.596  1.4930  2.4241 -1.1235
  617TIP3   OH223341   0.299   3.698   1.367  0.8576 -0.1707 -0.4427
  617TIP3    H123342   0.282   3.655   1.451 -2.7499 -0.7667 -1.3194
  617TIP3    H223343   0.321   3.788   1.391 -0.0605 -0.3344  1.1628
  618TIP3   OH223344   4.911   4.987   2.933 -0.4566  0.2429 -0.4566
  618TIP3    H123345   4.959   4.907   2.911 -2.8755 -1.9383  1.5311
  618TIP3    H223346   4.925   4.997   3.028 -0.6962  1.8562 -0.5744
  619TIP3   OH223347   4.243   3.029   4.559  0.2899  0.5857 -0.0176
  619TIP3    H123348   4.192   3.106   4.586  0.1959  0.2637  0.7308
  619TIP3    H223349   4.227   2.964   4.628 -0.1676 -0.3479 -0.9793
  620TIP3   OH223350   5.633   0.138   2.445  0.1283  0.3929 -0.2519
  620TIP3    H123351   5.621   0.143   2.350 -1.2655  1.2382 -0.0603
  620TIP3    H223352   5.588   0.215   2.479 -0.9558 -0.8338  1.2266
  621TIP3   OH223353   5.427   0.871  12.189  0.9626  0.2743  0.1584
  621TIP3    H123354   5.400   0.780  12.174  0.7615  0.1319  1.2560
  621TIP3    H223355   5.523   0.868  12.190  1.0199  0.4059 -1.5910
  622TIP3   OH223356   4.612   3.664  14.914 -0.1817 -0.1678  0.2464
  622TIP3    H123357   4.516   3.655  14.915 -0.1932 -0.0326  1.6286
  622TIP3    H223358   4.634   3.699  15.000  1.1883 -0.8977  0.2169
  623TIP3   OH223359   2.735   5.453   6.367 -0.3354  0.2368  0.3355
  623TIP3    H123360   2.812   5.405   6.336 -0.7069  1.0899 -2.1689
  623TIP3    H223361   2.741   5.538   6.323 -3.9845 -0.5487 -2.1904
  624TIP3   OH223362   0.874   6.123  12.195 -0.0936 -0.6129 -0.1704
  624TIP3    H123363   0.910   6.154  12.112 -0.6173  2.9637  0.7504
  624TIP3    H223364   0.785   6.158  12.196  0.1249  0.0206  2.1307
  625TIP3   OH223365   4.799   3.724   1.705 -0.3254 -0.7895  0.0738
  625TIP3    H123366   4.747   3.768   1.637 -0.4000  1.2998  1.4172
  625TIP3    H223367   4.872   3.783   1.721  1.0564 -2.4379  0.1197
  626TIP3   OH223368   4.023   4.575   1.528  0.5333 -0.6554 -0.1981
  626TIP3    H123369   4.106   4.621   1.518 -0.4260  1.4791  0.9991
  626TIP3    H223370   3.956   4.643   1.516 -1.1791 -2.5708 -2.8134
  627TIP3   OH223371   6.719   1.738   4.601 -0.6673  0.1021  0.1595
  627TIP3    H123372   6.736   1.753   4.694  1.1063 -1.6425  0.1923
  627TIP3    H223373   6.727   1.643   4.590 -0.6110  0.2858 -1.8019
  628TIP3   OH223374   1.334   5.762   3.346 -0.1118 -0.1695 -0.0931
  628TIP3    H123375   1.367   5.846   3.315  3.6381 -0.9556  1.2319
  628TIP3    H223376   1.327   5.772   3.441  0.2198 -1.2614  0.0642
  629TIP3   OH223377   3.314   2.239  15.072 -0.1310 -0.0493  0.0301
  629TIP3    H123378   3.313   2.288  15.154  2.4485  0.1878  0.0068
  629TIP3    H223379   3.310   2.147  15.099  0.5128  0.0361  0.4368
  630TIP3   OH223380   4.167   2.167  11.216  0.1594  0.2875  0.4599
  630TIP3    H123381   4.200   2.169  11.305  0.6386  0.2666  0.2866
  630TIP3    H223382   4.224   2.226  11.167  0.3506 -0.2351  0.0262
  631TIP3   OH223383   5.148   6.769  14.599  0.4364 -0.1847 -0.2619
  631TIP3    H123384   5.177   6.678  14.591 -0.2034 -0.6212  1.7367
  631TIP3    H223385   5.073   6.775  14.539  2.1292 -0.1031 -2.5429
  632TIP3   OH223386   6.081   5.490   6.228  0.1612 -0.1727 -0.0912
  632TIP3    H123387   6.037   5.555   6.283 -0.4530  1.3108 -2.1917
  632TIP3    H223388   6.159   5.535   6.196 -0.7661 -0.0290 -2.3401
  633TIP3   OH223389   4.563   1.377   3.152 -0.1869  0.1300  0.0748
  633TIP3    H123390   4.557   1.438   3.226 -1.1284  0.5589 -0.3311
  633TIP3    H223391   4.569   1.291   3.192 -1.5476  0.2836  0.6808
  634TIP3   OH223392   0.562   6.532   1.198 -0.0266 -0.7405 -0.3497
  634TIP3    H123393   0.586   6.484   1.118  0.2636 -0.7014 -0.2894
  634TIP3    H223394   0.614   6.612   1.194 -0.3465 -0.5314 -0.3407
  635TIP3   OH223395   0.029   4.551  14.606 -0.0980 -0.2156 -0.3270
  635TIP3    H123396   0.026   4.503  14.688  1.6520 -0.5884 -0.4580
  635TIP3    H223397   0.025   4.484  14.538 -2.5605  0.1336 -0.6262
  636TIP3   OH223398   2.266   4.973   3.825  0.1175  0.1972 -0.0822
  636TIP3    H123399   2.217   5.044   3.866  0.4718 -0.5327  1.6845
  636TIP3    H223400   2.330   4.947   3.891  0.9623 -0.7994 -1.2490
  637TIP3   OH223401   4.567   0.823  11.895  0.4364  0.3360  0.1770
  637TIP3    H123402   4.495   0.803  11.955  0.0887 -0.1707 -0.3979
  637TIP3    H223403   4.525   0.870  11.823  0.0114 -2.8742 -1.8520
  638TIP3   OH223404   0.108   4.642   3.940  0.1906 -0.3685 -0.4755
  638TIP3    H123405   0.201   4.616   3.936 -0.2873 -2.1391 -0.9744
  638TIP3    H223406   0.101   4.716   3.881  1.1819 -0.5964 -0.9013
  639TIP3   OH223407   2.033   6.626  15.829  0.2651  0.2689 -0.1929
  639TIP3    H123408   1.990   6.697  15.876  1.4490  0.6705  0.3334
  639TIP3    H223409   2.123   6.627  15.862  0.3806 -1.2912 -0.3848
  640TIP3   OH223410   2.966   3.638  14.142  0.0702 -0.2252 -0.2231
  640TIP3    H123411   2.940   3.672  14.057 -2.3880 -0.0147  0.5574
  640TIP3    H223412   2.920   3.693  14.205  0.8706 -1.1611  1.2338
  641TIP3   OH223413   1.526   5.049   0.646 -0.1096 -0.5213  0.5054
  641TIP3    H123414   1.619   5.045   0.628 -0.3678 -1.0811 -0.8376
  641TIP3    H223415   1.504   4.963   0.680  0.1694  0.1882  2.6405
  642TIP3   OH223416   3.685   1.956   2.299  0.1227 -0.0651 -0.3280
  642TIP3    H123417   3.694   1.869   2.338  1.2500  0.0515 -0.2812
  642TIP3    H223418   3.704   1.943   2.206 -0.8632 -0.0559 -0.5390
  643TIP3   OH223419   2.869   0.961   4.597 -0.5802 -0.6113 -0.1592
  643TIP3    H123420   2.864   1.031   4.532 -2.5889 -1.3241 -0.8422
  643TIP3    H223421   2.796   0.978   4.657  0.8291 -0.3507  1.5627
  644TIP3   OH223422   5.994   0.811  12.249  0.0819 -0.4469 -0.2732
  644TIP3    H123423   6.061   0.801  12.182  2.2282 -0.4985  1.7442
  644TIP3    H223424   6.009   0.738  12.309 -2.2505 -0.8448 -0.0649
  645TIP3   OH223425   0.648   5.089  11.028  0.4653  0.1289 -0.2338
  645TIP3    H123426   0.635   5.144  10.951  0.7441  0.4122 -0.0823
  645TIP3    H223427   0.646   5.150  11.102 -1.0208 -0.2828  0.1030
  646TIP3   OH223428   6.744   5.939  11.048 -0.0376 -0.1402  0.5497
  646TIP3    H123429   6.670   5.999  11.061 -0.8926 -0.6289 -1.5491
  646TIP3    H223430   6.797   5.983  10.981 -0.1255 -1.2312 -0.2515
  647TIP3   OH223431   1.923   0.455   0.732  0.9990 -0.4442 -0.2619
  647TIP3    H123432   1.922   0.503   0.650  0.5422 -1.1050 -0.6503
  647TIP3    H223433   2.014   0.457   0.760  1.4766 -1.5423 -1.5906
  648TIP3   OH223434   6.478   1.490  16.469  0.2253  0.7219 -0.2092
  648TIP3    H123435   6.479   1.499  16.564  0.9284 -3.9260  0.4471
  648TIP3    H223436   6.570   1.473  16.445 -0.1324  0.4598 -1.4904
  649TIP3   OH223437   5.765   1.471   0.258 -0.0915 -0.5152 -0.1883
  649TIP3    H123438   5.810   1.396   0.219 -0.0219 -0.4325 -0.2694
  649TIP3    H223439   5.722   1.514   0.184  0.1221 -0.3013 -0.1898
  650TIP3   OH223440   0.771   1.889  15.271  0.6147  0.1404  0.2653
  650TIP3    H123441   0.812   1.972  15.246  0.7070 -0.1876 -0.7296
  650TIP3    H223442   0.685   1.892  15.228  0.9302 -0.6096 -0.4438
  651TIP3   OH223443   3.699   1.511   3.127  0.8175 -0.4200 -0.2321
  651TIP3    H123444   3.751   1.560   3.064  0.3217  1.6028  0.8374
  651TIP3    H223445   3.758   1.445   3.161  2.3612  1.0798  0.1258
  652TIP3   OH223446   6.579   4.607  14.154 -0.0837 -0.1229 -0.2437
  652TIP3    H123447   6.575   4.543  14.082 -0.6468  0.6041 -0.8734
  652TIP3    H223448   6.507   4.668  14.136  1.7415  1.9828 -0.9285
  653TIP3   OH223449   3.989   2.257   6.211 -0.1170  0.2853  0.0194
  653TIP3    H123450   4.025   2.324   6.153  0.5344  0.4233  0.5650
  653TIP3    H223451   3.994   2.176   6.161 -2.4194  0.8653 -1.2691
  654TIP3   OH223452   5.987   6.414  12.243 -0.1757  0.0100  0.0381
  654TIP3    H123453   5.953   6.414  12.332  0.5926  0.0605  0.3367
  654TIP3    H223454   6.075   6.451  12.251 -0.7372  1.7141 -0.9784
  655TIP3   OH223455   5.859   0.547   2.459 -0.0910  1.1520 -0.0836
  655TIP3    H123456   5.796   0.607   2.419  0.4263  2.1024  0.4686
  655TIP3    H223457   5.935   0.603   2.477  0.8911  0.0495 -0.6902
  656TIP3   OH223458   2.929   5.500   2.183 -0.2826  0.0455  1.0976
  656TIP3    H123459   2.941   5.568   2.250 -1.0821  0.8238  0.4745
  656TIP3    H223460   2.913   5.549   2.102  3.1089 -0.7810 -0.2740
  657TIP3   OH223461   6.376   4.220  13.725  0.3286  0.4186  0.5021
  657TIP3    H123462   6.426   4.272  13.788  3.3528 -0.4105 -0.9983
  657TIP3    H223463   6.388   4.130  13.753 -1.1207  0.2233  0.5639
  658TIP3   OH223464   2.499   6.526   2.160 -0.3838 -0.0574  1.2773
  658TIP3    H123465   2.465   6.612   2.184 -1.2990 -0.3476  1.0691
  658TIP3    H223466   2.529   6.536   2.070 -0.7512 -0.0289  1.1573
  659TIP3   OH223467   4.038   3.931  13.067  0.0647 -0.3158 -0.1508
  659TIP3    H123468   4.099   3.874  13.115 -0.2104 -0.1874  0.3673
  659TIP3    H223469   4.011   3.879  12.992  1.9538  0.1642 -1.2343
  660TIP3   OH223470   1.396   4.726   5.280 -0.5869  0.1726  0.9963
  660TIP3    H123471   1.380   4.806   5.330 -1.5462 -0.6418  2.0751
  660TIP3    H223472   1.368   4.656   5.339 -1.2140 -0.8797 -0.4994
  661TIP3   OH223473   2.287   0.701  15.213 -0.3712 -0.3640  0.2175
  661TIP3    H123474   2.285   0.774  15.276 -1.1072  0.3485 -0.6081
  661TIP3    H223475   2.343   0.732  15.142  1.0792 -1.4617  0.8204
  662TIP3   OH223476   5.334   3.118   4.331  0.0033 -0.2069  0.3507
  662TIP3    H123477   5.382   3.190   4.372 -1.3480  0.9682 -0.0671
  662TIP3    H223478   5.389   3.041   4.347  2.0049  1.0509 -0.0784
  663TIP3   OH223479   0.800   0.661  12.008  0.5767  0.4608 -0.5987
  663TIP3    H123480   0.771   0.748  11.982 -0.6226  0.4058  0.4530
  663TIP3    H223481   0.745   0.639  12.084  1.2827 -0.9516 -0.4611
  664TIP3   OH223482   6.211   0.646  12.171 -0.3403  0.4022 -0.2042
  664TIP3    H123483   6.250   0.566  12.136 -0.5667  0.6248 -0.9924
  664TIP3    H223484   6.282   0.711  12.165 -0.1974  0.2983  0.3113
  665TIP3   OH223485   3.662   4.930  16.045 -0.6074 -0.3717 -0.2499
  665TIP3    H123486   3.665   4.835  16.056  1.5559 -0.1579  1.7348
  665TIP3    H223487   3.741   4.950  15.994 -0.8163  0.4053 -0.2749
  666TIP3   OH223488   6.163   6.563  13.035  0.1784 -0.1565  0.1984
  666TIP3    H123489   6.232   6.527  12.980  1.6911  0.4345  1.6016
  666TIP3    H223490   6.105   6.610  12.975  0.2602 -1.7247 -1.1740
  667TIP3   OH223491   2.985   6.253   0.076  0.2540  0.3792  0.1205
  667TIP3    H123492   3.061   6.260   0.018  0.1938  0.1283  0.0106
  667TIP3    H223493   2.923   6.199   0.028  0.5758 -0.6173  0.8062
  668TIP3   OH223494   6.085   6.070   3.567  0.4056 -0.0491  0.2419
  668TIP3    H123495   6.027   6.090   3.493 -0.0513 -1.3464  0.2228
  668TIP3    H223496   6.168   6.047   3.526  0.3940  0.0324  0.1711
  669TIP3   OH223497   5.044   1.403   1.848  0.2395 -0.3198  0.6093
  669TIP3    H123498   5.122   1.454   1.829 -0.4556  0.8550  0.7832
  669TIP3    H223499   4.971   1.458   1.819 -0.4942 -2.3863 -1.8590
  670TIP3   OH223500   1.239   6.260  16.205 -0.2336  0.4897  0.6051
  670TIP3    H123501   1.223   6.166  16.209 -1.5892  0.6551 -0.1610
  670TIP3    H223502   1.162   6.295  16.160  1.4543  1.6504 -1.5914
  671TIP3   OH223503   1.778   2.814   0.053  1.2990  0.0193  0.2197
  671TIP3    H123504   1.802   2.809  -0.039  0.7247  0.5693  0.0307
  671TIP3    H223505   1.797   2.727   0.088 -1.2468 -1.1860 -1.0961
  672TIP3   OH223506   5.201   6.821  16.392 -0.5410 -0.6257 -0.7790
  672TIP3    H123507   5.236   6.865  16.470  0.0453  1.7921 -2.2861
  672TIP3    H223508   5.241   6.735  16.392 -1.0814 -0.9581  1.9175
  673TIP3   OH223509   2.195   0.908  15.677  0.1726  0.1277  0.1184
  673TIP3    H123510   2.262   0.866  15.731  0.5008  0.8439  0.2803
  673TIP3    H223511   2.215   0.880  15.588  0.4020 -0.0481  0.2246
  674TIP3   OH223512   4.590   5.320  16.501 -0.1561  0.1826  0.1827
  674TIP3    H123513   4.609   5.227  16.500  0.4177  0.2319 -3.3005
  674TIP3    H223514   4.656   5.360  16.444 -1.1636  2.5608  0.5302
  675TIP3   OH223515   4.906   0.101  14.166  0.1441  0.1483 -0.4978
  675TIP3    H123516   4.966   0.090  14.240  0.4844  1.8401 -0.4704
  675TIP3    H223517   4.942   0.045  14.097  1.9137  1.2485 -0.5340
  676TIP3   OH223518   1.771   2.418   1.212 -0.2689 -0.1898  0.4302
  676TIP3    H123519   1.857   2.454   1.190  0.6951 -2.1317  0.8084
  676TIP3    H223520   1.709   2.484   1.183  1.2653  0.5077 -1.4379
  677TIP3   OH223521   1.995   3.906  12.285 -0.0777 -0.2595  0.4233
  677TIP3    H123522   2.021   3.957  12.208 -0.6454 -0.3672  0.1540
  677TIP3    H223523   1.954   3.970  12.343 -0.1986 -0.2927  0.3730
  678TIP3   OH223524   1.682   2.871  13.592  0.3123  0.2234  0.2805
  678TIP3    H123525   1.746   2.800  13.593  1.2318  0.9350 -1.9046
  678TIP3    H223526   1.727   2.945  13.632  1.0787  0.8506 -1.6591
  679TIP3   OH223527   3.625   1.454  12.357  0.4538 -0.1506 -0.1874
  679TIP3    H123528   3.576   1.486  12.282  1.4214 -0.2005 -0.8543
  679TIP3    H223529   3.619   1.525  12.421 -3.0984 -1.3233  1.0536
  680TIP3   OH223530   3.411   0.870  10.454 -0.1525  0.2797  0.1208
  680TIP3    H123531   3.384   0.796  10.400 -1.9647  1.2675 -0.4041
  680TIP3    H223532   3.500   0.890  10.424  0.4906 -1.8051  0.4715
  681TIP3   OH223533   5.060   5.060  14.675 -0.2558  0.1269  0.2497
  681TIP3    H123534   5.150   5.086  14.697 -0.1176 -0.5107  0.4760
  681TIP3    H223535   5.071   4.980  14.623 -0.6815  0.2242  0.0138
  682TIP3   OH223536   5.263   3.454  17.163 -0.0488 -0.0511  0.5236
  682TIP3    H123537   5.273   3.539  17.207 -0.2148  0.0430  0.3778
  682TIP3    H223538   5.200   3.470  17.093 -1.4577 -0.7161  1.6084
  683TIP3   OH223539   3.693   4.698  16.743 -0.0297  0.0093 -0.2890
  683TIP3    H123540   3.741   4.632  16.694  0.4421 -0.1281  0.3510
  683TIP3    H223541   3.707   4.780  16.695 -1.1497 -0.4495 -1.4554
  684TIP3   OH223542   2.620   5.809   4.055  0.0877 -0.2232  0.0612
  684TIP3    H123543   2.683   5.764   3.999 -1.0509 -0.3955 -1.1231
  684TIP3    H223544   2.577   5.872   3.997 -0.5026  0.2265  0.9658
  685TIP3   OH223545   4.986   6.451  15.303  0.0717 -0.4049  0.1697
  685TIP3    H123546   5.034   6.430  15.224  0.5767 -1.7136  0.7882
  685TIP3    H223547   4.895   6.430  15.282  0.3362 -1.7222  0.2216
  686TIP3   OH223548   3.529   1.611  14.233 -0.8180  0.0064 -0.5120
  686TIP3    H123549   3.599   1.675  14.217  0.5059 -1.1013  0.5112
  686TIP3    H223550   3.457   1.640  14.177  1.0548  0.2353 -3.0195
  687TIP3   OH223551   4.214   0.397  13.340 -0.4242  0.0452  0.4902
  687TIP3    H123552   4.254   0.335  13.402  0.8808 -1.2310 -1.5137
  687TIP3    H223553   4.288   0.432  13.291 -1.4666  0.5445 -0.7513
  688TIP3   OH223554   2.601   1.789  13.991 -0.8414  0.9792  0.2792
  688TIP3    H123555   2.511   1.757  13.986 -0.7864  0.8126  0.3705
  688TIP3    H223556   2.593   1.876  14.029 -0.8405  0.4170  1.6282
  689TIP3   OH223557   3.974   6.820   0.620  0.3526 -0.0636  0.9940
  689TIP3    H123558   4.069   6.826   0.608  0.2224  0.1209  0.0050
  689TIP3    H223559   3.950   6.736   0.581  0.0349  0.1390  0.7509
  690TIP3   OH223560   4.267   4.897  16.768 -0.4786 -0.2857  0.5724
  690TIP3    H123561   4.192   4.876  16.822 -0.1819 -1.0089  0.7103
  690TIP3    H223562   4.289   4.815  16.723  1.0000 -0.4288  1.4871
  691TIP3   OH223563   5.367   2.642   3.728 -0.1707 -0.2128  0.3182
  691TIP3    H123564   5.283   2.598   3.719 -0.1986 -0.8002  2.7720
  691TIP3    H223565   5.353   2.706   3.797  1.0357  0.7266 -0.2596
  692TIP3   OH223566   0.063   0.953  14.964  0.6980 -0.2962 -0.4335
  692TIP3    H123567   0.015   0.917  15.039  1.3108  0.5565  0.3939
  692TIP3    H223568   0.086   1.042  14.991  1.2731 -0.1081 -1.4912
  693TIP3   OH223569   4.447   1.580   2.059  0.2081 -0.7022 -0.3197
  693TIP3    H123570   4.400   1.663   2.068  0.7251 -0.5068  0.8518
  693TIP3    H223571   4.486   1.583   1.972 -0.2560  0.0325 -0.5117
  694TIP3   OH223572   6.210   1.367  12.852  0.5205  0.0759 -0.5068
  694TIP3    H123573   6.239   1.455  12.876  0.1078 -0.1044  0.6840
  694TIP3    H223574   6.121   1.360  12.885 -0.4035  0.0759 -2.7904
  695TIP3   OH223575   3.416   1.698   0.536 -0.5345  0.1393 -0.3734
  695TIP3    H123576   3.412   1.794   0.528  0.2036  0.0878 -1.4643
  695TIP3    H223577   3.503   1.681   0.574 -0.7744 -0.0852  0.0791
  696TIP3   OH223578   1.758   6.566  17.243  0.6114  0.8058 -0.7604
  696TIP3    H123579   1.761   6.651  17.288 -0.7632 -0.3138  1.6108
  696TIP3    H223580   1.850   6.547  17.223  1.2437  1.6574  1.0699
  697TIP3   OH223581   2.010   1.846   0.165  0.4806 -0.2322 -0.5494
  697TIP3    H123582   1.934   1.799   0.133 -0.0479  0.2505 -0.0156
  697TIP3    H223583   2.081   1.819   0.107 -0.0216 -0.9344 -0.8458
  698TIP3   OH223584   3.317   6.025  11.389  0.2389 -0.3366  0.1319
  698TIP3    H123585   3.398   6.002  11.435 -0.5156 -0.4274  1.4803
  698TIP3    H223586   3.305   6.118  11.408  0.0590 -0.3117 -0.1036
  699TIP3   OH223587   1.549   2.490   2.154  0.0850 -0.0278 -0.9956
  699TIP3    H123588   1.455   2.492   2.169  0.0525 -1.6754 -0.7376
  699TIP3    H223589   1.559   2.501   2.059 -0.4777 -1.1196 -1.2018
  700TIP3   OH223590   3.880   3.570  13.501 -0.2271 -0.4442 -0.5931
  700TIP3    H123591   3.960   3.585  13.450 -0.1730 -1.0291 -0.6867
  700TIP3    H223592   3.816   3.538  13.437 -0.9412  1.2241 -0.7676
  701TIP3   OH223593   3.605   6.273  15.702 -0.2993 -0.0226 -0.5361
  701TIP3    H123594   3.621   6.210  15.773 -1.2077 -1.7652 -1.8325
  701TIP3    H223595   3.614   6.359  15.745 -1.0943 -0.9995  1.7601
  702TIP3   OH223596   4.671   5.388  14.506 -0.2997 -0.5471 -0.0577
  702TIP3    H123597   4.705   5.400  14.594  0.6356  0.8653 -0.5734
  702TIP3    H223598   4.715   5.308  14.474  1.7197  0.5822 -0.2811
  703TIP3   OH223599   1.578   6.575   2.096 -0.2629 -0.4621  0.2708
  703TIP3    H123600   1.495   6.544   2.131  0.5722 -2.1852  0.8440
  703TIP3    H223601   1.563   6.583   2.002 -1.1894 -0.3281  0.4173
  704TIP3   OH223602   5.569   0.581  16.443  0.3912  0.0987 -0.0850
  704TIP3    H123603   5.619   0.661  16.431 -0.0101  0.5724  1.2180
  704TIP3    H223604   5.500   0.585  16.376 -0.3391  1.4371  0.6991
  705TIP3   OH223605   6.260   3.127  11.955  0.0120 -0.0557 -0.1414
  705TIP3    H123606   6.351   3.148  11.933  0.5140  0.3719  2.1146
  705TIP3    H223607   6.211   3.207  11.937  0.5793  0.6087  1.1844
  706TIP3   OH223608   2.153   0.427  13.268 -0.0390 -0.3990 -0.1069
  706TIP3    H123609   2.222   0.369  13.237  0.8482  0.5385  0.0409
  706TIP3    H223610   2.077   0.406  13.215  0.2641 -1.6786 -0.0546
  707TIP3   OH223611   1.883   5.703  13.176  0.1773  0.0389 -0.7235
  707TIP3    H123612   1.957   5.732  13.230 -1.0108  1.1173  0.4044
  707TIP3    H223613   1.848   5.784  13.139 -1.5448 -0.2110  0.2593
  708TIP3   OH223614   6.668   3.038  12.051  0.0249  0.0406  0.3213
  708TIP3    H123615   6.699   3.092  12.124 -0.7625 -0.6504  1.1873
  708TIP3    H223616   6.665   3.098  11.977 -0.5035  1.1153  1.1848
  709TIP3   OH223617   0.876   1.600   5.052 -0.2750 -0.1237  0.2845
  709TIP3    H123618   0.969   1.579   5.061  0.3467  1.1421 -2.1795
  709TIP3    H223619   0.840   1.525   5.005  0.0583  0.3807 -0.8221
  710TIP3   OH223620   1.471   6.801  11.732 -0.1245  1.3793 -0.9854
  710TIP3    H123621   1.535   6.850  11.680  0.8471 -1.0005 -2.2147
  710TIP3    H223622   1.524   6.735  11.779 -1.2334  2.0992  1.4462
  711TIP3   OH223623   0.526   1.290  12.800  0.1924  0.3263  0.6054
  711TIP3    H123624   0.444   1.311  12.845 -0.5619  0.1124 -0.6216
  711TIP3    H223625   0.501   1.223  12.736  1.3276  0.2594  0.2204
  712TIP3   OH223626   3.375   5.126  12.215 -0.0795 -0.3179  0.4225
  712TIP3    H123627   3.414   5.148  12.300 -1.4152  2.0635  0.4904
  712TIP3    H223628   3.450   5.115  12.156  0.8449 -1.4858  1.7425
  713TIP3   OH223629   2.931   1.254   4.940  0.2162 -0.5090 -0.1866
  713TIP3    H123630   2.997   1.204   4.891  0.8209 -1.2468  1.2964
  713TIP3    H223631   2.900   1.320   4.878  1.1862 -1.1730 -1.4360
  714TIP3   OH223632   5.994   4.032  11.754  0.0011 -0.0770  0.8415
  714TIP3    H123633   6.035   3.973  11.818 -0.4075  0.9609  2.1220
  714TIP3    H223634   6.058   4.102  11.742 -1.0060  1.1851  2.3115
  715TIP3   OH223635   1.500   2.836  14.698 -0.0888  0.0367 -0.0813
  715TIP3    H123636   1.593   2.821  14.711 -0.3534 -1.9944 -0.2561
  715TIP3    H223637   1.487   2.831  14.604 -0.7940 -3.0914  0.0605
  716TIP3   OH223638   2.978   5.490  11.744  0.3537 -0.3173  0.3170
  716TIP3    H123639   2.977   5.439  11.825  0.6920 -0.6930  0.0887
  716TIP3    H223640   3.019   5.573  11.769  2.0050 -1.0582  0.1738
  717TIP3   OH223641   1.951   6.403  12.503 -0.0960  0.1411  0.0256
  717TIP3    H123642   1.878   6.441  12.455  0.7147  2.0370  0.2131
  717TIP3    H223643   1.918   6.389  12.591 -0.7828 -0.8137 -0.3736
  718TIP3   OH223644   1.002   1.951  11.723  0.5782  0.2486  0.3173
  718TIP3    H123645   1.012   1.879  11.785 -0.8881  0.4557  0.8297
  718TIP3    H223646   0.946   2.014  11.768  0.7237  1.0990 -0.6460
  719TIP3   OH223647   2.468   6.762   5.838 -0.2096  0.2360 -0.1411
  719TIP3    H123648   2.414   6.832   5.802 -1.2326 -1.0358 -1.2128
  719TIP3    H223649   2.479   6.785   5.930  0.8006  2.5778 -0.7791
  720TIP3   OH223650   5.448   2.198   5.696 -0.2969  0.2535 -0.2806
  720TIP3    H123651   5.455   2.272   5.636 -1.4974  0.4969 -0.1459
  720TIP3    H223652   5.456   2.237   5.783 -1.0249  0.2664 -0.2056
  721TIP3   OH223653   5.438   4.244  11.065 -0.2698 -0.4608  0.6234
  721TIP3    H123654   5.448   4.227  11.159 -0.5969  0.3637  0.8187
  721TIP3    H223655   5.363   4.304  11.060 -0.7119 -1.0674 -0.2268
  722TIP3   OH223656   0.945   5.261  11.845 -0.2102 -0.0681  0.1859
  722TIP3    H123657   0.893   5.231  11.919  1.3936 -0.0431  1.3600
  722TIP3    H223658   0.928   5.196  11.776 -0.4646 -0.9990  1.1058
  723TIP3   OH223659   3.439   5.937  14.003 -0.3342 -0.0540 -0.5823
  723TIP3    H123660   3.395   6.020  13.984  1.2710  1.0001  0.1255
  723TIP3    H223661   3.487   5.916  13.924  0.4075  0.4586 -0.2768
  724TIP3   OH223662   6.237   5.655  14.656 -0.2211  0.5375  0.1645
  724TIP3    H123663   6.219   5.708  14.734  0.2917  0.3948  0.3893
  724TIP3    H223664   6.161   5.598  14.647 -0.3993  0.7338  0.4139
  725TIP3   OH223665   1.555   2.388  11.090  0.5401  0.0890 -0.1357
  725TIP3    H123666   1.468   2.398  11.052  0.8234 -2.0003 -1.4796
  725TIP3    H223667   1.612   2.438  11.031  0.3993  0.6347  0.1822
  726TIP3   OH223668   5.125   1.837   5.424 -0.0989 -0.3286  0.1685
  726TIP3    H123669   5.132   1.800   5.512  2.5105  1.5241  0.8718
  726TIP3    H223670   5.188   1.788   5.372  1.2324  1.0718  0.3807
  727TIP3   OH223671   0.442   0.606  11.614 -0.2822  0.0790 -0.2965
  727TIP3    H123672   0.455   0.698  11.637  0.9109 -0.2358  0.3652
  727TIP3    H223673   0.354   0.603  11.578 -1.3921  0.9921  2.1513
  728TIP3   OH223674   1.370   0.845  15.095 -0.0710  0.1370 -0.2785
  728TIP3    H123675   1.361   0.844  15.000 -2.1043  2.8668 -0.2232
  728TIP3    H223676   1.465   0.846  15.110  0.3581 -2.6348 -2.0869
  729TIP3   OH223677   2.076   6.254  16.194 -0.0692  0.2659  0.1589
  729TIP3    H123678   2.135   6.244  16.269  0.3407  1.7613  0.0571
  729TIP3    H223679   2.132   6.237  16.118 -0.0253  0.6498  0.1065
  730TIP3   OH223680   1.814   3.768  15.463 -0.6415  0.2888 -0.1544
  730TIP3    H123681   1.844   3.683  15.432 -0.1782  0.0375  0.9494
  730TIP3    H223682   1.785   3.813  15.383  3.2572  0.8342 -1.4542
  731TIP3   OH223683   0.546   1.546  12.724  0.4770 -0.0305 -0.0923
  731TIP3    H123684   0.639   1.551  12.701  0.5655 -0.1302  0.2371
  731TIP3    H223685   0.537   1.462  12.769  0.4231  0.4009  0.7262
  732TIP3   OH223686   1.357   6.070  14.716  0.4798 -0.1675  0.4971
  732TIP3    H123687   1.382   6.131  14.647 -2.7237  0.6709 -0.0854
  732TIP3    H223688   1.380   6.115  14.797  0.1126  0.8997  0.0279
  733TIP3   OH223689   5.763   5.319   1.840  0.6890 -0.9155  0.2192
  733TIP3    H123690   5.814   5.334   1.919  0.7923  0.0946 -0.0154
  733TIP3    H223691   5.683   5.370   1.853  1.4962  0.7727 -1.0574
  734TIP3   OH223692   3.271   2.360  11.250 -0.3120 -0.2540 -0.1179
  734TIP3    H123693   3.220   2.363  11.169  0.8735  0.3905 -0.8687
  734TIP3    H223694   3.362   2.356  11.221  0.0910 -1.6469  1.1851
  735TIP3   OH223695   3.150   2.377  11.685  0.1617 -0.2569 -0.1960
  735TIP3    H123696   3.096   2.300  11.673  0.6753 -0.3573 -2.1872
  735TIP3    H223697   3.236   2.353  11.650  0.3044  1.2191 -0.9756
  736TIP3   OH223698   3.316   5.095  15.939 -0.9214 -0.1588 -0.2696
  736TIP3    H123699   3.390   5.156  15.943 -0.6719 -0.4772 -0.0047
  736TIP3    H223700   3.324   5.053  15.853  1.3117 -2.7945  1.0692
  737TIP3   OH223701   0.683   5.576  14.583  0.2645 -0.1945 -0.2467
  737TIP3    H123702   0.687   5.614  14.495 -2.7653 -0.1701 -0.4819
  737TIP3    H223703   0.727   5.640  14.639 -0.1623  1.1226 -1.3646
  738TIP3   OH223704   5.758   4.567  15.563 -0.0629 -0.3592  0.3681
  738TIP3    H123705   5.697   4.522  15.622 -0.9825  0.9972  0.4780
  738TIP3    H223706   5.770   4.653  15.602  0.7138 -0.0626 -0.4983
  739TIP3   OH223707   1.366   5.139  11.296 -0.0955 -0.3124  0.3182
  739TIP3    H123708   1.412   5.176  11.221  0.0749 -1.3959 -0.1354
  739TIP3    H223709   1.434   5.127  11.362 -0.0816 -0.1595  0.3313
  740TIP3   OH223710   2.134   1.473  16.996 -0.2516 -0.4432  0.1163
  740TIP3    H123711   2.191   1.465  17.072 -1.0373  0.3802  0.8100
  740TIP3    H223712   2.076   1.547  17.016 -1.9088 -1.5519 -0.3252
  741TIP3   OH223713   2.112   6.373  16.726 -0.2131 -0.7981  1.2137
  741TIP3    H123714   2.116   6.467  16.740 -0.1457 -0.7523  0.8850
  741TIP3    H223715   2.203   6.344  16.732 -0.0495 -0.6294 -0.1525
  742TIP3   OH223716   1.072   5.919  11.131 -0.2743  0.0317  0.8409
  742TIP3    H123717   1.111   5.930  11.045 -0.4405  0.3076  0.7978
  742TIP3    H223718   1.032   5.832  11.130 -2.7287  1.0780 -0.3525
  743TIP3   OH223719   0.934   5.655  10.913  0.2709 -0.1055  0.7105
  743TIP3    H123720   1.012   5.710  10.909  1.7875 -1.9162  2.8117
  743TIP3    H223721   0.968   5.565  10.919 -1.9794 -1.0136  0.8995
  744TIP3   OH223722   0.346   4.590   4.619 -0.6150 -0.6610  0.0009
  744TIP3    H123723   0.305   4.620   4.700 -0.1367 -0.5871  0.2199
  744TIP3    H223724   0.412   4.527   4.647 -0.7426 -0.9574 -0.3640
  745TIP3   OH223725   1.912   2.720  14.955 -0.3112 -1.2064 -0.0347
  745TIP3    H123726   2.007   2.709  14.964  0.4749  2.5269 -1.8095
  745TIP3    H223727   1.897   2.721  14.860 -1.7669  0.2721  0.1628
  746TIP3   OH223728   1.086   6.420  17.230  0.1062  0.2569  0.0923
  746TIP3    H123729   1.018   6.369  17.186 -0.1445  0.9641 -0.3583
  746TIP3    H223730   1.121   6.361  17.296  0.7613 -0.9864 -1.2916
  747TIP3   OH223731   6.714   0.872  11.289  0.4266  0.4017 -0.1244
  747TIP3    H123732   6.755   0.786  11.292  1.2555  0.7499 -0.8896
  747TIP3    H223733   6.638   0.865  11.347  0.4146 -0.8713 -0.2670
  748TIP3   OH223734   6.534   6.185  12.936  0.3874 -0.1307 -0.1667
  748TIP3    H123735   6.619   6.165  12.974  0.1096 -2.6969 -0.7606
  748TIP3    H223736   6.554   6.220  12.849  0.8344 -0.0395 -0.0287
  749TIP3   OH223737   0.766   4.286   0.909 -0.3908 -0.2853 -0.0353
  749TIP3    H123738   0.845   4.260   0.862  0.1204  0.1435  0.5835
  749TIP3    H223739   0.710   4.325   0.841  1.3047  2.5289  0.0670
  750TIP3   OH223740   1.686   3.036  14.122  0.1657 -0.7022  0.2922
  750TIP3    H123741   1.731   3.120  14.132 -1.1971  0.2532 -1.2134
  750TIP3    H223742   1.755   2.975  14.094  1.1225 -0.0542  1.1579
  751TIP3   OH223743   6.725   4.158   5.719  0.3810 -0.0961  0.0434
  751TIP3    H123744   6.638   4.121   5.732  0.0428  0.3452 -0.8845
  751TIP3    H223745   6.713   4.227   5.654  1.0595  1.4191  1.4585
  752TIP3   OH223746   2.370   3.222  17.136 -0.2336  0.3687 -0.1332
  752TIP3    H123747   2.350   3.203  17.045 -0.9270 -0.4032  0.1710
  752TIP3    H223748   2.286   3.246  17.175  0.0657  0.7499  0.2913
  753TIP3   OH223749   6.018   2.307   0.350  0.2940  0.4298  0.4219
  753TIP3    H123750   5.994   2.315   0.442  0.3107  0.6052  0.4132
  753TIP3    H223751   6.105   2.346   0.344 -0.2337  1.6170  0.1074
  754TIP3   OH223752   0.095   5.766  12.915 -0.1775  0.5828  0.5556
  754TIP3    H123753   0.111   5.686  12.865  1.2554 -0.5946  2.7367
  754TIP3    H223754   0.019   5.746  12.970 -1.8446  1.9215 -1.1328
  755TIP3   OH223755   1.924   4.418  14.142  0.0378  0.0912 -0.1347
  755TIP3    H123756   1.939   4.323  14.137 -0.3590  0.0949 -2.2526
  755TIP3    H223757   1.921   4.437  14.236  0.6354 -1.9024  0.3364
  756TIP3   OH223758   1.025   3.179  15.791  0.3356  0.7544  0.0623
  756TIP3    H123759   0.972   3.153  15.716  1.7930  0.3818 -0.8731
  756TIP3    H223760   1.093   3.235  15.754  1.7240 -0.2934  0.9187
  757TIP3   OH223761   2.208   5.668   2.651 -0.2532 -0.0659  0.1865
  757TIP3    H123762   2.244   5.718   2.577  0.4004  0.5840  0.9262
  757TIP3    H223763   2.113   5.675   2.640 -0.1854 -0.7705 -1.1047
  758TIP3   OH223764   1.038   0.355   6.448 -0.2159 -0.2705 -0.2143
  758TIP3    H123765   0.995   0.318   6.525  0.3998  0.9275  0.7336
  758TIP3    H223766   0.986   0.432   6.425 -0.1519 -0.3819 -0.7484
  759TIP3   OH223767   5.034   4.858  17.026 -0.0818  0.5517 -0.3454
  759TIP3    H123768   5.020   4.818  16.940 -0.9444 -0.9675  0.4705
  759TIP3    H223769   4.989   4.801  17.087 -2.7254  3.5406  0.7715
  760TIP3   OH223770   4.033   2.642   3.921  0.0687  0.4046 -0.3922
  760TIP3    H123771   4.084   2.598   3.988 -0.1714 -1.1865 -1.1972
  760TIP3    H223772   3.948   2.658   3.962 -0.2021 -0.8967 -0.4195
  761TIP3   OH223773   3.902   5.439  15.407  0.1497 -0.1357  0.5708
  761TIP3    H123774   3.815   5.410  15.377  0.2200 -1.0462  1.2064
  761TIP3    H223775   3.903   5.533  15.390 -1.0112 -0.0919  0.6534
  762TIP3   OH223776   1.281   0.272   6.353  0.1036 -0.1602 -0.9825
  762TIP3    H123777   1.336   0.323   6.412  1.3740 -0.6390 -1.7090
  762TIP3    H223778   1.192   0.284   6.386  0.2871  2.7590 -1.3209
  763TIP3   OH223779   6.309   0.191  16.703 -0.4279 -0.1989 -0.7174
  763TIP3    H123780   6.352   0.274  16.721 -1.2647  0.2335 -0.6774
  763TIP3    H223781   6.291   0.153  16.789 -0.7027 -0.0784 -0.7217
  764TIP3   OH223782   0.061   6.465  13.602  0.0538  0.8007  0.5014
  764TIP3    H123783   0.038   6.444  13.693 -1.6084 -0.8546 -0.2530
  764TIP3    H223784   0.033   6.556  13.591 -0.9233  0.6185  1.2939
  765TIP3   OH223785   4.622   3.672   2.296 -0.2804  0.5650  0.2745
  765TIP3    H123786   4.690   3.694   2.232  1.5546 -2.2850  1.0607
  765TIP3    H223787   4.664   3.684   2.381 -1.2083  0.0393  0.8231
  766TIP3   OH223788   4.176   4.959   5.799  0.2903  0.4700  0.2889
  766TIP3    H123789   4.127   5.012   5.862  0.0263  0.2516  0.2662
  766TIP3    H223790   4.226   4.898   5.853  2.1258  1.9841  0.4504
  767TIP3   OH223791   3.263   1.407   0.189 -0.0259  0.1881  0.0417
  767TIP3    H123792   3.299   1.380   0.104 -0.1030  0.8494 -0.2014
  767TIP3    H223793   3.193   1.344   0.207  0.7917 -0.7018  0.1970
  768TIP3   OH223794   1.600   0.782  13.795 -0.0390  0.1809 -0.5405
  768TIP3    H123795   1.536   0.773  13.865  2.9605  1.2861  2.6822
  768TIP3    H223796   1.658   0.706  13.805  0.8396  0.7105 -1.3861
  769TIP3   OH223797   6.346   1.090   0.039  0.1869 -0.1320  0.5891
  769TIP3    H123798   6.345   1.017   0.101  1.2049 -0.3895  0.3120
  769TIP3    H223799   6.341   1.048  -0.047  1.2408  0.0901  0.4124
  770TIP3   OH223800   5.004   3.462  17.259 -0.0418  0.2882 -0.3691
  770TIP3    H123801   4.938   3.498  17.200  0.3643  1.3875 -0.1676
  770TIP3    H223802   5.055   3.537  17.288  0.4748 -0.3767  0.5141
  771TIP3   OH223803   6.250   1.538  12.107 -0.1519  1.1105  0.6647
  771TIP3    H123804   6.176   1.494  12.150 -0.6045  0.4004 -0.7769
  771TIP3    H223805   6.246   1.508  12.017  3.3016 -0.8273  0.9991
  772TIP3   OH223806   5.270   0.763   1.475  0.1821 -0.0613  0.1865
  772TIP3    H123807   5.322   0.764   1.394 -0.3304 -0.6353 -0.1541
  772TIP3    H223808   5.260   0.671   1.496 -1.7408 -0.0319 -0.4413
  773TIP3   OH223809   0.244   5.830   3.303 -0.3281  0.4083 -0.1852
  773TIP3    H123810   0.258   5.876   3.220  1.0434  1.2709  0.4802
  773TIP3    H223811   0.173   5.878   3.346  1.2235  2.1350  0.5933
  774TIP3   OH223812   6.645   0.542  12.067 -0.4959 -0.1896  0.5123
  774TIP3    H123813   6.667   0.633  12.088 -0.4464 -0.4525  1.6597
  774TIP3    H223814   6.630   0.542  11.972 -0.8246  1.0739  0.5516
  775TIP3   OH223815   0.034   6.543   6.539  0.2639  0.1562 -0.2256
  775TIP3    H123816   0.067   6.602   6.472  1.2235 -0.3486 -0.2173
  775TIP3    H223817   0.097   6.549   6.611  0.1110 -0.4965 -0.0226
  776TIP3   OH223818   5.074   5.135   0.397  0.4950  0.6306 -0.0906
  776TIP3    H123819   5.144   5.116   0.334  0.7378  0.0823  0.3383
  776TIP3    H223820   5.018   5.057   0.394  1.2069  0.0286  1.3008
  777TIP3   OH223821   3.771   6.188   5.633  0.1543 -0.1759 -0.0649
  777TIP3    H123822   3.822   6.186   5.714 -0.0737 -0.2268  0.0784
  777TIP3    H223823   3.682   6.166   5.661  0.0376  0.0046 -0.2993
  778TIP3   OH223824   4.053   6.314  11.010  0.1237 -0.0498  0.2719
  778TIP3    H123825   4.034   6.408  11.002  0.4126  0.0979  1.2115
  778TIP3    H223826   4.027   6.278  10.925  0.3441  0.9312 -0.2379
  779TIP3   OH223827   4.377   6.735   6.356  0.5895  0.5539 -0.1471
  779TIP3    H123828   4.413   6.730   6.444 -0.6531 -0.7557  0.3155
  779TIP3    H223829   4.432   6.676   6.304  0.2692  0.0045  0.1357
  780TIP3   OH223830   0.679   0.357  11.942  0.4429 -0.0595  0.3691
  780TIP3    H123831   0.761   0.405  11.930  0.6940  0.0932  2.4355
  780TIP3    H223832   0.695   0.272  11.899  1.4866  0.1656  0.2786
  781TIP3   OH223833   1.079   3.751  14.806  0.0065  0.3228  0.1192
  781TIP3    H123834   1.022   3.827  14.796  0.2106  0.4111 -0.4033
  781TIP3    H223835   1.112   3.757  14.896 -1.2377 -0.0354  0.6226
  782TIP3   OH223836   0.796   6.327   4.423 -0.1881 -0.2724 -0.0392
  782TIP3    H123837   0.828   6.364   4.341  1.6536 -1.3155  0.1693
  782TIP3    H223838   0.708   6.295   4.402  0.1067 -0.2083 -1.5022
  783TIP3   OH223839   2.241   4.230  13.152  0.2541 -0.0568 -0.3040
  783TIP3    H123840   2.264   4.190  13.236 -2.0968  0.4691  0.6607
  783TIP3    H223841   2.321   4.275  13.124  1.0410 -0.0908  1.7238
  784TIP3   OH223842   2.368   3.758  15.812 -0.0860 -0.0359 -0.4559
  784TIP3    H123843   2.456   3.737  15.783 -0.3600  0.1432 -1.4468
  784TIP3    H223844   2.320   3.777  15.732 -1.2235 -0.8415  0.0061
  785TIP3   OH223845   0.013   0.157  16.446 -0.0577 -0.1927  0.1346
  785TIP3    H123846   0.105   0.134  16.458  0.0630 -0.5863 -1.3352
  785TIP3    H223847   0.012   0.252  16.441  0.0858 -0.1082  1.3817
  786TIP3   OH223848   4.443   1.359   6.243 -0.2219 -0.7878 -0.1880
  786TIP3    H123849   4.527   1.336   6.284  1.0337  1.1704 -1.4478
  786TIP3    H223850   4.427   1.449   6.270 -1.3933 -0.7861 -0.8187
  787TIP3   OH223851   1.899   2.403  12.747  0.6474  0.6376 -0.4110
  787TIP3    H123852   1.973   2.383  12.689  0.2973  0.0781 -0.6711
  787TIP3    H223853   1.928   2.479  12.797  0.8961  1.2297 -1.4319
  788TIP3   OH223854   4.554   0.918  17.185 -0.0821 -0.1957 -0.4113
  788TIP3    H123855   4.569   0.831  17.222 -0.8179  0.5417  1.7405
  788TIP3    H223856   4.459   0.925  17.178 -0.0768  0.8062  0.3992
  789TIP3   OH223857   4.001   3.315   3.846 -0.0955  0.1136 -0.1449
  789TIP3    H123858   4.065   3.289   3.912  1.7842  2.2965 -0.9695
  789TIP3    H223859   3.937   3.368   3.895 -1.0891 -1.6772  0.5896
  790TIP3   OH223860   6.486   6.602  13.917  0.2463  0.5304  0.2101
  790TIP3    H123861   6.515   6.606  14.008  0.4161  0.5612  0.1547
  790TIP3    H223862   6.455   6.512  13.906  3.1265 -0.4778 -0.5752
  791TIP3   OH223863   3.488   6.074   5.990  0.4052 -0.0020 -0.1713
  791TIP3    H123864   3.448   6.057   6.076  0.9340  2.1650  0.5706
  791TIP3    H223865   3.581   6.084   6.010  0.8766 -1.7022 -1.3762
  792TIP3   OH223866   5.737   4.591  11.058  0.2130 -0.1470  0.8115
  792TIP3    H123867   5.717   4.657  10.992 -0.1599 -2.2840 -1.3718
  792TIP3    H223868   5.824   4.615  11.091  0.5231  0.8870 -0.6595
  793TIP3   OH223869   2.357   0.797   1.781  0.0382  0.0935  0.3834
  793TIP3    H123870   2.446   0.801   1.744 -0.7912 -0.4504 -1.8574
  793TIP3    H223871   2.353   0.712   1.823  0.4565 -0.0775  0.0934
  794TIP3   OH223872   5.339   4.063   1.475  0.7394  0.5453 -0.4918
  794TIP3    H123873   5.263   4.022   1.433  1.2004  2.0425 -3.0147
  794TIP3    H223874   5.340   4.027   1.563 -2.7959  0.2967 -0.3942
  795TIP3   OH223875   5.564   3.388   0.824  0.1261 -0.1953 -0.8776
  795TIP3    H123876   5.567   3.293   0.811 -1.4999 -0.0758 -2.6300
  795TIP3    H223877   5.482   3.403   0.872 -0.2288  0.3927 -1.6457
  796TIP3   OH223878   6.546   5.192  17.209  0.0321 -0.2895 -0.2765
  796TIP3    H123879   6.473   5.252  17.227  1.1374  0.8750  0.5463
  796TIP3    H223880   6.600   5.197  17.288  1.0096 -1.1156 -0.8707
  797TIP3   OH223881   0.769   2.659  12.975  0.7971  0.2487 -0.4205
  797TIP3    H123882   0.788   2.652  13.069 -1.3109 -2.7623 -0.1024
  797TIP3    H223883   0.685   2.705  12.971  0.6621 -0.0290 -0.8071
  798TIP3   OH223884   1.383   4.946  15.240 -0.2774  0.0220  0.5737
  798TIP3    H123885   1.382   4.989  15.325 -0.1627 -1.5226  1.3964
  798TIP3    H223886   1.471   4.961  15.206  0.2479 -0.7925  1.5270
  799TIP3   OH223887   5.991   3.955   3.034  0.0929  0.9306 -0.5656
  799TIP3    H123888   5.984   3.866   3.001 -0.7986  1.3255 -1.4689
  799TIP3    H223889   5.953   3.952   3.122 -0.6442  0.5746 -0.8921
  800TIP3   OH223890   5.086   1.959   2.865  0.2322 -0.2617  0.2329
  800TIP3    H123891   5.154   1.916   2.814  0.8000  0.3895  0.4312
  800TIP3    H223892   5.014   1.895   2.867  0.0262 -0.1593 -1.6991
  801TIP3   OH223893   6.128   4.778   6.437 -0.3193  0.5163  0.2782
  801TIP3    H123894   6.193   4.816   6.378 -1.7133 -0.5833 -2.1397
  801TIP3    H223895   6.150   4.685   6.441 -0.4738  0.5048  1.2258
  802TIP3   OH223896   6.223   3.404  13.926  0.3714 -0.5491 -0.3863
  802TIP3    H123897   6.156   3.431  13.989  3.3654 -0.0593  2.8620
  802TIP3    H223898   6.252   3.318  13.958  1.6185 -0.5264 -1.3925
  803TIP3   OH223899   1.613   5.603  15.052  0.1190  0.0217  0.3190
  803TIP3    H123900   1.626   5.522  15.101  0.1919 -2.4487 -3.4185
  803TIP3    H223901   1.518   5.617  15.053 -0.0020 -0.7553  0.0626
  804TIP3   OH223902   4.360   0.507  14.161  0.4849 -0.0485  0.5763
  804TIP3    H123903   4.384   0.456  14.084 -2.9245 -0.9084 -0.0806
  804TIP3    H223904   4.338   0.594  14.127 -0.8712 -0.3838  0.5413
  805TIP3   OH223905   6.023   0.188  15.808 -0.0363 -0.3709 -0.4650
  805TIP3    H123906   5.949   0.148  15.762 -0.3281 -2.3047  1.4601
  805TIP3    H223907   6.097   0.181  15.748 -1.0804  0.2493 -1.8626
  806TIP3   OH223908   3.810   0.509   3.821 -0.3102  0.0503 -0.1064
  806TIP3    H123909   3.742   0.521   3.887  2.0711 -0.4183  2.6818
  806TIP3    H223910   3.842   0.597   3.802 -0.1064  0.0962  0.4395
  807TIP3   OH223911   0.677   2.313   3.746  0.1625  0.3937  0.2555
  807TIP3    H123912   0.670   2.305   3.841  0.0958  0.9069  0.2950
  807TIP3    H223913   0.756   2.365   3.732  0.8707 -0.7051 -0.0155
  808TIP3   OH223914   5.796   4.946   1.434 -0.0679  0.0532 -0.0738
  808TIP3    H123915   5.773   5.004   1.507  0.7878  1.6547 -1.0113
  808TIP3    H223916   5.881   4.910   1.459 -0.6272 -0.8792  0.5370
  809TIP3   OH223917   4.692   3.451  12.018  0.4564  0.0170 -0.2425
  809TIP3    H123918   4.636   3.495  11.954 -0.4155 -1.6373 -0.6901
  809TIP3    H223919   4.632   3.432  12.091  1.6082  2.6330  1.5530
  810TIP3   OH223920   5.767   2.602  16.376 -0.3644 -0.1476  0.8291
  810TIP3    H123921   5.750   2.614  16.470 -2.4081  2.1145  0.2706
  810TIP3    H223922   5.689   2.557  16.343  1.2893 -3.0216  0.4680
  811TIP3   OH223923   6.311   2.227   2.288 -1.0878 -0.0591 -0.6249
  811TIP3    H123924   6.299   2.278   2.208  1.3691  0.3871 -0.8064
  811TIP3    H223925   6.358   2.286   2.347 -1.4308 -0.9175  0.5357
  812TIP3   OH223926   6.773   1.684  16.615  0.3466  0.4168  0.6705
  812TIP3    H123927   6.854   1.732  16.599 -0.1663  0.7465 -1.1495
  812TIP3    H223928   6.703   1.749  16.605 -0.2587 -0.3282 -0.0415
  813TIP3   OH223929   3.174   1.681  11.263 -0.3383 -0.3928  0.3115
  813TIP3    H123930   3.181   1.744  11.191 -0.4264  1.2627  1.6904
  813TIP3    H223931   3.087   1.644  11.255 -0.6487  0.3781  0.0191
  814TIP3   OH223932   4.894   2.152   1.031  0.6963  0.2292 -0.2372
  814TIP3    H123933   4.886   2.238   0.989  2.6290  0.3664 -0.4058
  814TIP3    H223934   4.884   2.170   1.124  1.0246  0.6326 -0.2762
  815TIP3   OH223935   4.408   5.455   5.796  0.0093 -0.6159  0.7055
  815TIP3    H123936   4.394   5.513   5.871  0.4763 -1.0307  1.1212
  815TIP3    H223937   4.444   5.512   5.728  0.9458 -0.5038  1.2767
  816TIP3   OH223938   6.332   2.653   4.267  0.0600 -0.8425 -0.0207
  816TIP3    H123939   6.353   2.742   4.296 -0.4073 -0.7718  0.1095
  816TIP3    H223940   6.245   2.636   4.304 -0.3711 -0.9049 -1.0391
  817TIP3   OH223941   1.024   0.302   0.735  0.5410 -0.4591 -0.1269
  817TIP3    H123942   1.043   0.212   0.710  0.2447 -0.4147 -0.5290
  817TIP3    H223943   1.024   0.351   0.653 -1.0276 -0.4203 -0.1424
  818TIP3   OH223944   4.064   6.797  12.158  0.9012  0.0934  0.3620
  818TIP3    H123945   4.078   6.889  12.182  0.9486 -0.0938  1.0939
  818TIP3    H223946   3.998   6.800  12.089  2.0095  0.7643 -0.7051
  819TIP3   OH223947   2.160   3.628   5.430  0.0344 -0.2539  1.0277
  819TIP3    H123948   2.075   3.635   5.475  0.3221 -1.5239  1.8073
  819TIP3    H223949   2.152   3.549   5.377  0.1484  0.5521 -0.2398
  820TIP3   OH223950   5.041   1.646   2.965 -0.1747 -1.0677 -0.3443
  820TIP3    H123951   5.102   1.591   3.014  1.4844 -0.3398 -1.5017
  820TIP3    H223952   5.030   1.724   3.020 -2.8851 -2.5750  1.5194
  821TIP3   OH223953   3.768   1.655   5.135 -0.1091 -0.4481  0.4218
  821TIP3    H123954   3.726   1.637   5.219  0.4105  2.5854  1.4504
  821TIP3    H223955   3.720   1.601   5.072 -2.8428 -0.2386  2.1674
  822TIP3   OH223956   1.007   1.332   0.357  0.0718 -0.5347 -0.2842
  822TIP3    H123957   1.081   1.375   0.315  0.7022 -2.2542 -1.0257
  822TIP3    H223958   0.945   1.317   0.285 -1.6155  1.9693  0.5217
  823TIP3   OH223959   3.855   5.042  12.462 -0.7933  0.1637  0.4582
  823TIP3    H123960   3.892   5.057  12.549 -0.1533  0.8042  0.0876
  823TIP3    H223961   3.921   4.991  12.416 -0.0905  1.7293 -0.3694
  824TIP3   OH223962   0.844   5.382   1.150  0.4169 -0.8383 -0.3875
  824TIP3    H123963   0.777   5.398   1.084  0.5391 -0.8026 -0.5015
  824TIP3    H223964   0.926   5.383   1.102  0.5597 -0.1446 -0.1292
  825TIP3   OH223965   6.472   0.254   1.911 -0.7260 -0.4637 -0.1154
  825TIP3    H123966   6.546   0.264   1.852 -0.5996  2.6444  0.4013
  825TIP3    H223967   6.410   0.198   1.863  0.7287 -0.7318 -1.7658
  826TIP3   OH223968   2.960   6.148  12.559 -1.3202 -0.2490 -0.2067
  826TIP3    H123969   3.013   6.107  12.627 -2.8825 -0.8494  0.7018
  826TIP3    H223970   3.012   6.138  12.479  0.3941  0.1567  0.8070
  827TIP3   OH223971   5.757   4.874   4.439  0.2569 -0.6478 -0.3107
  827TIP3    H123972   5.798   4.790   4.458  1.7072  0.2760  0.7896
  827TIP3    H223973   5.726   4.905   4.524 -1.0021 -0.4166 -0.8296
  828TIP3   OH223974   4.844   2.434  14.252  0.1660  0.2488 -0.2274
  828TIP3    H123975   4.911   2.388  14.202 -0.2668 -0.4756 -0.1599
  828TIP3    H223976   4.769   2.374  14.253  0.0431  0.3937  0.9904
  829TIP3   OH223977   3.357   2.319   0.101 -0.1599 -0.1064 -0.6295
  829TIP3    H123978   3.373   2.336   0.193 -0.0096 -0.0211 -0.6715
  829TIP3    H223979   3.428   2.365   0.055  2.1359 -3.3458 -0.6185
  830TIP3   OH223980   0.922   4.651  14.506 -0.3474  0.5061 -0.2441
  830TIP3    H123981   0.875   4.650  14.589  0.0898 -1.3615  0.0257
  830TIP3    H223982   0.996   4.592  14.520  1.4117  2.3940 -1.0444
  831TIP3   OH223983   1.453   4.874   4.244 -0.2401 -0.1217 -0.2176
  831TIP3    H123984   1.428   4.932   4.315 -0.3170 -0.0700 -0.2864
  831TIP3    H223985   1.499   4.801   4.286 -3.7335 -2.1958  0.3835
  832TIP3   OH223986   3.557   3.370  14.839  0.1448  0.2700 -0.1669
  832TIP3    H123987   3.651   3.353  14.828  0.7169  0.7756  2.9428
  832TIP3    H223988   3.519   3.284  14.857  0.2672  0.2309 -0.0904
  833TIP3   OH223989   2.756   1.103   5.092 -0.0938 -0.1463 -0.0743
  833TIP3    H123990   2.821   1.157   5.048  0.3317 -1.3950 -1.0455
  833TIP3    H223991   2.672   1.132   5.055  0.1854 -0.5874 -1.1017
  834TIP3   OH223992   6.190   3.406   1.269  0.0911  0.5345 -0.4171
  834TIP3    H123993   6.192   3.310   1.279 -1.1924  0.4429 -0.9555
  834TIP3    H223994   6.283   3.431   1.270  0.4768 -0.7712 -0.7699
  835TIP3   OH223995   1.988   3.575  17.108 -0.2913 -0.1158  0.5011
  835TIP3    H123996   2.057   3.527  17.063 -1.3382 -0.3247 -0.9340
  835TIP3    H223997   2.009   3.668  17.093  0.1500 -0.1606  0.8245
  836TIP3   OH223998   3.453   5.208  14.026  0.1848  0.0786  0.6647
  836TIP3    H123999   3.481   5.132  13.974  0.3572 -0.0417  0.9301
  836TIP3    H224000   3.531   5.263  14.032  0.3037 -0.1487  1.2149
  837TIP3   OH224001   1.738   5.873   2.861  0.5816  0.3336 -0.7329
  837TIP3    H124002   1.798   5.876   2.935  2.8956  3.2249 -2.4987
  837TIP3    H224003   1.670   5.938   2.883  0.0273 -0.3951 -0.2503
  838TIP3   OH224004   5.913   2.320  15.714 -0.1294 -0.2046 -0.4230
  838TIP3    H124005   5.999   2.289  15.742 -0.1542 -1.1883 -1.3721
  838TIP3    H224006   5.917   2.415  15.725  0.6708 -0.3414  0.6224
  839TIP3   OH224007   5.259   5.679   1.200 -0.0242 -0.7220  0.1295
  839TIP3    H124008   5.199   5.660   1.127  1.3166 -0.3571 -1.1251
  839TIP3    H224009   5.269   5.774   1.198 -0.5522 -0.6221  1.3094
  840TIP3   OH224010   3.439   6.527  13.444 -0.1370  0.2517  0.5066
  840TIP3    H124011   3.456   6.562  13.532  0.8044  0.3086  0.3207
  840TIP3    H224012   3.353   6.560  13.421  0.3974  1.8432  0.6446
  841TIP3   OH224013   2.827   3.326  14.379  0.2060  0.0335  0.2819
  841TIP3    H124014   2.749   3.286  14.418  0.7042 -0.4391  0.8055
  841TIP3    H224015   2.837   3.408  14.427 -0.5208  0.5720 -0.4482
  842TIP3   OH224016   5.870   4.641   3.210  0.1703  0.4077  0.7663
  842TIP3    H124017   5.777   4.643   3.234  0.0123 -0.2574  0.2268
  842TIP3    H224018   5.899   4.732   3.219 -0.9990  0.9804 -0.8393
  843TIP3   OH224019   1.865   0.414  12.475  0.2432  0.1811  0.2904
  843TIP3    H124020   1.862   0.372  12.561 -1.5631 -0.4441 -0.0281
  843TIP3    H224021   1.855   0.508  12.493  1.4341  0.2224  0.8291
  844TIP3   OH224022   0.950   1.871  13.502  0.0161  0.0402 -0.0946
  844TIP3    H124023   1.019   1.811  13.473  0.7049 -0.0831  1.6877
  844TIP3    H224024   0.995   1.955  13.513 -0.5089  0.3963 -0.5732
  845TIP3   OH224025   3.845   6.013  14.559 -0.6793 -0.2248 -0.3045
  845TIP3    H124026   3.899   5.935  14.574 -0.2376  0.0887 -0.2635
  845TIP3    H224027   3.907   6.084  14.549 -0.8887 -0.3304 -3.4865
  846TIP3   OH224028   6.029   0.161   5.452 -0.0866  0.4707  0.3656
  846TIP3    H124029   6.003   0.181   5.362  0.9138 -0.1288 -0.0794
  846TIP3    H224030   5.973   0.216   5.506 -2.7811 -1.2714 -0.4702
  847TIP3   OH224031   6.704   5.064  11.284 -0.4769  0.2957 -0.5463
  847TIP3    H124032   6.649   5.133  11.322  0.8020  1.7143 -1.1597
  847TIP3    H224033   6.749   5.026  11.360 -0.6542  0.6085 -0.2792
  848TIP3   OH224034   0.489   4.611   0.722  0.0100 -0.4102  0.7486
  848TIP3    H124035   0.534   4.528   0.707 -0.3863 -0.4576 -0.2625
  848TIP3    H224036   0.402   4.598   0.683 -0.2011  0.3376  0.9547
  849TIP3   OH224037   4.808   6.381   1.861 -0.1416 -0.2328 -0.1471
  849TIP3    H124038   4.802   6.348   1.950  1.1701  1.0925  0.4625
  849TIP3    H224039   4.851   6.311   1.812 -2.0320 -1.5142 -0.0954
  850TIP3   OH224040   5.580   4.106  15.652  0.5814 -0.0513 -0.1687
  850TIP3    H124041   5.606   4.052  15.726 -2.0192 -1.6045 -0.2928
  850TIP3    H224042   5.562   4.044  15.582  2.5174  1.3545 -2.0436
  851TIP3   OH224043   2.895   3.939   2.810  0.1758  0.0724  0.5871
  851TIP3    H124044   2.849   3.878   2.868 -1.1455  0.2950 -0.1776
  851TIP3    H224045   2.962   3.980   2.865  0.8957 -1.8331  1.1860
  852TIP3   OH224046   5.832   3.973  14.145  0.4559  0.0866  0.5254
  852TIP3    H124047   5.812   4.003  14.057 -1.1608 -1.1778  0.4045
  852TIP3    H224048   5.813   4.049  14.201 -1.9261 -0.0969  0.0802
  853TIP3   OH224049   0.520   5.301  12.849  0.3833  0.0702  0.2240
  853TIP3    H124050   0.434   5.316  12.886  0.2471 -0.1500  0.0052
  853TIP3    H224051   0.569   5.381  12.867  0.6261 -0.3989  1.7122
  854TIP3   OH224052   6.299   4.063  16.013 -0.7548  0.1418 -0.2636
  854TIP3    H124053   6.358   4.138  16.019 -0.1316 -0.4149  0.7481
  854TIP3    H224054   6.215   4.101  15.988 -0.6710  1.2948  1.1264
  855TIP3   OH224055   5.500   5.014   5.134 -0.1559 -0.0133 -0.1410
  855TIP3    H124056   5.517   4.949   5.202  0.2563 -0.0365 -0.2696
  855TIP3    H224057   5.449   4.968   5.068 -0.9308  0.1164  0.3462
  856TIP3   OH224058   5.486   5.175  13.823 -0.6118 -0.1612 -0.2160
  856TIP3    H124059   5.528   5.197  13.740 -1.3755 -2.4565 -1.2819
  856TIP3    H224060   5.553   5.195  13.889  0.6138  0.1529 -1.5112
  857TIP3   OH224061   6.287   6.602   2.569  0.1091  0.3193 -0.4898
  857TIP3    H124062   6.340   6.523   2.561  0.1251  0.1293  1.3001
  857TIP3    H224063   6.343   6.664   2.615 -0.2402  1.0678 -1.0464
  858TIP3   OH224064   6.169   2.388  14.274 -0.4468 -0.2932 -0.0916
  858TIP3    H124065   6.105   2.444  14.318 -0.8108  0.0858 -1.0760
  858TIP3    H224066   6.220   2.349  14.345 -1.5935 -0.3877  0.7034
  859TIP3   OH224067   5.647   0.397  12.380  0.5882 -0.1898 -0.7980
  859TIP3    H124068   5.610   0.357  12.458  1.7172 -0.7286 -0.5196
  859TIP3    H224069   5.666   0.324  12.322  0.2932  0.1603 -1.3516
  860TIP3   OH224070   4.512   5.118  14.005  0.0586 -0.4128 -0.5088
  860TIP3    H124071   4.457   5.041  13.992 -0.1822 -0.4495  0.5878
  860TIP3    H224072   4.601   5.087  13.989 -0.0792 -0.8073 -0.5221
  861TIP3   OH224073   2.051   0.733  16.579 -0.3372  0.1877  0.0368
  861TIP3    H124074   2.087   0.779  16.655  1.2038  0.8407 -1.0266
  861TIP3    H224075   2.099   0.770  16.505  0.1418 -2.3443 -0.9911
  862TIP3   OH224076   6.822   6.214  17.136 -0.1647 -0.0390 -0.0324
  862TIP3    H124077   6.779   6.230  17.220 -0.0184 -0.6786  0.1688
  862TIP3    H224078   6.915   6.204  17.159  0.0048  0.6511 -0.3797
  863TIP3   OH224079   0.952   3.740  16.663  0.0489  0.0208 -0.3853
  863TIP3    H124080   0.919   3.683  16.733 -1.4823  0.9678 -0.2974
  863TIP3    H224081   0.948   3.686  16.584 -1.1876 -0.0963 -0.2626
  864TIP3   OH224082   5.374   2.716   5.534 -0.3456 -0.0857 -0.4705
  864TIP3    H124083   5.306   2.649   5.538 -1.5616  1.1527  0.9952
  864TIP3    H224084   5.331   2.792   5.494 -0.6519  1.5139  2.6200
  865TIP3   OH224085   4.320   0.161   2.512 -0.2507 -0.0679  0.2604
  865TIP3    H124086   4.356   0.183   2.426 -0.8990  0.6047  0.1577
  865TIP3    H224087   4.398   0.147   2.566  0.2003 -2.0872 -0.7973
  866TIP3   OH224088   0.422   5.800   3.867 -0.3150  0.2347  0.1234
  866TIP3    H124089   0.363   5.825   3.796  0.1203 -1.2914 -0.8128
  866TIP3    H224090   0.410   5.706   3.877  0.6391  0.1973  1.1572
  867TIP3   OH224091   2.424   4.614   6.532 -0.1865 -0.1171  0.0690
  867TIP3    H124092   2.473   4.550   6.481 -0.5270  0.7022 -1.3344
  867TIP3    H224093   2.332   4.596   6.513 -0.3299  0.1269  0.4982
  868TIP3   OH224094   5.593   0.458   2.820  0.4972 -0.1462 -0.4120
  868TIP3    H124095   5.606   0.530   2.882 -0.4610 -1.7621  1.8067
  868TIP3    H224096   5.522   0.488   2.764  0.9610  1.1171 -0.3728
  869TIP3   OH224097   3.833   6.769  14.284 -0.3238  0.5266  0.1445
  869TIP3    H124098   3.832   6.774  14.379 -0.9434 -2.4234  0.4156
  869TIP3    H224099   3.919   6.733  14.262 -1.0292 -1.1258 -0.1222
  870TIP3   OH224100   6.010   5.887   1.669  0.1778  0.1437 -0.1660
  870TIP3    H124101   5.985   5.950   1.736 -0.0177  0.0566 -0.1563
  870TIP3    H224102   6.062   5.822   1.716 -0.3339 -0.1596 -0.0056
  871TIP3   OH224103   0.573   4.278   2.965  0.1447 -0.1602 -0.1107
  871TIP3    H124104   0.502   4.215   2.949  0.3146 -0.6280  0.8888
  871TIP3    H224105   0.531   4.351   3.009 -0.1948  0.8194 -1.9372
  872TIP3   OH224106   0.768   1.603   5.761 -0.5488  0.1440  0.3887
  872TIP3    H124107   0.729   1.640   5.682  3.2812  1.0852 -1.3061
  872TIP3    H224108   0.711   1.633   5.832 -2.6908  1.5224 -1.7534
  873TIP3   OH224109   6.314   1.477  15.174  0.5863  0.2334  1.0475
  873TIP3    H124110   6.232   1.524  15.188 -0.4604 -0.6478 -1.4402
  873TIP3    H224111   6.357   1.524  15.102  0.0560 -1.8152 -0.7236
  874TIP3   OH224112   4.224   5.576   4.396  0.2048  0.1139  0.2682
  874TIP3    H124113   4.224   5.515   4.470 -0.4201  0.8109  0.8663
  874TIP3    H224114   4.133   5.574   4.365  0.3223  0.2984 -0.0829
  875TIP3   OH224115   6.375   3.390  11.162 -0.1294  0.0850 -0.0073
  875TIP3    H124116   6.455   3.349  11.195 -0.7309 -0.4984  0.7465
  875TIP3    H224117   6.317   3.317  11.141  0.3127  0.3872 -2.7021
  876TIP3   OH224118   5.308   4.306   4.129 -0.0017  0.0113  0.2693
  876TIP3    H124119   5.291   4.377   4.067 -1.1736  0.3042  0.8940
  876TIP3    H224120   5.287   4.226   4.081  2.1415 -0.0135 -0.7194
  877TIP3   OH224121   2.935   0.141   5.613 -0.2180  0.1780 -0.0589
  877TIP3    H124122   2.891   0.097   5.540 -0.0978 -1.1220  0.6185
  877TIP3    H224123   2.905   0.231   5.609 -0.8648 -0.0762 -1.2116
  878TIP3   OH224124   5.670   1.398  15.589  0.0264 -0.0300 -0.0619
  878TIP3    H124125   5.627   1.421  15.507 -1.9213  1.1525  1.2057
  878TIP3    H224126   5.748   1.454  15.592 -0.2233  0.3687 -0.8275
  879TIP3   OH224127   3.399   0.267   0.440 -0.0892  0.4407 -0.4057
  879TIP3    H124128   3.404   0.174   0.462  1.2186  0.9078  1.5919
  879TIP3    H224129   3.306   0.289   0.447 -0.1444 -0.2230  1.6161
  880TIP3   OH224130   1.826   3.532  16.810  0.2680 -0.2017  0.1670
  880TIP3    H124131   1.896   3.581  16.767 -0.1175 -0.3160 -0.5947
  880TIP3    H224132   1.796   3.469  16.745  0.4127 -1.1290  0.9636
  881TIP3   OH224133   6.695   1.590   3.281  0.1472 -0.3933  0.8564
  881TIP3    H124134   6.769   1.630   3.327 -0.3732 -0.4082  1.7371
  881TIP3    H224135   6.727   1.574   3.193  1.9073 -2.3684  1.7807
  882TIP3   OH224136   2.016   6.531   4.606  0.4276  0.2365 -0.8791
  882TIP3    H124137   2.020   6.479   4.686  0.5139  1.3615 -0.1309
  882TIP3    H224138   1.963   6.478   4.546 -1.8087  0.4682  0.7668
  883TIP3   OH224139   0.641   4.031  11.128  0.1085 -0.0832  0.1853
  883TIP3    H124140   0.732   4.051  11.103  0.2980 -1.3927 -0.2690
  883TIP3    H224141   0.588   4.082  11.067  0.5479 -0.0142 -0.1524
  884TIP3   OH224142   2.458   0.483   5.914 -0.2999  0.0026 -0.5300
  884TIP3    H124143   2.407   0.431   5.976 -0.2811  0.0906 -0.4411
  884TIP3    H224144   2.458   0.571   5.950 -0.6776  0.1542 -0.8969
  885TIP3   OH224145   1.020   5.175   4.539 -0.7015 -0.2404 -0.3446
  885TIP3    H124146   1.112   5.146   4.539  0.3390  2.6422  0.8185
  885TIP3    H224147   0.976   5.116   4.599  0.8411 -0.5543  0.5387
  886TIP3   OH224148   1.271   3.817   4.493 -0.0955  0.4122  0.2600
  886TIP3    H124149   1.178   3.836   4.499  0.0303  0.5770  2.1329
  886TIP3    H224150   1.275   3.725   4.465 -0.8585 -0.0737  1.6787
  887TIP3   OH224151   3.720   5.684   0.743  0.3886  0.4409  0.9197
  887TIP3    H124152   3.717   5.764   0.692 -0.3277  0.0355  0.3125
  887TIP3    H224153   3.671   5.620   0.691 -0.0484 -0.0771  1.9416
  888TIP3   OH224154   2.241   6.398  14.288  0.1182  0.0286  0.0433
  888TIP3    H124155   2.245   6.304  14.270  1.3243 -0.3028  1.8486
  888TIP3    H224156   2.174   6.407  14.356 -0.4223  0.5650 -0.5483
  889TIP3   OH224157   6.100   6.815  14.743 -0.9975 -0.6360 -0.5570
  889TIP3    H124158   6.074   6.780  14.828 -2.1190  1.6528  0.1457
  889TIP3    H224159   6.047   6.895  14.733 -0.6695 -0.6581 -3.2690
  890TIP3   OH224160   5.882   2.930  13.129 -0.6407 -0.1898  0.2719
  890TIP3    H124161   5.903   2.861  13.065 -0.2746 -0.5086  0.7269
  890TIP3    H224162   5.901   2.890  13.214 -0.3013  0.5131  0.5391
  891TIP3   OH224163   6.823   2.801   4.145  0.1808  0.2518 -0.8792
  891TIP3    H124164   6.813   2.823   4.052 -1.3806  0.7824 -0.6066
  891TIP3    H224165   6.861   2.880   4.184  0.0925  0.3188 -0.9288
  892TIP3   OH224166   3.644   2.810  16.054  0.3638 -0.0828  0.3534
  892TIP3    H124167   3.607   2.742  16.111  2.4677 -1.2431  0.4168
  892TIP3    H224168   3.702   2.763  15.995 -0.2116  1.3643 -1.4557
  893TIP3   OH224169   2.909   2.499   5.039 -0.0884 -0.0103  0.1388
  893TIP3    H124170   2.976   2.508   5.108 -0.6676 -1.5730  0.9481
  893TIP3    H224171   2.933   2.419   4.992  0.3752  1.1068 -1.6150
  894TIP3   OH224172   6.023   3.925  13.732  0.2389 -0.2690  0.1571
  894TIP3    H124173   6.093   3.879  13.686 -0.0880 -3.2125  2.3283
  894TIP3    H224174   6.009   3.874  13.812 -2.0201  2.2138  1.5073
  895TIP3   OH224175   4.623   1.101  14.741 -0.4123 -0.3353  0.2231
  895TIP3    H124176   4.670   1.019  14.735 -2.4989 -1.7042  1.3623
  895TIP3    H224177   4.673   1.153  14.804  1.5419 -0.2174 -1.3367
  896TIP3   OH224178   6.159   6.556   1.061 -0.7692  0.0035  0.4891
  896TIP3    H124179   6.179   6.555   1.154  2.5949  2.6573 -0.0290
  896TIP3    H224180   6.153   6.649   1.039  0.9911 -0.4405 -2.3217
  897TIP3   OH224181   1.367   1.452  14.617 -0.6715 -0.6548  0.1145
  897TIP3    H124182   1.305   1.387  14.648 -1.1820  0.0002  0.4991
  897TIP3    H224183   1.420   1.474  14.694 -1.8117  0.8289  0.5195
  898TIP3   OH224184   0.913   4.354  14.313 -0.3998 -0.0006 -0.3303
  898TIP3    H124185   0.985   4.324  14.368 -1.3292 -0.0324  0.9021
  898TIP3    H224186   0.956   4.385  14.233  0.9788 -0.0295  0.3645
  899TIP3   OH224187   4.354   3.614  15.526 -0.3391 -0.5439 -0.1745
  899TIP3    H124188   4.368   3.622  15.620 -0.2207 -0.6121 -0.1867
  899TIP3    H224189   4.328   3.702  15.498 -0.3265 -0.5126 -0.0874
  900TIP3   OH224190   5.560   0.590  11.644 -0.3112 -0.1984  0.4091
  900TIP3    H124191   5.501   0.533  11.594 -1.0253 -0.7628  1.8188
  900TIP3    H224192   5.632   0.532  11.670 -0.4856 -0.1951  0.9178
  901TIP3   OH224193   1.722   2.581  16.799 -0.9945 -0.0781  0.5896
  901TIP3    H124194   1.780   2.647  16.836  0.5281 -0.8888 -0.2300
  901TIP3    H224195   1.742   2.581  16.705 -0.8225 -1.8090  0.5934
  902TIP3   OH224196   2.766   6.431   5.192  0.2333 -0.5464  0.1024
  902TIP3    H124197   2.681   6.466   5.167  1.4262  1.2989 -1.8107
  902TIP3    H224198   2.758   6.410   5.285 -1.8679  0.9479  0.3254
  903TIP3   OH224199   0.990   3.595   1.069  0.3238  0.4520 -0.3401
  903TIP3    H124200   0.969   3.659   1.138  0.4420 -0.5804  0.6839
  903TIP3    H224201   0.912   3.541   1.062  0.9735 -0.6230  0.3470
  904TIP3   OH224202   0.487   2.071   0.576  0.0862 -0.5275  0.2211
  904TIP3    H124203   0.444   2.127   0.641  0.7690 -2.0605  2.1020
  904TIP3    H224204   0.522   2.131   0.511 -1.9275  0.9809  0.4456
  905TIP3   OH224205   2.762   4.432   0.331 -0.5491 -0.0727  0.0096
  905TIP3    H124206   2.736   4.344   0.357  1.4871 -0.6232  0.3243
  905TIP3    H224207   2.797   4.472   0.411 -0.4900  0.6614 -0.3697
  906TIP3   OH224208   2.159   0.782   4.138  0.1162  0.5064 -0.2585
  906TIP3    H124209   2.167   0.877   4.133  1.1308  0.4040 -0.7659
  906TIP3    H224210   2.215   0.757   4.212  0.6226  0.2185 -0.7351
  907TIP3   OH224211   6.049   2.412  12.504  0.4749  0.8817 -0.0878
  907TIP3    H124212   6.066   2.381  12.415  0.6763  0.2462  0.1686
  907TIP3    H224213   6.036   2.332  12.556 -0.1630  1.2639  0.3516
  908TIP3   OH224214   4.872   2.360   1.948 -0.4831 -0.1198 -0.3282
  908TIP3    H124215   4.810   2.308   1.898 -0.7630 -1.5237  1.3856
  908TIP3    H224216   4.958   2.334   1.913 -0.6216 -1.7365  0.4291
  909TIP3   OH224217   0.837   5.709  14.773 -0.2683 -0.6098 -0.4591
  909TIP3    H124218   0.838   5.710  14.868  1.1694  0.5358 -0.4561
  909TIP3    H224219   0.828   5.800  14.747 -2.0420 -1.0187 -1.4622
  910TIP3   OH224220   6.091   2.488   5.826  0.1303  0.2583  0.4903
  910TIP3    H124221   6.004   2.453   5.848 -0.7967 -0.6356 -3.7337
  910TIP3    H224222   6.149   2.412   5.829 -0.5226 -0.4492 -2.1595
  911TIP3   OH224223   1.148   5.345   3.402 -0.0615 -0.1071  0.4181
  911TIP3    H124224   1.148   5.404   3.477  0.7803  0.3307  0.0866
  911TIP3    H224225   1.113   5.398   3.330  1.4198  0.2559 -0.0651
  912TIP3   OH224226   4.283   3.254   4.372  0.4845  0.1370 -0.2562
  912TIP3    H124227   4.349   3.259   4.441 -0.0565  2.4513  0.1774
  912TIP3    H224228   4.203   3.287   4.413  0.1759  1.6703 -1.9898
  913TIP3   OH224229   5.654   3.366   3.544 -0.1380  0.2317  0.0663
  913TIP3    H124230   5.712   3.298   3.510  0.1687  0.7870 -0.5111
  913TIP3    H224231   5.691   3.448   3.514 -1.9144  0.5512 -1.4364
  914TIP3   OH224232   1.652   6.565   3.578 -0.2283  0.3987  0.1307
  914TIP3    H124233   1.726   6.507   3.593 -0.2218  0.6322  1.0208
  914TIP3    H224234   1.583   6.508   3.543  0.3404  0.1730 -0.6402
  915TIP3   OH224235   1.409   6.298   5.187  0.0624  0.3878  0.1198
  915TIP3    H124236   1.329   6.245   5.189  0.1072  0.3222  1.2164
  915TIP3    H224237   1.470   6.247   5.135 -0.1138 -0.3323  0.5996
  916TIP3   OH224238   6.418   6.643  11.974  0.1301 -0.1815 -0.2820
  916TIP3    H124239   6.398   6.562  11.929  0.8480 -2.0312  2.4678
  916TIP3    H224240   6.333   6.680  11.997 -0.2102 -1.1373  0.0277
  917TIP3   OH224241   6.705   2.700   1.274  0.4939  0.3182 -0.0408
  917TIP3    H124242   6.772   2.639   1.303 -2.4595 -2.8502  0.8403
  917TIP3    H224243   6.670   2.738   1.355  0.4111  1.0054 -0.3871
  918TIP3   OH224244   2.839   1.820   4.433 -0.2638 -0.3016  0.0556
  918TIP3    H124245   2.762   1.808   4.377  0.2496  1.2515 -1.0496
  918TIP3    H224246   2.912   1.833   4.372  0.7812 -1.0549  1.0831
  919TIP3   OH224247   0.065   2.866   5.542 -0.1274  0.5111  0.1273
  919TIP3    H124248  -0.027   2.893   5.540  0.0775  1.2341  0.3492
  919TIP3    H224249   0.081   2.830   5.455 -0.5146  0.7439 -0.0420
  920TIP3   OH224250   1.809   2.366   3.202  0.0449  0.2623 -0.0033
  920TIP3    H124251   1.893   2.326   3.181  0.8274  1.3336  1.0074
  920TIP3    H224252   1.775   2.314   3.275  1.8613  2.3150  2.4885
  921TIP3   OH224253   2.420   3.414  12.630 -0.1165 -0.5029  0.4511
  921TIP3    H124254   2.483   3.365  12.683  0.7733 -0.9891 -1.0122
  921TIP3    H224255   2.436   3.506  12.654  2.6826 -0.3876 -1.3628
  922TIP3   OH224256   3.395   5.376  10.998 -0.1933  0.3059  0.4310
  922TIP3    H124257   3.466   5.381  10.934 -0.0954 -0.9786  0.4145
  922TIP3    H224258   3.346   5.298  10.973  0.0603 -0.4414  2.1334
  923TIP3   OH224259   3.737   3.549   3.279  0.1051 -0.2613 -0.6494
  923TIP3    H124260   3.798   3.612   3.241  0.3733 -0.1720 -0.0880
  923TIP3    H224261   3.758   3.466   3.235  2.3568 -0.7975  1.2511
  924TIP3   OH224262   5.936   5.511   0.025 -0.2043  0.1443  0.3526
  924TIP3    H124263   5.884   5.583  -0.012  0.5758  1.5379  1.8383
  924TIP3    H224264   6.025   5.530  -0.003 -0.1575 -1.0213 -0.3537
  925TIP3   OH224265   6.741   0.927   5.295 -0.1256 -0.3284  0.0700
  925TIP3    H124266   6.753   0.951   5.203 -2.2427 -0.7322 -0.3588
  925TIP3    H224267   6.829   0.904   5.325  0.7302  0.4760 -1.6455
  926TIP3   OH224268   3.931   6.476  13.993 -0.4588 -0.1101  0.1819
  926TIP3    H124269   3.904   6.430  13.914  1.1822  0.2135 -0.6041
  926TIP3    H224270   3.869   6.548  14.002 -0.1650  0.3476 -1.2978
  927TIP3   OH224271   5.042   2.533   2.761  0.1754  0.0219 -0.7050
  927TIP3    H124272   5.104   2.522   2.833  0.1920  0.0125 -0.7208
  927TIP3    H224273   5.014   2.444   2.740 -0.1491  0.0558 -0.4290
  928TIP3   OH224274   1.625   1.916   0.665  0.1026 -0.3491 -0.3751
  928TIP3    H124275   1.678   1.996   0.663 -0.3962  0.2719  3.6075
  928TIP3    H224276   1.679   1.850   0.622  2.5136  1.1149  0.2343
  929TIP3   OH224277   6.159   3.274   4.771  0.0630  0.2823 -0.0605
  929TIP3    H124278   6.235   3.321   4.805  1.7909 -1.6438 -1.0744
  929TIP3    H224279   6.117   3.336   4.712  1.9040  0.8032 -0.8871
  930TIP3   OH224280   4.589   4.669  12.833  0.2053  0.1711 -0.5373
  930TIP3    H124281   4.584   4.753  12.786  1.5500  0.6799  0.1600
  930TIP3    H224282   4.532   4.610  12.784  1.3468  0.7366 -2.6602
  931TIP3   OH224283   5.967   6.001   0.394 -0.2864 -0.2439 -0.1893
  931TIP3    H124284   5.997   6.078   0.443  1.3270 -0.4962 -0.6949
  931TIP3    H224285   5.904   6.035   0.331 -1.0435  0.3533  0.8650
  932TIP3   OH224286   4.882   4.876   3.520  0.0832 -0.4250  0.3487
  932TIP3    H124287   4.939   4.816   3.569  0.4339  0.8167  1.5226
  932TIP3    H224288   4.826   4.818   3.469  2.4655 -1.7197 -1.0139
  933TIP3   OH224289   2.222   0.136  13.891  0.2069  0.2823 -0.0676
  933TIP3    H124290   2.241   0.044  13.909 -0.1412  0.4002  1.0077
  933TIP3    H224291   2.199   0.172  13.977 -0.5039  1.1717 -0.6186
  934TIP3   OH224292   3.599   4.576   2.773  0.1493 -0.2839  0.0710
  934TIP3    H124293   3.542   4.507   2.738 -0.1674  0.8013 -1.7107
  934TIP3    H224294   3.544   4.655   2.772  1.2302  0.4816 -0.2624
  935TIP3   OH224295   1.585   3.028   2.179  0.5674  0.1275 -0.2659
  935TIP3    H124296   1.638   2.994   2.107  0.0595 -0.3428 -0.4245
  935TIP3    H224297   1.499   3.044   2.140 -0.6145 -2.8772  0.8482
  936TIP3   OH224298   1.097   4.378   2.795 -0.3007  0.1553  0.1108
  936TIP3    H124299   1.112   4.420   2.879  0.9290 -2.2998  1.2266
  936TIP3    H224300   1.030   4.432   2.752  0.8259  2.8974  1.5530
  937TIP3   OH224301   2.659   6.252  13.127 -0.4115  0.0649  0.5650
  937TIP3    H124302   2.617   6.309  13.192 -0.4153  1.8976 -0.9616
  937TIP3    H224303   2.642   6.163  13.158 -0.2191  0.8599  3.1799
  938TIP3   OH224304   4.366   2.752   1.385 -0.2942  0.0181  0.3385
  938TIP3    H124305   4.453   2.753   1.344 -0.4244 -0.7529  0.0152
  938TIP3    H224306   4.311   2.804   1.328 -0.4395 -0.9255 -0.3946
  939TIP3   OH224307   4.583   1.148   3.859  0.3938  0.0236 -0.4777
  939TIP3    H124308   4.568   1.065   3.814  0.8837 -1.1418  1.3628
  939TIP3    H224309   4.501   1.195   3.851  0.1394 -0.5826 -1.6558
  940TIP3   OH224310   1.199   1.601   1.946 -0.2960 -0.6220 -0.2280
  940TIP3    H124311   1.277   1.604   2.001 -0.0633  0.3665 -0.5785
  940TIP3    H224312   1.127   1.627   2.003 -0.3852 -1.5342  0.0959
  941TIP3   OH224313   1.659   2.814   3.972 -0.1898 -0.5520 -0.5030
  941TIP3    H124314   1.707   2.734   3.993 -2.4595 -1.5336  1.5346
  941TIP3    H224315   1.628   2.801   3.882  2.9394  0.0017 -1.7689
  942TIP3   OH224316   4.043   6.746  12.907  0.1626 -0.1694  0.0245
  942TIP3    H124317   4.082   6.759  12.993  0.7800 -0.9423 -0.1257
  942TIP3    H224318   4.045   6.651  12.895  0.1976 -0.0557 -0.8927
  943TIP3   OH224319   0.636   6.022  16.268 -0.1828  0.3468  0.0783
  943TIP3    H124320   0.720   5.980  16.285  0.2927  1.8418  1.7334
  943TIP3    H224321   0.622   6.009  16.174  2.8212  1.5960 -0.6746
  944TIP3   OH224322   0.180   2.089   5.784 -0.5004 -0.1429  0.0200
  944TIP3    H124323   0.250   2.084   5.719 -1.6489 -0.1111 -1.2648
  944TIP3    H224324   0.215   2.044   5.860  1.5991  1.4633  0.0826
  945TIP3   OH224325   6.050   1.447  15.890  0.0583  0.0759 -0.0130
  945TIP3    H124326   6.092   1.533  15.896 -2.2883  1.5097 -2.1219
  945TIP3    H224327   6.001   1.439  15.972  0.2066  0.7947  0.1571
  946TIP3   OH224328   5.980   0.883  13.644  0.1084 -0.1726 -0.1220
  946TIP3    H124329   6.007   0.934  13.568  0.0471  0.3619  0.2148
  946TIP3    H224330   5.888   0.863  13.628 -0.2855  1.1124  0.4557
  947TIP3   OH224331   1.557   1.274   0.740 -0.4627  0.5156  0.3168
  947TIP3    H124332   1.624   1.339   0.720 -1.9685  1.7660 -0.9477
  947TIP3    H224333   1.581   1.197   0.688  1.1502  0.1083  1.5696
  948TIP3   OH224334   0.937   4.083  12.158  0.5693  0.1166  0.0536
  948TIP3    H124335   0.939   4.085  12.062  0.1563  1.1526  0.0589
  948TIP3    H224336   0.922   4.173  12.184  0.0893 -0.2466  1.0865
  949TIP3   OH224337   0.822   5.992  14.763  0.0504  0.0904  0.1668
  949TIP3    H124338   0.737   6.029  14.786 -0.5766 -1.9781  1.5562
  949TIP3    H224339   0.884   6.035  14.822 -0.4372 -0.0804  0.8153
  950TIP3   OH224340   0.154   5.621   3.710 -0.5256  0.1480 -0.2796
  950TIP3    H124341   0.103   5.673   3.772 -0.8761  0.5008 -0.8558
  950TIP3    H224342   0.116   5.533   3.717 -0.2550  0.0751  0.3389
  951TIP3   OH224343   4.299   5.116  16.489 -0.2611 -0.4655  0.1224
  951TIP3    H124344   4.339   5.055  16.550 -0.1707 -0.6928 -0.1602
  951TIP3    H224345   4.285   5.196  16.540 -0.0079 -0.5876  0.3847
  952TIP3   OH224346   5.144   2.773  15.995 -0.0343  0.3283  0.1240
  952TIP3    H124347   5.159   2.774  15.900  1.1805  2.4958  0.2699
  952TIP3    H224348   5.106   2.859  16.014  1.3435  0.6286  1.7994
  953TIP3   OH224349   5.944   6.507   4.247  0.4188 -0.0930 -0.1120
  953TIP3    H124350   5.915   6.460   4.325  0.4559  0.3723  0.1885
  953TIP3    H224351   5.972   6.439   4.186  0.0042 -0.4811  0.1249
  954TIP3   OH224352   0.364   3.962   1.170 -0.5628  0.3101 -0.1327
  954TIP3    H124353   0.415   4.027   1.218  0.2746  0.3349 -1.0296
  954TIP3    H224354   0.429   3.911   1.121 -1.3603  0.0834 -0.9927
  955TIP3   OH224355   2.181   1.565   5.348  0.1313 -0.0564 -0.0233
  955TIP3    H124356   2.180   1.636   5.412  0.6274  0.7893 -0.9215
  955TIP3    H224357   2.090   1.556   5.320  0.1651  0.7474 -0.4324
  956TIP3   OH224358   0.769   4.608  15.889  0.3672 -0.2783  0.0898
  956TIP3    H124359   0.735   4.556  15.961 -2.8938  0.9001 -0.4280
  956TIP3    H224360   0.782   4.545  15.818  0.4017 -0.9522  0.6844
  957TIP3   OH224361   5.600   1.869  17.075 -0.3523 -0.9295 -0.7247
  957TIP3    H124362   5.601   1.817  16.995  1.1771 -0.8796 -0.7815
  957TIP3    H224363   5.672   1.834  17.127  0.3674  0.7173 -0.5292
  958TIP3   OH224364   3.330   0.799  11.708  0.1685 -0.6266  0.2236
  958TIP3    H124365   3.264   0.730  11.715  0.2620 -0.5831  1.9936
  958TIP3    H224366   3.296   0.857  11.640  0.9850 -3.2838 -2.6834
  959TIP3   OH224367   0.853   4.133   5.082  0.4468  0.3558  0.3892
  959TIP3    H124368   0.910   4.067   5.119  0.1112  0.1060  0.4610
  959TIP3    H224369   0.765   4.097   5.091  0.0907  1.5205  1.9566
  960TIP3   OH224370   2.301   5.426   3.639 -0.4265 -0.4230  0.3846
  960TIP3    H124371   2.365   5.357   3.655 -1.2717 -1.2740  0.2006
  960TIP3    H224372   2.322   5.494   3.703  0.9558 -0.4609 -0.0064
  961TIP3   OH224373   3.552   5.109   4.796 -0.7228 -0.4942  0.2205
  961TIP3    H124374   3.533   5.199   4.770 -0.9589 -0.7730 -0.6086
  961TIP3    H224375   3.554   5.112   4.891  0.7566  0.6782  0.1833
  962TIP3   OH224376   2.038   2.883  12.132  0.1990 -0.6808  0.5475
  962TIP3    H124377   2.065   2.971  12.160  1.3572 -1.0825  0.7252
  962TIP3    H224378   2.095   2.824  12.180 -2.4952 -1.7089  2.7013
  963TIP3   OH224379   6.737   5.877   6.497  0.0676  0.2212 -0.0035
  963TIP3    H124380   6.668   5.906   6.558  1.4990 -0.0521  1.8239
  963TIP3    H224381   6.712   5.916   6.413 -1.7786  0.9459  0.8213
  964TIP3   OH224382   5.155   0.458   5.314  0.3157 -0.7499  0.7449
  964TIP3    H124383   5.073   0.431   5.272 -0.2106  0.6901  0.7772
  964TIP3    H224384   5.129   0.489   5.400  0.4764  2.0037 -0.0982
  965TIP3   OH224385   0.572   6.038   1.804  1.1429 -0.1616 -0.0895
  965TIP3    H124386   0.598   5.955   1.763  1.4829 -0.3553  0.5110
  965TIP3    H224387   0.655   6.083   1.821  0.9263  1.1207 -2.0419
  966TIP3   OH224388   4.487   5.199  11.262 -0.7462 -0.6812  0.4592
  966TIP3    H124389   4.496   5.265  11.331  0.1138 -1.6951  1.3624
  966TIP3    H224390   4.458   5.120  11.309 -1.1755 -1.1004 -0.5017
  967TIP3   OH224391   1.227   1.872   5.468 -0.3693  0.6614  0.3653
  967TIP3    H124392   1.143   1.896   5.429  0.0071  0.5520 -0.5582
  967TIP3    H224393   1.260   1.802   5.411 -1.0042 -1.4524  2.4601
  968TIP3   OH224394   5.341   3.411   1.537 -0.2088  0.2218 -0.5670
  968TIP3    H124395   5.270   3.461   1.577 -0.4023  1.1879 -2.0521
  968TIP3    H224396   5.298   3.353   1.475  0.2458  0.2906 -0.9497
  969TIP3   OH224397   5.893   2.360   2.257  0.4049  0.0255  0.1257
  969TIP3    H124398   5.909   2.296   2.188  0.2827  0.1809 -0.0470
  969TIP3    H224399   5.905   2.311   2.338 -0.2786 -0.3672 -0.0019
  970TIP3   OH224400   6.586   6.714  13.485  0.3572  0.2498 -0.2580
  970TIP3    H124401   6.665   6.723  13.539  0.7239  0.2088 -0.7765
  970TIP3    H224402   6.547   6.801  13.484  0.1366  0.1627  0.3847
  971TIP3   OH224403   4.983   5.676  11.523  0.2208 -0.2324  0.1555
  971TIP3    H124404   4.945   5.763  11.509 -0.0775 -0.5286 -1.0136
  971TIP3    H224405   5.054   5.670  11.458  1.3110 -0.2555  1.3197
  972TIP3   OH224406   6.751   4.556  11.639  0.9226 -0.4463  0.4623
  972TIP3    H124407   6.689   4.504  11.586 -0.0556 -0.6856  1.7979
  972TIP3    H224408   6.705   4.638  11.655  1.7846  0.1906 -0.2003
  973TIP3   OH224409   3.530   5.922  14.998  0.0631 -0.2042  0.4855
  973TIP3    H124410   3.527   5.866  15.075 -2.2773 -1.4780 -0.4355
  973TIP3    H224411   3.590   5.878  14.937 -0.4546 -0.8248  0.4204
  974TIP3   OH224412   1.668   4.810   6.121  0.1294 -0.0967  0.3235
  974TIP3    H124413   1.576   4.808   6.094 -0.2059  0.4512  1.3405
  974TIP3    H224414   1.693   4.718   6.131  0.0757 -0.2895 -1.1532
  975TIP3   OH224415   3.426   3.829   3.210 -0.3191  0.6188  0.5572
  975TIP3    H124416   3.389   3.916   3.225 -0.1380  0.3797  2.6790
  975TIP3    H224417   3.412   3.813   3.117 -1.9176  2.1808  0.4757
  976TIP3   OH224418   3.624   1.917  13.193  0.5125 -0.5032  0.5143
  976TIP3    H124419   3.626   1.834  13.145 -2.0679 -0.7955  0.7726
  976TIP3    H224420   3.573   1.976  13.136  0.8218  0.3643  1.1209
  977TIP3   OH224421   5.118   1.169   4.062  0.0648  0.6055  0.0476
  977TIP3    H124422   5.130   1.087   4.110  2.2719  0.7802 -0.1223
  977TIP3    H224423   5.027   1.193   4.079 -0.9023 -2.2302 -0.4799
  978TIP3   OH224424   3.897   4.490  14.910  0.1526 -0.0930  0.1194
  978TIP3    H124425   3.931   4.418  14.964 -0.0233  0.2769  0.7389
  978TIP3    H224426   3.882   4.561  14.973 -1.1294 -0.0258 -0.2441
  979TIP3   OH224427   2.813   4.949  12.808 -0.1170 -0.0241  0.2711
  979TIP3    H124428   2.868   4.990  12.873 -0.9848  0.5901  0.6388
  979TIP3    H224429   2.822   5.004  12.730  0.1276 -0.1736  0.1935
  980TIP3   OH224430   3.568   2.418   4.030  0.0747  0.0152  0.3326
  980TIP3    H124431   3.555   2.499   4.079  0.5525 -1.0723  2.3933
  980TIP3    H224432   3.480   2.383   4.018 -0.4341  2.0918 -3.0253
  981TIP3   OH224433   4.521   3.108  14.409 -0.0067 -0.0847 -0.2196
  981TIP3    H124434   4.462   3.035  14.392  2.1496 -1.7226 -1.0966
  981TIP3    H224435   4.503   3.171  14.339 -0.8363 -0.4407 -0.3337
  982TIP3   OH224436   3.660   2.192   5.804 -0.1463  0.0026  0.5640
  982TIP3    H124437   3.724   2.172   5.873  1.0642 -1.0751 -0.8156
  982TIP3    H224438   3.598   2.118   5.807  0.5311 -0.6081 -0.1947
  983TIP3   OH224439   3.324   5.793   4.768 -0.6231 -0.3461 -0.1452
  983TIP3    H124440   3.368   5.721   4.813 -0.7890 -1.0084 -1.0218
  983TIP3    H224441   3.343   5.870   4.822 -0.9677 -1.1362  1.1640
  984TIP3   OH224442   2.517   3.373   3.994 -0.1615  0.1332 -0.3666
  984TIP3    H124443   2.556   3.361   4.080 -0.9443  1.2367  0.1675
  984TIP3    H224444   2.573   3.322   3.935  1.3911  0.7140  0.5277
  985TIP3   OH224445   0.156   5.583   0.763 -0.3591 -0.5716 -0.1642
  985TIP3    H124446   0.072   5.596   0.807 -0.5273 -1.0704 -0.3423
  985TIP3    H224447   0.180   5.493   0.781 -0.2931 -0.7021 -0.8612
  986TIP3   OH224448   0.273   6.680  11.624 -0.0367  0.0118 -0.4493
  986TIP3    H124449   0.266   6.619  11.551  0.5203 -0.4068 -0.1677
  986TIP3    H224450   0.366   6.703  11.627 -0.5776  2.9494 -2.1770
  987TIP3   OH224451   0.940   6.395  12.988 -0.2351 -0.7306  0.0702
  987TIP3    H124452   0.951   6.302  13.009  0.2171 -0.7404 -0.1877
  987TIP3    H224453   1.029   6.429  12.984 -0.3848 -0.3696 -0.2176
  988TIP3   OH224454   5.848   2.384  15.347 -0.4668  0.3209 -0.7106
  988TIP3    H124455   5.861   2.391  15.441  0.1462  0.2274 -0.7825
  988TIP3    H224456   5.830   2.291  15.331  0.6448  0.1018 -0.8129
  989TIP3   OH224457   6.645   4.478   6.146 -0.0371  0.2109 -0.4517
  989TIP3    H124458   6.675   4.442   6.063  1.5511 -0.1056  0.2326
  989TIP3    H224459   6.552   4.498   6.131  0.2185  0.1725 -2.2828
  990TIP3   OH224460   4.137   4.810  11.531 -0.4327 -0.0222 -0.3523
  990TIP3    H124461   4.048   4.813  11.567 -0.0814 -1.4262  0.7209
  990TIP3    H224462   4.158   4.717  11.526  1.8415  0.2741  1.6940
  991TIP3   OH224463   3.686   5.285  15.292 -0.1067 -0.0366  0.7151
  991TIP3    H124464   3.609   5.232  15.315  0.0877 -0.1073  1.2122
  991TIP3    H224465   3.732   5.233  15.225 -1.1325  0.5648 -0.4992
  992TIP3   OH224466   4.738   1.107  12.707  0.2918 -0.0718  0.3461
  992TIP3    H124467   4.825   1.094  12.670  0.1606 -2.3120  0.6819
  992TIP3    H224468   4.683   1.130  12.631  1.2804  2.3165  0.2686
  993TIP3   OH224469   4.701   4.245  16.443 -0.2700 -0.3411  0.2832
  993TIP3    H124470   4.624   4.289  16.479  0.9623  1.0468  1.3611
  993TIP3    H224471   4.727   4.183  16.512  0.8316  0.7759  0.9070
  994TIP3   OH224472   0.953   6.570  15.865 -0.6502 -0.5631  0.2504
  994TIP3    H124473   0.920   6.580  15.776 -1.8018  0.7937  0.7821
  994TIP3    H224474   0.881   6.600  15.921  0.0887 -1.2740  1.6353
  995TIP3   OH224475   5.239   4.392   4.739  0.2226 -0.2537  0.1103
  995TIP3    H124476   5.302   4.450   4.696  1.5752 -1.9289 -0.2739
  995TIP3    H224477   5.280   4.370   4.822  1.0526 -2.7348 -0.8639
  996TIP3   OH224478   1.147   3.747  13.058  0.6833 -0.2848 -0.4584
  996TIP3    H124479   1.138   3.786  13.145 -0.4420  0.2631 -0.7954
  996TIP3    H224480   1.156   3.653  13.075 -1.3825 -0.4134  0.2240
  997TIP3   OH224481   5.193   0.068  15.218 -0.0312 -0.8818 -0.0200
  997TIP3    H124482   5.251   0.076  15.142  0.2924  3.4558  0.4378
  997TIP3    H224483   5.105   0.067  15.180  0.1107  1.6913 -0.5726
  998TIP3   OH224484   1.939   4.779   3.877  0.0139 -0.7306  0.6319
  998TIP3    H124485   1.864   4.726   3.904  0.0822 -2.1853 -1.7056
  998TIP3    H224486   2.011   4.748   3.931 -1.1030  1.1882  3.4244
  999TIP3   OH224487   3.968   6.635   4.603 -0.0833 -0.0420 -0.1861
  999TIP3    H124488   3.898   6.694   4.632 -0.7582 -1.3826  1.0026
  999TIP3    H224489   4.029   6.632   4.676  0.3956 -0.1646 -0.5846
 1000TIP3   OH224490   1.827   0.707  11.355  0.7685  0.4346 -0.5699
 1000TIP3    H124491   1.881   0.757  11.293 -0.2457  0.6144 -1.3335
 1000TIP3    H224492   1.889   0.651  11.401  1.8589  1.9408 -0.1317
 1001TIP3   OH224493   4.900   0.451   1.105  0.3711 -0.1234 -0.1612
 1001TIP3    H124494   4.916   0.362   1.071  0.3227 -0.5264  0.8457
 1001TIP3    H224495   4.848   0.493   1.036 -0.4527 -1.2031 -0.2309
 1002TIP3   OH224496   3.748   4.138  11.353  0.4605  0.5161  0.0146
 1002TIP3    H124497   3.825   4.116  11.404  0.3300  1.1589  0.5037
 1002TIP3    H224498   3.674   4.124  11.412  0.3625  2.0100  0.2770
 1003TIP3   OH224499   2.940   2.409   1.014 -0.3036 -0.3006 -0.3464
 1003TIP3    H124500   2.930   2.329   1.065  0.5826 -1.2568 -1.6094
 1003TIP3    H224501   3.034   2.416   0.998 -0.5594 -0.0666 -1.8772
 1004TIP3   OH224502   3.044   6.645  14.953  0.4733 -0.0787  0.0972
 1004TIP3    H124503   2.983   6.683  15.016  0.1199 -1.4164  0.5868
 1004TIP3    H224504   3.016   6.681  14.868  0.5723  1.2465  0.5928
 1005TIP3   OH224505   6.650   3.263  15.316 -0.3083 -0.0734 -0.4190
 1005TIP3    H124506   6.679   3.188  15.367  0.8378  1.2826  1.0128
 1005TIP3    H224507   6.594   3.225  15.248 -2.2875 -1.9676  2.0345
 1006TIP3   OH224508   1.805   6.051   2.139 -0.2661 -0.1361  0.3437
 1006TIP3    H124509   1.769   6.034   2.052 -1.2128  1.2051  0.4380
 1006TIP3    H224510   1.803   5.966   2.183 -1.4179 -0.4987 -0.3562
 1007TIP3   OH224511   1.875   6.435  13.970 -0.2702 -0.1849 -0.2680
 1007TIP3    H124512   1.947   6.372  13.970  1.8464  2.0003  2.1971
 1007TIP3    H224513   1.809   6.395  14.026  0.9029 -0.3934  1.0188
 1008TIP3   OH224514   0.896   6.423  11.584 -0.4734  0.4732  0.3703
 1008TIP3    H124515   0.901   6.352  11.648  0.0478 -2.5273 -2.7018
 1008TIP3    H224516   0.803   6.434  11.568 -0.5146 -1.1406 -0.6894
 1009TIP3   OH224517   6.318   6.387  16.240 -0.2154 -0.1830  0.5957
 1009TIP3    H124518   6.300   6.294  16.251 -0.0656 -0.3383 -0.3777
 1009TIP3    H224519   6.361   6.413  16.322  2.6030 -1.6921 -0.2702
 1010TIP3   OH224520   6.054   2.897   1.213  0.0881 -0.0515 -0.4195
 1010TIP3    H124521   5.988   2.966   1.215 -1.2449 -1.2206 -1.7177
 1010TIP3    H224522   6.018   2.830   1.155  2.6171 -0.5555 -1.5674
 1011TIP3   OH224523   3.090   5.417  15.956 -0.0288 -0.1859 -0.1792
 1011TIP3    H124524   3.029   5.450  15.890 -0.2448 -0.9742 -0.3787
 1011TIP3    H224525   3.177   5.427  15.916 -0.1915 -1.0951 -0.7825
 1012TIP3   OH224526   0.498   6.788  11.234 -0.5733 -0.3002 -0.4076
 1012TIP3    H124527   0.535   6.820  11.152 -0.2116 -0.2215 -0.2167
 1012TIP3    H224528   0.465   6.701  11.213  2.1990 -1.5799  0.0274
 1013TIP3   OH224529   1.016   5.120   5.147  0.0250 -0.0064  0.1873
 1013TIP3    H124530   0.995   5.171   5.069  1.1301  2.0746  1.1583
 1013TIP3    H224531   0.975   5.168   5.219  1.4915 -0.1837  1.1951
 1014TIP3   OH224532   4.771   6.374  16.987 -0.2932 -0.2655 -0.1521
 1014TIP3    H124533   4.846   6.432  16.968  0.4650 -0.1032  2.7849
 1014TIP3    H224534   4.808   6.286  16.985 -0.4875 -0.3386 -0.5935
 1015TIP3   OH224535   0.183   1.177   0.665  0.4571 -0.6080 -0.2609
 1015TIP3    H124536   0.254   1.166   0.729  0.3729 -1.4820 -0.3021
 1015TIP3    H224537   0.118   1.232   0.710 -0.0011 -1.9265  0.7600
 1016TIP3   OH224538   2.444   1.555  12.427  0.1936  0.3581  0.7753
 1016TIP3    H124539   2.433   1.510  12.343 -2.1700  2.7455 -0.3552
 1016TIP3    H224540   2.536   1.542  12.450  0.7272 -1.0419 -1.7766
 1017TIP3   OH224541   6.209   4.537  12.405 -0.7205 -0.0972 -0.1989
 1017TIP3    H124542   6.238   4.446  12.413 -1.1843 -0.1253  1.5250
 1017TIP3    H224543   6.190   4.548  12.311  2.2550 -0.8295 -0.9833
 1018TIP3   OH224544   3.053   3.010   0.689  0.3165  0.5928 -0.2040
 1018TIP3    H124545   2.984   2.970   0.635  0.6591  0.7765 -0.7827
 1018TIP3    H224546   3.005   3.063   0.753 -0.1455 -0.6551  0.5234
 1019TIP3   OH224547   2.066   6.223  13.579 -0.1815 -0.5627  0.3000
 1019TIP3    H124548   2.060   6.302  13.633  3.3464  0.4171 -0.4643
 1019TIP3    H224549   2.053   6.254  13.489 -1.1248 -1.3009  0.1720
 1020TIP3   OH224550   4.865   5.082   1.657 -0.8116 -0.5583  0.3761
 1020TIP3    H124551   4.869   5.050   1.747 -0.1405  0.1472  0.6047
 1020TIP3    H224552   4.784   5.132   1.653 -1.0545 -0.9408  0.4685
 1021TIP3   OH224553   4.395   2.649   3.642 -0.1827  0.3138  1.1273
 1021TIP3    H124554   4.449   2.709   3.694  0.9790 -0.2042  0.5709
 1021TIP3    H224555   4.443   2.639   3.559 -0.9380 -0.4854  0.7650
 1022TIP3   OH224556   3.129   2.826   2.019 -0.0022  0.0174  0.2057
 1022TIP3    H124557   3.049   2.772   2.021 -0.4625  0.6394 -0.5157
 1022TIP3    H224558   3.120   2.877   1.938  0.8358  0.5456  0.4405
 1023TIP3   OH224559   0.686   3.798   6.161  0.1113  0.2718 -0.4928
 1023TIP3    H124560   0.613   3.817   6.220  0.3391  1.8787 -0.7065
 1023TIP3    H224561   0.705   3.705   6.177  1.1122  0.9431  3.0582
 1024TIP3   OH224562   1.355   0.046  14.378 -0.3145  0.4391  0.5731
 1024TIP3    H124563   1.371   0.119  14.438  0.6345  0.9818 -0.3137
 1024TIP3    H224564   1.265   0.058  14.348 -0.1744  1.2400  0.4536
 1025TIP3   OH224565   1.202   3.612   5.460 -0.1769  0.0938  0.2352
 1025TIP3    H124566   1.247   3.532   5.431 -0.1832  0.5034 -0.9876
 1025TIP3    H224567   1.174   3.593   5.549 -0.9402 -1.6024 -0.3195
 1026TIP3   OH224568   6.057   4.685   4.703  0.0958 -0.2155 -0.6802
 1026TIP3    H124569   6.130   4.634   4.666 -0.3622 -3.0096  1.8726
 1026TIP3    H224570   6.098   4.740   4.769  0.0665 -0.9076 -0.0732
 1027TIP3   OH224571   6.505   3.971   6.693 -0.1894  0.1625  0.2036
 1027TIP3    H124572   6.570   3.991   6.760 -0.7427 -1.9244  1.4286
 1027TIP3    H224573   6.550   3.912   6.633 -0.3909  0.2220 -0.0070
 1028TIP3   OH224574   2.825   3.497  10.525  0.6246 -0.3065 -0.3345
 1028TIP3    H124575   2.759   3.528  10.588  0.2628  0.0421 -0.8780
 1028TIP3    H224576   2.788   3.416  10.490  0.3482  0.0478 -0.8597
 1029TIP3   OH224577   0.433   3.905   5.728 -0.1430 -0.1377 -0.1360
 1029TIP3    H124578   0.493   3.870   5.794  0.2396  0.1755 -0.3207
 1029TIP3    H224579   0.471   3.989   5.702 -1.3652  0.7373  0.7520
 1030TIP3   OH224580   4.197   6.021   1.009  0.0765  0.7595 -0.7388
 1030TIP3    H124581   4.141   6.014   0.932  1.2288 -0.5856 -1.4851
 1030TIP3    H224582   4.233   6.110   1.005 -1.9199  1.6568 -0.2525
 1031TIP3   OH224583   4.419   6.111   2.816  0.0072 -0.3824  0.0672
 1031TIP3    H124584   4.430   6.028   2.769 -0.3328 -0.2853 -0.1860
 1031TIP3    H224585   4.505   6.129   2.853  0.6536  0.2207 -1.6330
 1032TIP3   OH224586   6.152   6.653  11.734  0.0690 -0.3232 -0.1154
 1032TIP3    H124587   6.166   6.703  11.814  0.0077  1.2573 -1.0398
 1032TIP3    H224588   6.241   6.636  11.701  0.0798  0.0885 -0.3133
 1033TIP3   OH224589   4.498   1.637  10.945  0.1342  0.2929  0.5600
 1033TIP3    H124590   4.532   1.558  10.904  0.9162  0.8391  0.1407
 1033TIP3    H224591   4.566   1.703  10.933 -1.0526  1.4296 -0.3327
 1034TIP3   OH224592   1.919   3.408   4.313 -0.7225 -0.2186  0.0529
 1034TIP3    H124593   1.998   3.423   4.262 -0.8298 -2.0180 -0.7052
 1034TIP3    H224594   1.863   3.483   4.293  0.8145  1.1753  0.7414
 1035TIP3   OH224595   3.264   0.883   0.479  0.0702  0.1917 -0.2205
 1035TIP3    H124596   3.349   0.873   0.522 -0.3435 -1.6970  0.2408
 1035TIP3    H224597   3.201   0.845   0.541 -1.3493  2.8238  0.0881
 1036TIP3   OH224598   4.221   5.900  17.140  0.0562 -0.0161  0.3767
 1036TIP3    H124599   4.199   5.992  17.147 -0.1189  0.2561 -2.7120
 1036TIP3    H224600   4.155   5.856  17.194 -1.0473  1.5285  0.3496
 1037TIP3   OH224601   5.673   4.600  16.507 -0.6444  0.2675 -0.0892
 1037TIP3    H124602   5.724   4.536  16.557 -2.4000 -0.1092  1.3316
 1037TIP3    H224603   5.728   4.678  16.504  1.7702 -1.3601 -2.2924
 1038TIP3   OH224604   4.369   0.394  10.361  0.2629  0.1984  0.1200
 1038TIP3    H124605   4.308   0.399  10.288  1.0501  1.9167 -0.4559
 1038TIP3    H224606   4.351   0.309  10.401 -0.0310 -0.9127 -2.1942
 1039TIP3   OH224607   4.635   3.807  12.700 -0.0574 -0.2457 -0.3816
 1039TIP3    H124608   4.704   3.850  12.750 -1.4410  0.4238  1.0308
 1039TIP3    H224609   4.611   3.870  12.632 -2.5338  1.6684  2.0772
 1040TIP3   OH224610   2.106   5.355   1.196  0.2272  0.0862 -0.1851
 1040TIP3    H124611   2.080   5.446   1.215 -0.0708 -0.3558  1.8024
 1040TIP3    H224612   2.040   5.324   1.134 -0.8252  0.6698  0.6002
 1041TIP3   OH224613   4.371   2.872   4.159 -0.0114 -0.3544  0.3028
 1041TIP3    H124614   4.340   2.854   4.070  0.9273 -0.9355  0.0817
 1041TIP3    H224615   4.442   2.934   4.147 -0.5591  0.3769  0.7464
 1042TIP3   OH224616   0.606   2.945  14.416  0.3567 -0.5250 -0.3523
 1042TIP3    H124617   0.615   3.034  14.383  0.6267 -0.2014  0.5664
 1042TIP3    H224618   0.688   2.902  14.392  0.7259 -0.1701  0.2394
 1043TIP3   OH224619   6.704   1.589   5.037  0.1048  0.2851 -0.1923
 1043TIP3    H124620   6.762   1.642   4.983 -1.4191  1.0457 -1.1687
 1043TIP3    H224621   6.640   1.651   5.072  0.7193 -0.2872  2.0910
 1044TIP3   OH224622   1.856   0.835  13.366  0.7221 -0.3581  0.6782
 1044TIP3    H124623   1.949   0.836  13.342  0.9246 -1.3791  1.3285
 1044TIP3    H224624   1.810   0.850  13.284  1.4126 -2.9568 -0.2838
 1045TIP3   OH224625   6.465   6.377  11.003 -0.3623  0.2657 -0.5257
 1045TIP3    H124626   6.494   6.291  10.971 -1.6039 -0.5188  0.3378
 1045TIP3    H224627   6.399   6.405  10.939 -1.9295 -0.7212  0.5835
 1046TIP3   OH224628   3.640   3.582  14.522  0.1598  0.3377 -0.0309
 1046TIP3    H124629   3.570   3.528  14.558  0.0554  1.4485  1.5186
 1046TIP3    H224630   3.715   3.523  14.514 -0.5015 -0.4884 -0.2474
 1047TIP3   OH224631   0.405   6.250  12.073 -0.2130  0.6172  0.0222
 1047TIP3    H124632   0.314   6.270  12.097  0.3766  0.9999  2.1288
 1047TIP3    H224633   0.406   6.156  12.055 -0.4344 -0.1246  3.3193
 1048TIP3   OH224634   0.849   4.350   4.165 -0.9809 -0.2915  0.1250
 1048TIP3    H124635   0.785   4.417   4.139  1.1961  2.0249  0.3819
 1048TIP3    H224636   0.869   4.304   4.083 -0.0183  1.7143 -0.8644
 1049TIP3   OH224637   5.306   5.175   5.354 -0.2255  0.5185 -0.1470
 1049TIP3    H124638   5.387   5.199   5.309  0.2918  0.4523  0.7321
 1049TIP3    H224639   5.261   5.258   5.368 -0.7648  0.4779 -1.4414
 1050TIP3   OH224640   0.385   6.399   2.876 -0.0574  0.0764  0.4817
 1050TIP3    H124641   0.314   6.389   2.813  1.3762 -0.1575 -1.1689
 1050TIP3    H224642   0.381   6.491   2.902 -1.3403 -0.0842  0.9219
 1051TIP3   OH224643   0.801   0.937  16.865 -0.4790 -0.2261 -0.3414
 1051TIP3    H124644   0.853   0.857  16.863  0.1438  0.1765 -1.5467
 1051TIP3    H224645   0.849   0.998  16.808 -0.8547  1.0535  0.6710
 1052TIP3   OH224646   3.474   4.105   1.563 -0.3626 -0.1713 -0.2001
 1052TIP3    H124647   3.481   4.010   1.560  0.3351 -0.1722  0.8268
 1052TIP3    H224648   3.565   4.135   1.553 -0.5781  0.3857 -0.4982
 1053TIP3   OH224649   0.506   5.680  15.271  0.1046  1.1305  0.9508
 1053TIP3    H124650   0.497   5.646  15.182 -0.7903  1.4303  0.9093
 1053TIP3    H224651   0.542   5.607  15.321  0.5394  0.9333  0.3641
 1054TIP3   OH224652   6.453   3.248  11.772  0.4437  0.1130 -0.3163
 1054TIP3    H124653   6.510   3.224  11.699  2.1394 -1.0443  1.2958
 1054TIP3    H224654   6.502   3.314  11.820  0.2993 -0.6358  0.8980
 1055TIP3   OH224655   5.067   5.178   4.018  0.1862  0.1404 -0.0728
 1055TIP3    H124656   5.006   5.232   3.968  1.3472 -0.4970 -2.3096
 1055TIP3    H224657   5.140   5.236   4.039 -0.3043  0.4099  0.9481
 1056TIP3   OH224658   6.253   3.126  11.297  0.1396 -0.4275  0.2892
 1056TIP3    H124659   6.210   3.135  11.212  1.3704 -3.0402 -0.7351
 1056TIP3    H224660   6.345   3.144  11.279  0.1095  1.1573  1.5818
 1057TIP3   OH224661   2.365   4.733  11.522  0.3381  0.4299 -0.0237
 1057TIP3    H124662   2.397   4.673  11.455  1.8155 -0.8821  1.7424
 1057TIP3    H224663   2.374   4.684  11.604 -1.5564  1.8972  1.1328
 1058TIP3   OH224664   5.246   1.817   4.787 -0.1205 -0.0272 -0.0099
 1058TIP3    H124665   5.282   1.905   4.795  2.2045 -0.6832 -1.9543
 1058TIP3    H224666   5.180   1.823   4.718 -1.0664  0.4419  0.9100
 1059TIP3   OH224667   6.757   4.151  16.581  0.0509  0.4133 -0.5906
 1059TIP3    H124668   6.688   4.157  16.646 -1.4528  2.0529 -2.2191
 1059TIP3    H224669   6.837   4.135  16.632 -1.3921 -0.9467  1.3836
 1060TIP3   OH224670   0.205   2.630   5.294 -0.1191 -0.9321  0.1504
 1060TIP3    H124671   0.179   2.551   5.246 -0.4913 -0.9410  0.3644
 1060TIP3    H224672   0.301   2.630   5.290 -0.1363 -0.1104 -1.9556
 1061TIP3   OH224673   6.751   6.323   6.413 -0.0661  0.2635 -0.1175
 1061TIP3    H124674   6.817   6.328   6.344 -2.4912  2.7796 -2.4910
 1061TIP3    H224675   6.775   6.392   6.474  0.4371 -0.0189  0.0158
 1062TIP3   OH224676   2.682   6.703  13.388  0.3299  0.0186 -0.2880
 1062TIP3    H124677   2.683   6.788  13.345 -0.8915  0.1541 -0.0753
 1062TIP3    H224678   2.616   6.711  13.457 -1.2637 -1.6871 -1.4982
 1063TIP3   OH224679   4.630   4.586   3.215  0.4149 -0.1628  0.5451
 1063TIP3    H124680   4.554   4.639   3.192 -0.2614 -0.5980  1.6816
 1063TIP3    H224681   4.664   4.625   3.296  1.0298 -0.3469  0.3840
 1064TIP3   OH224682   1.131   5.526   4.562  0.3066  0.0021 -0.0895
 1064TIP3    H124683   1.151   5.597   4.624 -0.6557  1.3482 -1.2422
 1064TIP3    H224684   1.165   5.559   4.478  0.1046 -1.0486 -0.5948
 1065TIP3   OH224685   0.002   6.693  12.039  0.3996  0.3675  0.0954
 1065TIP3    H124686   0.086   6.648  12.025  1.7955  2.8066  0.1249
 1065TIP3    H224687   0.018   6.783  12.012 -1.8118  1.2553  1.4514
 1066TIP3   OH224688   5.295   1.860   2.698  0.4745  0.4778  0.4009
 1066TIP3    H124689   5.381   1.891   2.726  0.1408  1.0327  0.8247
 1066TIP3    H224690   5.292   1.879   2.604  0.8704  0.3261  0.3582
 1067TIP3   OH224691   4.628   3.724  16.565  0.1074 -0.1263  0.0371
 1067TIP3    H124692   4.663   3.635  16.573 -0.0117 -0.2390 -0.6453
 1067TIP3    H224693   4.597   3.746  16.653 -1.0546 -1.2674 -0.0606
 1068TIP3   OH224694   3.997   0.247   0.387  0.6584  0.3333 -0.1638
 1068TIP3    H124695   4.041   0.302   0.451 -0.3358  0.8467  0.1018
 1068TIP3    H224696   3.910   0.233   0.424 -0.3452  1.5840 -1.9099
 1069TIP3   OH224697   0.893   6.314   5.349  0.6239 -0.0788  0.0319
 1069TIP3    H124698   0.962   6.378   5.328  0.5636  0.6207  1.8193
 1069TIP3    H224699   0.924   6.270   5.428 -1.1743  0.6124  1.1795
 1070TIP3   OH224700   2.414   5.828  16.163 -0.2992  0.6265  0.1764
 1070TIP3    H124701   2.430   5.836  16.069 -0.3099  1.2737  0.2247
 1070TIP3    H224702   2.403   5.918  16.193 -1.5657  0.3587  0.5770
 1071TIP3   OH224703   6.443   5.161  10.754  0.2787  0.2327  0.5503
 1071TIP3    H124704   6.522   5.143  10.704  1.2958 -0.8181  2.4255
 1071TIP3    H224705   6.376   5.104  10.715  0.4954  0.8663 -0.8130
 1072TIP3   OH224706   5.435   3.795   2.430 -0.1895 -0.4134  0.0916
 1072TIP3    H124707   5.371   3.743   2.381  0.2883 -0.2276 -0.7642
 1072TIP3    H224708   5.512   3.737   2.436 -0.6366 -0.8725  1.6578
 1073TIP3   OH224709   3.458   3.553   3.161 -0.2911 -0.3815  0.7229
 1073TIP3    H124710   3.411   3.625   3.203 -1.0642 -0.7972  0.5785
 1073TIP3    H224711   3.549   3.582   3.160 -0.7462  1.1573 -0.4704
 1074TIP3   OH224712   3.936   3.544  13.029 -0.0828  0.1681  0.3276
 1074TIP3    H124713   3.992   3.582  12.961  1.1945 -1.5573  0.3528
 1074TIP3    H224714   3.990   3.543  13.108 -0.3386 -0.9311  0.5096
 1075TIP3   OH224715   4.062   0.276   2.791  0.0030 -0.3563  0.4860
 1075TIP3    H124716   4.157   0.289   2.794 -0.1122  1.0544 -0.8746
 1075TIP3    H224717   4.050   0.198   2.737  0.3796 -0.5299  0.6474
 1076TIP3   OH224718   0.691   1.250  14.867 -0.2491  0.1650  0.1211
 1076TIP3    H124719   0.769   1.305  14.870  0.2244 -0.5189  0.5476
 1076TIP3    H224720   0.656   1.264  14.779  0.2286  0.6430 -0.0006
 1077TIP3   OH224721   1.322   1.255   2.190 -0.4451 -0.1087  0.3073
 1077TIP3    H124722   1.381   1.297   2.128 -0.8850  1.3979  0.8560
 1077TIP3    H224723   1.347   1.163   2.188  0.8543  0.2262 -0.6301
 1078TIP3   OH224724   0.115   6.245  12.096 -0.4938  0.0801  0.1657
 1078TIP3    H124725   0.066   6.255  12.178 -2.0107  1.1843 -0.8261
 1078TIP3    H224726   0.112   6.151  12.078 -1.5332  0.0184  0.5698
 1079TIP3   OH224727   2.767   5.674   3.602 -0.5501 -0.5482  0.4168
 1079TIP3    H124728   2.734   5.586   3.586 -2.4364  0.6457 -3.2053
 1079TIP3    H224729   2.730   5.728   3.532  1.1447  3.0227  1.9800
 1080TIP3   OH224730   4.011   4.734  13.068  0.3611  0.1228 -0.0281
 1080TIP3    H124731   3.983   4.648  13.039 -1.4658  0.4342  0.6616
 1080TIP3    H224732   4.098   4.746  13.029 -0.1382 -1.2485 -1.6531
 1081TIP3   OH224733   4.986   2.613   4.635  0.6908  0.3486  0.4434
 1081TIP3    H124734   5.022   2.568   4.711 -0.6796  0.3570  1.1147
 1081TIP3    H224735   4.954   2.543   4.578 -1.4877  0.4105  1.5107
 1082TIP3   OH224736   5.152   4.717  12.438 -0.0541 -0.4926 -0.0545
 1082TIP3    H124737   5.094   4.651  12.401  0.3022 -0.8664  0.0372
 1082TIP3    H224738   5.183   4.767  12.363 -1.2930  0.3862 -0.0051
 1083TIP3   OH224739   3.367   3.442   1.857 -0.2788  0.1240  0.6670
 1083TIP3    H124740   3.438   3.379   1.845 -0.9911 -0.8056  1.1837
 1083TIP3    H224741   3.403   3.525   1.825  0.7395 -0.4997  0.1321
 1084TIP3   OH224742   5.752   0.949  12.883 -0.3754  0.4714  0.2487
 1084TIP3    H124743   5.678   1.008  12.899 -0.6458  0.1259  0.3127
 1084TIP3    H224744   5.733   0.909  12.798 -0.0469  0.6918  0.0707
 1085TIP3   OH224745   2.249   0.676  17.135 -0.6181  0.4845 -0.3878
 1085TIP3    H124746   2.214   0.721  17.212 -0.4933 -1.2617  0.7429
 1085TIP3    H224747   2.342   0.698  17.135 -0.2097 -1.0767  1.1581
 1086TIP3   OH224748   3.837   2.185  13.782  0.0301  0.3066 -0.8515
 1086TIP3    H124749   3.871   2.119  13.722  0.5669  0.0153 -0.2418
 1086TIP3    H224750   3.763   2.143  13.826  0.7714 -0.1213  0.0001
 1087TIP3   OH224751   2.788   3.253   0.210 -0.0326 -0.4513 -0.1886
 1087TIP3    H124752   2.843   3.304   0.270  1.1185 -2.4542  0.5423
 1087TIP3    H224753   2.753   3.319   0.149  0.2426  1.3900  1.5283
 1088TIP3   OH224754   0.399   5.707  11.613 -0.5792 -0.3987  0.4490
 1088TIP3    H124755   0.452   5.634  11.579 -0.4732 -0.2469  0.2878
 1088TIP3    H224756   0.456   5.752  11.675 -1.1594 -1.3845  1.7662
 1089TIP3   OH224757   0.557   3.822  14.420 -0.0672  0.2814 -0.7314
 1089TIP3    H124758   0.583   3.731  14.406 -0.5332  0.0336 -0.0480
 1089TIP3    H224759   0.471   3.829  14.380 -0.2006  0.3130 -0.4417
 1090TIP3   OH224760   4.464   1.945  14.541 -0.4708  0.1015  0.2894
 1090TIP3    H124761   4.536   1.998  14.576  1.3614 -1.2962 -1.0974
 1090TIP3    H224762   4.422   2.001  14.476 -0.9533  1.1008  1.4408
 1091TIP3   OH224763   2.528   1.562  13.685 -0.3594 -0.3249  0.0039
 1091TIP3    H124764   2.490   1.638  13.641 -3.0319  0.7131  3.5980
 1091TIP3    H224765   2.477   1.488  13.651 -0.9255  0.1466 -0.1992
 1092TIP3   OH224766   0.392   0.307   3.330  0.2764  0.1289 -0.1032
 1092TIP3    H124767   0.336   0.294   3.254 -0.5493  1.3609  0.2666
 1092TIP3    H224768   0.343   0.267   3.403  1.8655 -2.6931 -0.4362
 1093TIP3   OH224769   3.433   0.460   6.299  0.2994 -0.8310 -0.1533
 1093TIP3    H124770   3.504   0.520   6.320  0.0329 -0.5628 -0.0099
 1093TIP3    H224771   3.381   0.507   6.233  0.1700 -0.9645 -0.1449
 1094TIP3   OH224772   5.782   3.156   5.959  0.5529 -0.4304 -0.0236
 1094TIP3    H124773   5.738   3.153   6.044  1.5653  0.2469  0.5579
 1094TIP3    H224774   5.712   3.148   5.894 -0.3339  0.0081  0.8645
 1095TIP3   OH224775   5.426   3.704  16.975  0.0565  0.0415 -0.4317
 1095TIP3    H124776   5.487   3.777  16.967  1.3457 -0.9941 -0.2907
 1095TIP3    H224777   5.411   3.675  16.885  1.4024 -0.9963 -0.3420
 1096TIP3   OH224778   3.752   6.202  11.289  0.1445 -0.5218 -0.5392
 1096TIP3    H124779   3.769   6.284  11.242 -0.1313 -0.3914 -0.4122
 1096TIP3    H224780   3.828   6.191  11.346  0.5517 -0.7522 -1.1067
 1097TIP3   OH224781   4.308   3.140  15.753 -0.5515  0.2729 -0.5474
 1097TIP3    H124782   4.343   3.122  15.666 -0.6492 -1.5588 -0.2494
 1097TIP3    H224783   4.217   3.112  15.748 -0.8459  1.1327 -0.1338
 1098TIP3   OH224784   5.735   1.335  13.055  0.4907 -0.3788  0.1639
 1098TIP3    H124785   5.681   1.264  13.088 -1.0002  0.5960 -0.0602
 1098TIP3    H224786   5.710   1.343  12.963 -0.2815  1.1624  0.4583
 1099TIP3   OH224787   0.124   0.241   1.028 -0.5258  0.7091 -0.1578
 1099TIP3    H124788   0.166   0.206   1.107 -2.1179  0.3726  0.5607
 1099TIP3    H224789   0.146   0.334   1.030  0.7080  0.4378 -0.1463
 1100TIP3   OH224790   3.933   2.283   4.982  0.2246 -0.1859  0.4816
 1100TIP3    H124791   3.979   2.279   4.898  0.0351  0.2699  0.3549
 1100TIP3    H224792   3.874   2.208   4.980 -0.0102  0.0054  0.0684
 1101TIP3   OH224793   2.122   1.374   1.299  0.1714 -0.4105  0.1610
 1101TIP3    H124794   2.085   1.462   1.287  1.7236  0.7544  2.9093
 1101TIP3    H224795   2.075   1.319   1.236 -1.6312  2.1602 -0.9094
 1102TIP3   OH224796   0.803   6.173  15.645 -0.1669  0.2085  0.0789
 1102TIP3    H124797   0.733   6.237  15.659  0.0510  0.8942 -1.6540
 1102TIP3    H224798   0.776   6.126  15.566  1.0085  0.0489 -0.2445
 1103TIP3   OH224799   0.813   5.149   6.620  0.8414  0.0535 -0.0289
 1103TIP3    H124800   0.826   5.113   6.532 -1.7604 -0.3784 -0.3075
 1103TIP3    H224801   0.802   5.243   6.606  0.8972  0.0498 -0.1017
 1104TIP3   OH224802   0.855   0.024  11.856 -0.0806  0.1609 -0.3938
 1104TIP3    H124803   0.825   0.085  11.789  0.3649 -0.7005 -1.4050
 1104TIP3    H224804   0.920  -0.030  11.812 -0.1446 -0.7582  0.5979
 1105TIP3   OH224805   5.214   5.370   1.991  0.0134 -0.0150  0.6992
 1105TIP3    H124806   5.142   5.415   2.037 -0.7401 -0.9458  0.4677
 1105TIP3    H224807   5.185   5.279   1.985  1.2208 -0.4070  0.5781
 1106TIP3   OH224808   2.653   5.756   4.794  0.2212 -0.7417  0.2788
 1106TIP3    H124809   2.600   5.691   4.747 -0.3317  1.6072 -2.6591
 1106TIP3    H224810   2.602   5.775   4.873 -1.7764 -0.8971 -0.8884
 1107TIP3   OH224811   6.820   5.627  15.767 -0.8236  0.4208  0.0469
 1107TIP3    H124812   6.848   5.703  15.716 -1.7430  0.1974 -0.8194
 1107TIP3    H224813   6.849   5.552  15.715 -0.1287  0.1674  0.7825
 1108TIP3   OH224814   2.558   3.689  12.510 -0.2460  0.0926 -1.0758
 1108TIP3    H124815   2.616   3.749  12.463 -0.0415  0.2839 -0.5932
 1108TIP3    H224816   2.485   3.674  12.450 -1.3114  2.3998 -0.4741
 1109TIP3   OH224817   2.803   4.251  10.949  1.0352 -0.2354 -0.4993
 1109TIP3    H124818   2.844   4.330  10.916  0.3683  0.8604  1.1384
 1109TIP3    H224819   2.876   4.192  10.968  1.6174  0.3920 -0.7680
 1110TIP3   OH224820   6.461   4.592  15.436 -0.3388  0.8711 -0.1044
 1110TIP3    H124821   6.477   4.498  15.428  0.3567  1.0958 -1.7497
 1110TIP3    H224822   6.372   4.604  15.404  0.1210  0.9315 -1.4413
 1111TIP3   OH224823   5.079   1.536  15.548  0.4223  0.0657  0.1188
 1111TIP3    H124824   5.062   1.457  15.497  0.1642 -1.1851  2.0079
 1111TIP3    H224825   5.174   1.546  15.547  0.5322 -0.8452  0.6289
 1112TIP3   OH224826   4.099   2.505  13.953  0.1461  1.2280 -0.9116
 1112TIP3    H124827   4.102   2.468  13.864  0.1433 -1.7940  0.2485
 1112TIP3    H224828   4.145   2.589  13.945  0.8676  0.6736 -3.5929
 1113TIP3   OH224829   5.487   0.645   0.232  0.0912 -0.0535 -0.2345
 1113TIP3    H124830   5.415   0.582   0.227 -0.1776  0.2948 -0.8161
 1113TIP3    H224831   5.535   0.633   0.150  1.1810 -0.8383  0.4838
 1114TIP3   OH224832   5.495   0.549   2.076  0.3275 -0.2664  0.6416
 1114TIP3    H124833   5.443   0.516   2.003 -0.2480  0.6823  0.6036
 1114TIP3    H224834   5.553   0.477   2.099  0.8561 -0.4259 -1.0536
 1115TIP3   OH224835   5.849   3.772  15.682  0.5040 -0.0130  0.5489
 1115TIP3    H124836   5.931   3.771  15.633  0.8143  1.8138  0.9598
 1115TIP3    H224837   5.871   3.735  15.767  0.3791 -1.5129 -0.0489
 1116TIP3   OH224838   0.779   1.279  14.601 -0.8061 -0.1784 -0.3004
 1116TIP3    H124839   0.835   1.357  14.599 -0.9489 -0.0754 -0.3209
 1116TIP3    H224840   0.720   1.292  14.527 -0.5400 -0.5228 -0.5775
 1117TIP3   OH224841   2.631   1.586  15.315 -0.1737 -0.1658  0.2422
 1117TIP3    H124842   2.619   1.498  15.351  1.9572 -0.4213  0.4611
 1117TIP3    H224843   2.643   1.571  15.221 -2.6926  0.2188 -0.2085
 1118TIP3   OH224844   6.467   3.885  15.120  0.1138  0.3256 -0.3939
 1118TIP3    H124845   6.394   3.928  15.078 -0.9643  0.4011  1.4460
 1118TIP3    H224846   6.535   3.952  15.126 -0.5645  0.9944  0.0238
 1119TIP3   OH224847   0.241   3.567  14.414  0.0311 -0.2785 -0.3591
 1119TIP3    H124848   0.159   3.536  14.452  0.3969  0.6330  1.2276
 1119TIP3    H224849   0.241   3.661  14.429  0.6140 -0.0083 -1.8659
 1120TIP3   OH224850   6.247   4.914   0.402  0.4640 -0.2617 -0.1142
 1120TIP3    H124851   6.178   4.905   0.337  0.5484 -1.0479 -0.1055
 1120TIP3    H224852   6.263   4.824   0.433  0.9814 -0.0001  0.4058
 1121TIP3   OH224853   3.200   4.629   4.652 -1.1252 -0.6955  0.3249
 1121TIP3    H124854   3.264   4.620   4.582 -2.0847 -1.4705 -0.4865
 1121TIP3    H224855   3.196   4.723   4.669 -0.8846 -0.4921 -0.6679
 1122TIP3   OH224856   6.447   6.279  11.491 -0.1070  0.3208  0.3980
 1122TIP3    H124857   6.523   6.252  11.541 -1.3831 -3.1596  0.7398
 1122TIP3    H224858   6.385   6.311  11.557 -0.3626 -0.6165  0.6285
 1123TIP3   OH224859   6.808   0.731   2.205  0.1937  0.5347  0.2122
 1123TIP3    H124860   6.761   0.808   2.236  0.2357  0.7297 -0.1976
 1123TIP3    H224861   6.754   0.697   2.134 -0.2515 -0.3023  0.9297
 1124TIP3   OH224862   3.247   3.480  16.894 -0.1269  0.3760  0.0672
 1124TIP3    H124863   3.165   3.506  16.935 -1.3317 -1.1021 -1.2682
 1124TIP3    H224864   3.254   3.534  16.815  0.2216  0.5392  0.2063
 1125TIP3   OH224865   6.043   2.540  16.379 -0.2442  0.0363 -0.0541
 1125TIP3    H124866   6.084   2.601  16.439  1.5588 -1.0163 -0.1609
 1125TIP3    H224867   5.950   2.561  16.383  0.3436  3.2012 -0.5765
 1126TIP3   OH224868   2.742   5.620  13.518  0.1448  0.1514 -0.3614
 1126TIP3    H124869   2.712   5.530  13.532  1.2030 -0.1617 -0.0379
 1126TIP3    H224870   2.829   5.623  13.558  0.7795  0.8776 -1.7315
 1127TIP3   OH224871   6.322   3.605  11.349  0.4411  0.1475 -0.2973
 1127TIP3    H124872   6.321   3.545  11.275  0.6609 -0.7077  0.3754
 1127TIP3    H224873   6.348   3.551  11.424 -0.5808  0.8109  0.5725
 1128TIP3   OH224874   1.480   2.721   6.161 -0.7250 -0.5224  0.2578
 1128TIP3    H124875   1.391   2.754   6.149 -0.8930 -1.7044 -2.3443
 1128TIP3    H224876   1.470   2.644   6.217 -1.4496 -1.0253 -0.5477
 1129TIP3   OH224877   2.990   2.309   1.908  0.0981 -0.2563 -0.3634
 1129TIP3    H124878   2.906   2.325   1.865 -0.8185  0.9471  1.7516
 1129TIP3    H224879   3.044   2.385   1.884  0.4363 -0.7612 -1.2715
 1130TIP3   OH224880   5.150   6.309  16.978 -0.0522 -0.0551 -0.3165
 1130TIP3    H124881   5.061   6.274  16.970  0.1358 -0.2000 -2.4400
 1130TIP3    H224882   5.206   6.233  16.965  0.3831  0.1418  0.3935
 1131TIP3   OH224883   4.158   2.858  10.865 -0.4160 -0.0493 -0.4839
 1131TIP3    H124884   4.149   2.953  10.877 -1.6406 -0.2141  0.1164
 1131TIP3    H224885   4.119   2.842  10.779 -2.3355 -0.2482  0.3650
 1132TIP3   OH224886   4.235   5.087   1.294 -0.5393 -0.0199  0.4072
 1132TIP3    H124887   4.276   5.096   1.208  0.0992 -0.8567  0.6105
 1132TIP3    H224888   4.307   5.098   1.356 -0.9415  0.2793  0.8222
 1133TIP3   OH224889   2.655   1.734   3.346 -0.2449  0.1318 -0.8501
 1133TIP3    H124890   2.634   1.780   3.265  1.4721 -0.4284 -1.6451
 1133TIP3    H224891   2.666   1.643   3.320 -0.2982 -0.1635  0.1310
 1134TIP3   OH224892   1.718   6.123   1.330  0.0454  0.2989 -0.2987
 1134TIP3    H124893   1.744   6.198   1.276  0.8051  1.0420  1.0558
 1134TIP3    H224894   1.797   6.071   1.339  0.1330  0.5740  0.6897
 1135TIP3   OH224895   2.480   3.642   5.248 -0.5696 -0.0269 -0.1832
 1135TIP3    H124896   2.417   3.713   5.262 -0.0884  0.5410 -0.8326
 1135TIP3    H224897   2.518   3.626   5.334 -0.1934  0.9721 -0.1586
 1136TIP3   OH224898   0.805   2.172   3.002 -0.1670 -0.3765  0.6850
 1136TIP3    H124899   0.830   2.137   3.088  0.9145 -1.1259  0.0950
 1136TIP3    H224900   0.739   2.110   2.970 -0.1187 -0.4499  0.7249
 1137TIP3   OH224901   6.393   5.374   0.627  0.1657 -0.4250  0.1930
 1137TIP3    H124902   6.462   5.353   0.564  1.1626  0.8439  0.8006
 1137TIP3    H224903   6.324   5.414   0.574  0.2676 -0.9037 -0.3104
 1138TIP3   OH224904   2.730   6.576   4.267 -0.2781  0.3024 -0.3006
 1138TIP3    H124905   2.703   6.667   4.276  1.2890  0.6606  1.3521
 1138TIP3    H224906   2.673   6.528   4.327 -0.0385  0.4383  0.0382
 1139TIP3   OH224907   4.186   2.450  14.552  0.8705 -0.0689  0.2282
 1139TIP3    H124908   4.136   2.480  14.627 -0.3355  0.4778 -0.7469
 1139TIP3    H224909   4.125   2.457  14.478  3.0322  3.0282 -1.5204
 1140TIP3   OH224910   3.917   3.471  13.993 -0.3054  0.6453  0.2678
 1140TIP3    H124911   3.895   3.447  14.083 -0.3471 -1.9183 -0.3530
 1140TIP3    H224912   3.862   3.548  13.975 -1.3209  0.3801  1.9602
 1141TIP3   OH224913   1.275   4.742   4.078  0.0373 -0.4086  0.0303
 1141TIP3    H124914   1.345   4.795   4.115 -1.0108  1.7272 -0.8989
 1141TIP3    H224915   1.200   4.801   4.071 -1.4543 -2.2329 -0.3171
 1142TIP3   OH224916   6.776   1.280   1.083  0.3100 -0.0108 -0.9933
 1142TIP3    H124917   6.723   1.216   1.036  0.5101  0.3405 -1.7129
 1142TIP3    H224918   6.715   1.348   1.111 -0.1951 -1.3095  1.2470
 1143TIP3   OH224919   0.998   3.456  12.392  0.1625 -0.0090 -0.5958
 1143TIP3    H124920   0.931   3.473  12.459  0.5682  3.9999 -0.9748
 1143TIP3    H224921   0.951   3.410  12.323 -1.0659 -1.2464  0.9797
 1144TIP3   OH224922   5.101   4.392   5.170  0.2785  0.2837  0.2687
 1144TIP3    H124923   5.074   4.429   5.086 -1.6988  0.5236  0.9783
 1144TIP3    H224924   5.160   4.458   5.207 -0.9642  1.4502  0.2451
 1145TIP3   OH224925   0.645   5.403  11.052 -0.3036  0.4740  0.2093
 1145TIP3    H124926   0.596   5.436  10.977 -0.2969  1.4797  0.6351
 1145TIP3    H224927   0.736   5.403  11.024  0.0291  3.2059  0.9693
 1146TIP3   OH224928   3.416   5.375   3.390 -0.1542 -0.0154 -0.3884
 1146TIP3    H124929   3.339   5.330   3.423  1.0901 -0.8785  1.5553
 1146TIP3    H224930   3.423   5.454   3.444  0.0041  0.3642 -0.9546
 1147TIP3   OH224931   6.232   4.977   1.467 -0.0113  0.5404  0.2926
 1147TIP3    H124932   6.213   5.034   1.542 -0.6530  0.4298  0.2106
 1147TIP3    H224933   6.303   4.920   1.498 -0.1187  0.6469  0.7392
 1148TIP3   OH224934   0.069   1.877  14.102  0.0178 -0.0698  0.2062
 1148TIP3    H124935   0.152   1.878  14.149  0.2648 -1.5613 -0.1460
 1148TIP3    H224936   0.087   1.827  14.023 -0.9542  0.5262 -0.4159
 1149TIP3   OH224937   2.562   6.786  13.092  0.0859  0.1497 -0.0767
 1149TIP3    H124938   2.591   6.872  13.061  0.8210 -0.2128 -0.4238
 1149TIP3    H224939   2.643   6.739  13.110 -0.3079 -0.5929 -0.2173
 1150TIP3   OH224940   6.479   5.002  13.575  0.3532 -0.3527 -0.7507
 1150TIP3    H124941   6.477   4.906  13.567 -1.7326 -0.2799 -1.8843
 1150TIP3    H224942   6.462   5.034  13.487 -2.0261  0.9633  0.0877
 1151TIP3   OH224943   4.084   0.510   1.147  0.3742  0.0990  0.1074
 1151TIP3    H124944   4.078   0.585   1.206 -1.9820 -0.3681  0.5936
 1151TIP3    H224945   4.090   0.434   1.205 -0.8399 -0.2898 -0.2445
 1152TIP3   OH224946   0.529   5.413  12.258  0.1596 -0.3421  0.5319
 1152TIP3    H124947   0.458   5.475  12.272 -0.3205 -1.2700  2.6533
 1152TIP3    H224948   0.499   5.357  12.187 -0.0694  0.8594 -0.3512
 1153TIP3   OH224949   2.197   3.737   0.432  0.3569 -0.1540  0.4225
 1153TIP3    H124950   2.126   3.794   0.460  0.0963  0.0020 -0.5136
 1153TIP3    H224951   2.245   3.788   0.367 -0.5119 -1.3555 -1.2345
 1154TIP3   OH224952   4.722   6.354  15.287 -0.1946  0.3117  0.1944
 1154TIP3    H124953   4.675   6.317  15.361 -1.0357  0.7550 -0.1138
 1154TIP3    H224954   4.657   6.360  15.217  0.8201 -1.0652 -0.9269
 1155TIP3   OH224955   4.497   6.353  12.351 -0.5665 -0.4459 -0.5176
 1155TIP3    H124956   4.434   6.420  12.326  0.0292  0.0348 -0.7432
 1155TIP3    H224957   4.582   6.395  12.343 -0.2352 -0.9242  0.2960
 1156TIP3   OH224958   3.646   1.744  16.833 -0.5670 -0.0826  0.7330
 1156TIP3    H124959   3.663   1.657  16.796 -0.9985 -0.0698  0.4978
 1156TIP3    H224960   3.599   1.726  16.915 -0.5720 -0.0755  0.7314
 1157TIP3   OH224961   2.455   4.428  14.915 -0.2619  0.0868  0.6402
 1157TIP3    H124962   2.536   4.476  14.901 -0.6898  0.8792  0.8542
 1157TIP3    H224963   2.465   4.388  15.002  0.0568 -0.1534  0.4960
 1158TIP3   OH224964   0.004   0.617   5.601 -0.2665 -0.4141  0.3574
 1158TIP3    H124965  -0.085   0.639   5.575 -0.1266  0.3638  0.5018
 1158TIP3    H224966   0.059   0.681   5.556  0.3643 -1.7704 -0.8901
 1159TIP3   OH224967   5.047   4.708  11.253 -0.5139 -0.3863 -0.1857
 1159TIP3    H124968   5.141   4.724  11.256 -0.7625  1.0786  0.6341
 1159TIP3    H224969   5.033   4.659  11.172  0.8435  0.1852 -0.7914
 1160TIP3   OH224970   4.946   3.461   6.505  0.4042 -0.2856  0.3063
 1160TIP3    H124971   4.874   3.458   6.567 -2.3773  0.6560 -2.6043
 1160TIP3    H224972   4.921   3.398   6.437  1.0491  1.7364 -1.9488
 1161TIP3   OH224973   1.206   2.590   2.712 -0.0191  0.2363  0.6641
 1161TIP3    H124974   1.236   2.680   2.725 -1.5112  0.5058  2.8075
 1161TIP3    H224975   1.173   2.589   2.623 -1.2753  2.2544  1.0409
 1162TIP3   OH224976   1.735   3.845   5.897 -0.1214  0.3904 -0.0040
 1162TIP3    H124977   1.684   3.863   5.819  1.1031  0.0780 -0.9092
 1162TIP3    H224978   1.738   3.928   5.944 -1.1435  0.4976 -0.1112
 1163TIP3   OH224979   6.607   6.783  13.164  0.4436  0.5421  0.7632
 1163TIP3    H124980   6.630   6.858  13.108 -1.7021  0.0377 -0.9452
 1163TIP3    H224981   6.638   6.808  13.251 -0.6980  3.7186  0.4148
 1164TIP3   OH224982   1.976   0.651   4.284  0.0983  0.5417 -0.3442
 1164TIP3    H124983   1.884   0.672   4.270  0.2560  1.1975 -0.4448
 1164TIP3    H224984   2.023   0.710   4.225  0.7831  3.3569  2.7378
 1165TIP3   OH224985   6.734   6.004   2.547  0.3634 -0.4763 -0.5078
 1165TIP3    H124986   6.808   6.056   2.577 -0.3210 -0.1607  0.7097
 1165TIP3    H224987   6.772   5.937   2.491  1.4113  0.5056 -1.0112
 1166TIP3   OH224988   1.722   0.034   3.341  0.2972 -0.1770  0.3858
 1166TIP3    H124989   1.649  -0.025   3.358 -0.4310  0.9303  1.2368
 1166TIP3    H224990   1.763   0.048   3.427 -1.0634  2.4606  0.6969
 1167TIP3   OH224991   2.608   0.631   4.176 -0.4078 -0.0184  0.1842
 1167TIP3    H124992   2.554   0.626   4.097  1.1538 -0.4013 -0.9215
 1167TIP3    H224993   2.644   0.542   4.185 -0.0282  0.2068  0.9182
 1168TIP3   OH224994   2.831   1.401   4.735 -0.0706  0.1174  0.2845
 1168TIP3    H124995   2.737   1.408   4.750  0.0222  2.9405 -0.0412
 1168TIP3    H224996   2.839   1.369   4.646 -0.7542  0.7843 -0.0256
 1169TIP3   OH224997   1.504   5.926  17.283  0.3027  0.1255  0.0575
 1169TIP3    H124998   1.576   5.939  17.222  0.7805  0.7149  0.7349
 1169TIP3    H224999   1.430   5.974  17.246  0.0377 -1.0317 -0.9869
 1170TIP3   OH225000   6.277   3.335  14.805 -0.7475 -0.3257 -0.2534
 1170TIP3    H125001   6.225   3.279  14.862 -0.9027  1.2818  1.2736
 1170TIP3    H225002   6.213   3.389  14.758 -0.5841 -1.0467 -1.3337
 1171TIP3   OH225003   4.955   4.870   1.453 -0.3337  0.1979  0.8459
 1171TIP3    H125004   4.918   4.938   1.509  0.5346  1.4772 -0.0474
 1171TIP3    H225005   5.031   4.838   1.501  0.1408  0.9687  0.6448
 1172TIP3   OH225006   5.450   5.328   2.250  0.2155 -0.1477 -0.1612
 1172TIP3    H125007   5.461   5.408   2.197 -1.1555 -0.3451 -0.7855
 1172TIP3    H225008   5.439   5.259   2.185 -0.4427 -0.5582  0.3803
 1173TIP3   OH225009   3.134   4.237  15.298  0.2148  0.5661 -0.0726
 1173TIP3    H125010   3.112   4.153  15.258  1.1526 -0.7336  2.0031
 1173TIP3    H225011   3.216   4.263  15.256 -0.4374  0.8460 -1.2256
 1174TIP3   OH225012   4.145   2.735  13.268 -0.4245  0.0037  0.4957
 1174TIP3    H125013   4.169   2.813  13.318  0.4141  0.9761 -1.3000
 1174TIP3    H225014   4.212   2.730  13.199 -0.5582 -2.2373  0.4735
 1175TIP3   OH225015   1.080   2.056  15.189 -0.2340  0.3954  0.3101
 1175TIP3    H125016   1.110   1.967  15.171 -0.3353  0.2044  1.0263
 1175TIP3    H225017   1.158   2.110  15.182  0.2125 -0.0229  1.6781
 1176TIP3   OH225018   3.293   3.761   0.419 -0.2460 -0.0967 -0.1370
 1176TIP3    H125019   3.360   3.747   0.487  2.1065  0.0305 -2.2568
 1176TIP3    H225020   3.216   3.790   0.467  1.6946  1.3770  2.3647
 1177TIP3   OH225021   5.942   4.591  14.707  0.0359 -0.6070 -0.1847
 1177TIP3    H125022   5.993   4.516  14.677 -1.3115 -1.3465 -0.7593
 1177TIP3    H225023   5.940   4.583  14.802  1.1689 -0.4256 -0.1411
 1178TIP3   OH225024   5.228   0.443  11.735 -0.4745 -0.2763  0.2832
 1178TIP3    H125025   5.257   0.457  11.645 -2.5226  1.7933 -0.1476
 1178TIP3    H225026   5.306   0.410  11.781  1.7107  2.1278 -1.4074
 1179TIP3   OH225027   2.654   2.944   0.384  0.4629  0.5732 -0.5536
 1179TIP3    H125028   2.652   2.952   0.288  0.9024  0.4325 -0.5787
 1179TIP3    H225029   2.747   2.929   0.404  0.0402 -2.5487 -0.3892
 1180TIP3   OH225030   5.343   6.560  17.113 -0.1396 -0.4108 -0.2217
 1180TIP3    H125031   5.402   6.513  17.053  0.5059  0.9291 -0.6654
 1180TIP3    H225032   5.260   6.513  17.105  0.5281 -1.5940 -0.5018
 1181TIP3   OH225033   4.274   2.561   5.381  0.0581 -0.0418  0.1496
 1181TIP3    H125034   4.260   2.472   5.349 -1.0633  0.1696  0.0097
 1181TIP3    H225035   4.220   2.616   5.324 -0.4205  0.5549  1.1590
 1182TIP3   OH225036   3.241   4.034   0.047  0.2119 -0.0022  0.0606
 1182TIP3    H125037   3.158   4.010   0.007  0.4275 -0.6071 -0.0391
 1182TIP3    H225038   3.274   3.952   0.085  2.2250 -0.5379 -2.5251
 1183TIP3   OH225039   2.913   0.560   1.536  0.0094  0.0973  0.7556
 1183TIP3    H125040   2.960   0.522   1.610  0.2183 -2.1856 -0.4614
 1183TIP3    H225041   2.851   0.492   1.509  0.1465  0.7298 -1.3459
 1184TIP3   OH225042   1.375   4.950  12.597 -0.4245  0.2170  0.3384
 1184TIP3    H125043   1.357   4.859  12.623 -0.2277 -0.1178 -0.6532
 1184TIP3    H225044   1.324   4.962  12.517  0.2361  0.6988 -0.0159
 1185TIP3   OH225045   4.951   3.240   4.121 -0.2532 -0.0899 -0.4483
 1185TIP3    H125046   5.014   3.294   4.073 -2.3309  3.5490  0.5301
 1185TIP3    H225047   4.889   3.212   4.054 -0.4413  0.7591 -0.6420
 1186TIP3   OH225048   0.475   5.248   4.577  0.1948  0.1585 -0.3784
 1186TIP3    H125049   0.420   5.184   4.533 -1.1980  0.4242  0.8822
 1186TIP3    H225050   0.480   5.322   4.516  0.4605 -0.4778 -1.1488
 1187TIP3   OH225051   1.743   0.254   0.648 -0.2677  0.3698  0.2592
 1187TIP3    H125052   1.810   0.321   0.662  0.1935  0.1374 -0.6969
 1187TIP3    H225053   1.661   0.304   0.638 -0.4548  0.5896  2.5028
 1188TIP3   OH225054   0.125   1.102  11.302  0.4144  0.1758 -0.3833
 1188TIP3    H125055   0.118   1.020  11.252 -0.0885  0.2952 -0.5182
 1188TIP3    H225056   0.035   1.137  11.303 -0.6629 -1.9605  4.2375
 1189TIP3   OH225057   0.244   2.306  13.035 -0.2657  0.9735  0.5598
 1189TIP3    H125058   0.203   2.288  13.120 -0.2154  1.0229  0.5938
 1189TIP3    H225059   0.338   2.301  13.052 -0.2233 -1.5635 -0.0061
 1190TIP3   OH225060   2.059   0.372   0.498 -0.0872  0.6881 -0.4708
 1190TIP3    H125061   2.077   0.455   0.542 -1.6875  0.1334  1.3618
 1190TIP3    H225062   2.011   0.396   0.419  2.4418  1.6743 -1.8232
 1191TIP3   OH225063   1.751   2.154  14.602 -0.0618  0.0861  0.8298
 1191TIP3    H125064   1.752   2.063  14.631  2.0216  0.5531  2.4248
 1191TIP3    H225065   1.727   2.204  14.680 -0.8273  0.9529  0.0657
 1192TIP3   OH225066   0.313   1.719   6.628 -0.2907 -0.3291  0.2013
 1192TIP3    H125067   0.405   1.746   6.622 -0.6668  1.1399  0.5856
 1192TIP3    H225068   0.303   1.652   6.561  0.6911  0.6204 -0.9508
 1193TIP3   OH225069   5.784   3.593  16.893 -0.6459  0.1567  0.0803
 1193TIP3    H125070   5.748   3.515  16.935 -1.3826  0.7631  0.6054
 1193TIP3    H225071   5.872   3.601  16.929  0.3637 -1.7333 -1.7236
 1194TIP3   OH225072   2.266   0.233   0.613 -0.0965 -0.1338 -0.1080
 1194TIP3    H125073   2.177   0.256   0.584 -0.0740 -0.5389 -0.5100
 1194TIP3    H225074   2.293   0.162   0.554  0.6483  0.2550 -0.2510
 1195TIP3   OH225075   6.512   6.469   0.742  0.3139 -0.5616  0.1212
 1195TIP3    H125076   6.598   6.447   0.779  0.2603 -1.0637 -0.0391
 1195TIP3    H225077   6.532   6.506   0.656  0.4032 -0.0383  0.3634
 1196TIP3   OH225078   3.957   6.187  11.484  0.5531  0.3344 -0.3858
 1196TIP3    H125079   4.040   6.186  11.435  2.2423  0.3694  2.2535
 1196TIP3    H225080   3.979   6.231  11.566 -2.6740  2.2543 -0.4033
 1197TIP3   OH225081   5.246   4.085  13.631  0.2394 -0.2069 -0.1975
 1197TIP3    H125082   5.267   4.058  13.720 -0.6732  1.2531  0.5070
 1197TIP3    H225083   5.156   4.055  13.617  0.6876 -1.2169 -0.9726
 1198TIP3   OH225084   3.387   6.321   4.414  0.7413 -0.4147 -0.1743
 1198TIP3    H125085   3.429   6.239   4.386 -2.7131 -1.7379 -2.0526
 1198TIP3    H225086   3.388   6.316   4.510  3.4268 -1.0150 -0.1555
 1199TIP3   OH225087   0.765   6.781  13.200  0.2274  0.1083 -0.2354
 1199TIP3    H125088   0.675   6.788  13.229  0.2751  0.6267 -0.2115
 1199TIP3    H225089   0.761   6.721  13.125  0.3316 -2.5415  1.7695
 1200TIP3   OH225090   4.845   5.861  13.193  0.3878 -0.2121 -0.5476
 1200TIP3    H125091   4.803   5.798  13.135 -1.0005 -1.8319  2.0400
 1200TIP3    H225092   4.775   5.892  13.250  1.7428  0.9859  0.5555
 1201TIP3   OH225093   3.377   6.034   3.149  0.4005  0.2500 -0.6048
 1201TIP3    H125094   3.358   6.041   3.056 -0.4755 -0.4465 -0.4894
 1201TIP3    H225095   3.311   5.973   3.183  0.1402  1.1693  0.6253
 1202TIP3   OH225096   3.564   4.769   3.517 -0.1149 -0.5888  0.2319
 1202TIP3    H125097   3.497   4.791   3.452 -1.0253  2.7242  2.1240
 1202TIP3    H225098   3.645   4.765   3.466 -1.2302 -1.4921 -1.5927
 1203TIP3   OH225099   5.202   6.211   1.852  0.2004 -0.0048  0.8391
 1203TIP3    H125100   5.234   6.267   1.923  2.5533 -0.1054 -0.0596
 1203TIP3    H225101   5.249   6.129   1.863  0.9077  0.1045 -1.0227
 1204TIP3   OH225102   2.971   0.046   3.282 -0.2413  0.0624 -0.2717
 1204TIP3    H125103   3.041   0.038   3.218 -1.4135  0.3692 -1.6563
 1204TIP3    H225104   3.009   0.097   3.354  0.8166  0.6074 -1.1897
 1205TIP3   OH225105   5.344   4.912  12.602  0.0583 -0.3516 -0.1957
 1205TIP3    H125106   5.367   4.957  12.520 -1.0571 -0.3251 -0.5121
 1205TIP3    H225107   5.402   4.951  12.667 -0.6098  1.3232 -0.5294
 1206TIP3   OH225108   4.163   5.369  15.432 -0.1818 -0.5048  0.0614
 1206TIP3    H125109   4.074   5.387  15.404 -0.0628  0.7446  0.4144
 1206TIP3    H225110   4.210   5.452  15.419  0.5144 -0.6545  1.4154
 1207TIP3   OH225111   1.611   2.846   0.269  0.2682 -0.2899  0.0935
 1207TIP3    H125112   1.674   2.855   0.198  0.0690 -0.0852 -0.0578
 1207TIP3    H225113   1.665   2.833   0.347  0.4894 -0.4014 -0.0770
 1208TIP3   OH225114   4.665   1.888  15.834  0.0822 -0.0709  0.1693
 1208TIP3    H125115   4.654   1.831  15.758  0.2653 -1.1554  0.9386
 1208TIP3    H225116   4.752   1.927  15.822  0.5447 -1.0316  0.3333
 1209TIP3   OH225117   3.191   6.579  14.117  0.5915  0.5675 -0.4930
 1209TIP3    H125118   3.138   6.526  14.177  1.1617  0.2494 -0.2645
 1209TIP3    H225119   3.128   6.638  14.075 -0.3820 -1.5565 -2.1715
 1210TIP3   OH225120   1.286   4.452   1.552 -0.2090 -0.4419 -0.4120
 1210TIP3    H125121   1.314   4.543   1.548 -0.0348 -0.2830  2.4042
 1210TIP3    H225122   1.357   4.403   1.510  0.6204  0.5602 -0.2228
 1211TIP3   OH225123   0.071   1.508   2.586  0.4469 -0.9501  0.1232
 1211TIP3    H125124   0.017   1.429   2.594 -0.4388 -0.4338 -0.6188
 1211TIP3    H225125   0.147   1.480   2.535  0.1252 -1.3173 -0.1589
 1212TIP3   OH225126   2.589   6.158   1.914 -0.4506  0.1631  0.2404
 1212TIP3    H125127   2.653   6.093   1.945  0.9145  2.0998  1.6923
 1212TIP3    H225128   2.511   6.107   1.894  0.6918 -1.9726  0.9185
 1213TIP3   OH225129   4.198   1.828  13.445 -0.0600  0.3724  0.2583
 1213TIP3    H125130   4.193   1.812  13.351 -0.6184  1.5277  0.0766
 1213TIP3    H225131   4.207   1.741  13.484 -0.9998 -0.2157 -0.7933
 1214TIP3   OH225132   1.708   0.512   0.161 -0.4325  0.3454  0.5183
 1214TIP3    H125133   1.623   0.508   0.204 -0.8488 -2.1338 -0.3871
 1214TIP3    H225134   1.689   0.533   0.070 -0.0199  0.4527  0.4519
 1215TIP3   OH225135   4.628   2.458  10.346  0.0361  0.2053 -0.1716
 1215TIP3    H125136   4.685   2.381  10.336  1.2083  1.0531 -0.1813
 1215TIP3    H225137   4.568   2.434  10.417  0.4502 -0.6697 -0.0996
 1216TIP3   OH225138   3.593   4.090   4.714 -0.3092 -0.7313 -0.1438
 1216TIP3    H125139   3.506   4.056   4.696 -0.4603 -0.2079 -0.4314
 1216TIP3    H225140   3.653   4.023   4.682 -0.6011 -1.7895  1.4231
 1217TIP3   OH225141   4.051   4.004  11.307  0.2031 -0.1356 -0.3050
 1217TIP3    H125142   4.020   4.094  11.317  3.8626  1.0749  2.4697
 1217TIP3    H225143   4.138   4.013  11.267 -0.0923 -2.6531 -1.6932
 1218TIP3   OH225144   6.130   0.375   2.730  0.1036 -0.2111  1.1496
 1218TIP3    H125145   6.136   0.463   2.694 -0.9405 -0.6929 -0.2617
 1218TIP3    H225146   6.190   0.322   2.676 -1.4863 -0.9428  0.0354
 1219TIP3   OH225147   4.473   3.205  13.604 -0.1036  0.3233  0.6597
 1219TIP3    H125148   4.471   3.115  13.638 -1.4219  0.1259  0.1184
 1219TIP3    H225149   4.382   3.223  13.581  0.4796  1.0378 -1.2502
 1220TIP3   OH225150   6.124   5.968   5.529  0.1894  0.1909  0.2955
 1220TIP3    H125151   6.193   6.030   5.551 -0.3139  0.4911  1.0468
 1220TIP3    H225152   6.087   6.002   5.448  0.3770  0.4831  0.3297
 1221TIP3   OH225153   1.405   0.628   0.555  0.3893  0.3688 -0.4002
 1221TIP3    H125154   1.329   0.670   0.595  0.7089  0.3292  0.2582
 1221TIP3    H225155   1.469   0.698   0.545  0.2767  0.3956 -0.9264
 1222TIP3   OH225156   0.108   5.636  14.137 -0.3563 -0.3094 -0.5517
 1222TIP3    H125157   0.199   5.604  14.141 -0.1005  0.5180  1.0471
 1222TIP3    H225158   0.079   5.636  14.228 -1.1555  1.6622 -0.7569
 1223TIP3   OH225159   1.102   6.478   2.273  0.3520 -0.2718  0.1776
 1223TIP3    H125160   1.061   6.534   2.207  1.7952  1.7948  0.9543
 1223TIP3    H225161   1.058   6.500   2.355 -0.3372 -1.6620  0.2059
 1224TIP3   OH225162   2.715   2.544   0.974  0.0882  0.1950 -0.5862
 1224TIP3    H125163   2.779   2.487   1.017  0.5360  2.8406  2.6804
 1224TIP3    H225164   2.667   2.486   0.915  2.8293 -2.7293 -0.2438
 1225TIP3   OH225165   2.376   1.736  13.165 -0.0127 -0.3756 -0.5679
 1225TIP3    H125166   2.390   1.668  13.231 -2.4926 -1.9721 -1.5617
 1225TIP3    H225167   2.359   1.815  13.216  2.2082 -0.5823  0.6156
 1226TIP3   OH225168   1.594   4.249  11.472  0.0290 -0.3150  0.2595
 1226TIP3    H125169   1.612   4.265  11.379  1.4645 -0.7953  0.4350
 1226TIP3    H225170   1.680   4.253  11.514 -0.7549  1.3808  1.8170
 1227TIP3   OH225171   1.392   0.420   5.506  0.6161 -0.2939 -0.4731
 1227TIP3    H125172   1.353   0.498   5.467 -1.2804 -0.1197  1.6042
 1227TIP3    H225173   1.341   0.405   5.586  3.0981 -1.6902  0.9610
 1228TIP3   OH225174   3.367   2.347  15.877 -0.4103  0.3700 -0.4145
 1228TIP3    H125175   3.336   2.279  15.817  0.7077 -0.3432 -0.2098
 1228TIP3    H225176   3.439   2.390  15.829 -0.2259  0.5127 -0.0142
 1229TIP3   OH225177   6.194   5.464   4.917  0.0675  0.4448  0.0637
 1229TIP3    H125178   6.216   5.469   4.824  1.2638  1.5756  0.3743
 1229TIP3    H225179   6.256   5.523   4.960 -0.1044 -0.4582  1.6506
 1230TIP3   OH225180   4.401   3.259  14.646  0.5361  0.1465 -0.3049
 1230TIP3    H125181   4.444   3.190  14.597  1.1026 -0.4809  1.0235
 1230TIP3    H225182   4.453   3.337  14.630  0.5476  0.0162 -0.9143
 1231TIP3   OH225183   5.856   6.058  15.237 -0.2757  0.0427  0.3301
 1231TIP3    H125184   5.832   5.987  15.297 -0.3183  1.8902  2.6340
 1231TIP3    H225185   5.777   6.074  15.186 -0.8990 -0.2689  1.1703
 1232TIP3   OH225186   5.457   2.307   1.892 -0.0515 -0.2701 -0.7653
 1232TIP3    H125187   5.415   2.221   1.899 -0.5571  0.0129 -0.2886
 1232TIP3    H225188   5.387   2.370   1.909  0.9502  0.1769  2.1584
 1233TIP3   OH225189   0.592   5.042  17.121 -0.1824 -0.9115  0.2003
 1233TIP3    H125190   0.532   5.112  17.095  0.9262  0.1278  0.3953
 1233TIP3    H225191   0.596   5.048  17.217  1.4582  0.0859  0.0980
 1234TIP3   OH225192   6.006   5.721  11.465  0.3016  0.2158 -0.0202
 1234TIP3    H125193   5.926   5.771  11.448  0.6956  0.8169 -0.1186
 1234TIP3    H225194   6.038   5.698  11.378  0.1017 -0.2519  0.0247
 1235TIP3   OH225195   1.925   4.160  10.925 -0.2485 -0.5867  0.2185
 1235TIP3    H125196   1.936   4.212  11.005  1.4138 -1.4139  0.5750
 1235TIP3    H225197   1.854   4.100  10.945 -0.4099 -0.2186  0.7705
 1236TIP3   OH225198   2.833   3.037  14.459  0.2542  0.3072  0.3771
 1236TIP3    H125199   2.738   3.033  14.449  0.4591  0.2346 -2.0476
 1236TIP3    H225200   2.847   3.028  14.554 -2.0228 -2.0050  0.6185
 1237TIP3   OH225201   0.957   4.951  11.718 -0.0956  0.0981 -0.5395
 1237TIP3    H125202   1.007   4.979  11.795  0.0378  0.7862 -0.8703
 1237TIP3    H225203   1.024   4.928  11.653 -0.2065  0.3020 -0.7281
 1238TIP3   OH225204   3.626   0.670   2.736 -0.2044  0.1016 -0.1613
 1238TIP3    H125205   3.616   0.591   2.790  1.2208  0.3443  0.4971
 1238TIP3    H225206   3.553   0.726   2.762  1.0802  0.6992  2.4149
 1239TIP3   OH225207   6.418   2.149  12.604  0.0395 -0.7252  0.3067
 1239TIP3    H125208   6.359   2.140  12.529  0.3484  3.6830 -0.7331
 1239TIP3    H225209   6.506   2.153  12.565  0.4127 -0.4950  1.1448
 1240TIP3   OH225210   3.326   1.324  13.876  1.0142 -0.2305  0.0713
 1240TIP3    H125211   3.279   1.243  13.859 -1.1512  0.8228  0.6079
 1240TIP3    H225212   3.358   1.315  13.966 -0.7413  0.1366  0.7753
 1241TIP3   OH225213   5.953   4.235   1.482 -0.2541  0.6235 -0.1140
 1241TIP3    H125214   5.875   4.278   1.446 -0.6462  0.4456  0.5096
 1241TIP3    H225215   5.935   4.141   1.474 -0.4640  0.5784  0.7753
 1242TIP3   OH225216   1.590   4.450   0.421  0.4331 -0.1991  0.1928
 1242TIP3    H125217   1.530   4.405   0.362 -0.6399  2.9072 -1.2780
 1242TIP3    H225218   1.675   4.445   0.376  0.4443 -1.0975  0.2888
 1243TIP3   OH225219   1.664   1.673  15.473  0.4376  0.2317  0.3088
 1243TIP3    H125220   1.719   1.742  15.435 -0.3233  1.1486  0.8163
 1243TIP3    H225221   1.575   1.693  15.442 -0.0566  0.4872  1.8121
 1244TIP3   OH225222   5.848   6.524   3.454 -0.6119  0.9391 -0.0803
 1244TIP3    H125223   5.875   6.590   3.389  2.3985 -0.2067 -0.1414
 1244TIP3    H225224   5.845   6.442   3.405  1.8004  0.0354  1.1505
 1245TIP3   OH225225   0.036   5.097  14.670  0.3880 -0.0704  0.1267
 1245TIP3    H125226   0.022   5.058  14.583  1.4915  2.0240 -1.0682
 1245TIP3    H225227   0.062   5.024  14.725  0.0198 -1.4052 -1.3873
 1246TIP3   OH225228   0.656   0.486   1.866 -0.4034 -0.8009 -0.2014
 1246TIP3    H125229   0.593   0.445   1.926  0.6029  0.2548  1.6448
 1246TIP3    H225230   0.669   0.420   1.797  0.0358 -2.9963  1.8512
 1247TIP3   OH225231   5.716   0.169  12.200 -0.1980  0.0293  0.0920
 1247TIP3    H125232   5.765   0.111  12.259 -1.4724 -0.6697  0.4943
 1247TIP3    H225233   5.639   0.118  12.175 -1.0385  1.3352 -0.0464
 1248TIP3   OH225234   0.426   0.076   5.459 -0.1702 -0.3338 -0.1566
 1248TIP3    H125235   0.392   0.103   5.373  2.6570 -0.3007 -1.3883
 1248TIP3    H225236   0.502   0.021   5.438  2.3854  1.9428  2.2219
 1249TIP3   OH225237   3.680   5.592  16.427 -0.1606  0.0965 -0.2615
 1249TIP3    H125238   3.754   5.652  16.424  0.6504 -0.8594 -0.0372
 1249TIP3    H225239   3.609   5.643  16.465  0.1546  1.2537 -1.1718
 1250TIP3   OH225240   5.001   2.676  16.822 -0.3705 -0.4168 -0.2463
 1250TIP3    H125241   5.093   2.661  16.844 -0.5379 -0.9109  0.1400
 1250TIP3    H225242   4.953   2.640  16.896 -0.8654  0.2693 -0.2204
 1251TIP3   OH225243   2.318   3.145  16.900 -0.5694  0.3729  0.2123
 1251TIP3    H125244   2.247   3.137  16.836 -0.8318  1.3024  0.3799
 1251TIP3    H225245   2.398   3.125  16.850 -0.7745  1.0484 -0.3969
 1252TIP3   OH225246   5.146   3.501  10.392 -0.0139 -0.0677 -0.7220
 1252TIP3    H125247   5.242   3.509  10.397 -0.1367  1.3071 -0.0284
 1252TIP3    H225248   5.127   3.516  10.299  0.4244 -0.0232 -0.8115
 1253TIP3   OH225249   1.731   3.056  15.183 -0.1067 -0.4622  0.3072
 1253TIP3    H125250   1.814   3.099  15.199  0.1497 -1.2644  1.2185
 1253TIP3    H225251   1.725   2.989  15.250 -1.4780 -0.4395  0.2404
 1254TIP3   OH225252   3.728   4.290   0.519  0.9403  0.9068  0.2350
 1254TIP3    H125253   3.713   4.320   0.608 -1.1462 -1.3560  0.7516
 1254TIP3    H225254   3.645   4.305   0.473  1.2916  0.1358 -0.7107
 1255TIP3   OH225255   5.129   2.042   3.444 -0.4674 -0.1661 -0.6614
 1255TIP3    H125256   5.189   2.064   3.373 -0.3501 -0.1296 -0.5511
 1255TIP3    H225257   5.185   2.032   3.521 -0.7763  1.5072 -0.1899
 1256TIP3   OH225258   0.895   2.850  16.341  0.0236  0.0464 -0.2097
 1256TIP3    H125259   0.945   2.924  16.374  2.7767 -1.9650  0.5016
 1256TIP3    H225260   0.875   2.872  16.250  1.2895  1.4271 -0.1867
 1257TIP3   OH225261   6.371   0.875   4.850  0.6131 -0.0725 -0.2803
 1257TIP3    H125262   6.452   0.861   4.801  0.3910 -2.6118 -0.0609
 1257TIP3    H225263   6.399   0.924   4.928  2.0523 -1.2397 -0.0048
 1258TIP3   OH225264   5.426   5.343  11.966  0.2459  0.7911  0.3000
 1258TIP3    H125265   5.487   5.409  11.933  1.0524  1.1134  2.2817
 1258TIP3    H225266   5.473   5.260  11.959 -0.6719  0.3886 -1.9486
 1259TIP3   OH225267   5.442   6.017   5.028 -0.0554 -0.2851  0.3497
 1259TIP3    H125268   5.479   5.930   5.013 -0.4887 -0.1557 -1.8162
 1259TIP3    H225269   5.514   6.077   5.012 -0.7486 -0.0874 -2.8911
 1260TIP3   OH225270   1.400   6.458  12.426  1.0812 -0.5567  0.1784
 1260TIP3    H125271   1.414   6.459  12.520  1.3766 -2.5424  0.2008
 1260TIP3    H225272   1.335   6.527  12.411 -0.9370 -1.8871  2.1846
 1261TIP3   OH225273   4.271   2.276   2.937 -0.5261 -0.3796 -0.0997
 1261TIP3    H125274   4.225   2.261   2.854 -0.1056 -1.9778 -0.0812
 1261TIP3    H225275   4.363   2.257   2.917 -0.0799  1.2260  0.2591
 1262TIP3   OH225276   1.893   3.354  13.814 -0.1216 -0.1589 -0.2309
 1262TIP3    H125277   1.904   3.272  13.766  1.0659  1.3294 -2.7549
 1262TIP3    H225278   1.952   3.347  13.889 -0.0564 -1.5876 -0.4014
 1263TIP3   OH225279   2.747   4.597   1.310  0.2030 -0.4120 -0.0269
 1263TIP3    H125280   2.681   4.547   1.357  0.9336 -1.4429 -0.0672
 1263TIP3    H225281   2.720   4.591   1.218 -0.0221 -0.2309  0.0241
 1264TIP3   OH225282   6.081   2.273   4.673  0.4344 -0.7498 -0.8144
 1264TIP3    H125283   6.029   2.272   4.592  0.5245 -1.4158 -0.8747
 1264TIP3    H225284   6.123   2.187   4.675  0.0392 -0.9355  0.1873
 1265TIP3   OH225285   5.495   4.679   2.466  0.0733  0.2496  0.0103
 1265TIP3    H125286   5.528   4.767   2.483  0.3718 -0.0670  1.1888
 1265TIP3    H225287   5.572   4.623   2.475  0.4342  0.0680 -3.2319
 1266TIP3   OH225288   5.590   4.098  13.795  0.2507  0.2763 -0.3740
 1266TIP3    H125289   5.537   4.090  13.715 -3.0037  0.5576  1.5504
 1266TIP3    H225290   5.609   4.007  13.820  0.6601  0.1662 -1.0660
 1267TIP3   OH225291   6.068   5.071  13.809  0.3476 -0.5012 -0.3611
 1267TIP3    H125292   6.047   5.121  13.888  1.2359 -2.0898  0.9487
 1267TIP3    H225293   6.162   5.083  13.798  0.1111  0.3389 -1.6778
 1268TIP3   OH225294   1.953   3.948   3.716  0.7344 -0.3489 -0.4647
 1268TIP3    H125295   1.949   3.857   3.689 -0.6273  0.0043 -1.5589
 1268TIP3    H225296   2.046   3.965   3.731  0.8602 -2.4305  1.7034
 1269TIP3   OH225297   5.812   1.863  11.466 -0.9142 -0.8433  0.4275
 1269TIP3    H125298   5.846   1.949  11.440 -1.1991 -0.4645  1.2492
 1269TIP3    H225299   5.723   1.861  11.431 -0.6779 -1.0812 -0.1636
 1270TIP3   OH225300   2.382   5.393   0.645 -0.0849 -0.3944  0.1101
 1270TIP3    H125301   2.321   5.320   0.634 -0.7547 -0.5279  3.5592
 1270TIP3    H225302   2.460   5.353   0.684 -0.1253  0.5597  1.2168
 1271TIP3   OH225303   1.012   0.913  13.289  0.0965 -0.2500  0.2404
 1271TIP3    H125304   0.940   0.868  13.333 -0.4256  0.2642 -0.0708
 1271TIP3    H225305   1.080   0.920  13.356 -0.2395 -0.5184  0.6166
 1272TIP3   OH225306   1.967   2.659   6.574 -0.2053 -0.1809 -0.6475
 1272TIP3    H125307   2.004   2.731   6.627  0.2261  1.3161 -2.8417
 1272TIP3    H225308   1.896   2.624   6.628  0.0292  1.4319  0.8062
 1273TIP3   OH225309   3.129   2.531  12.809 -0.9720 -0.3542  0.0110
 1273TIP3    H125310   3.096   2.602  12.864 -2.3172 -1.6957  1.0149
 1273TIP3    H225311   3.223   2.529  12.825 -1.0329  0.6961  0.5501
 1274TIP3   OH225312   3.249   0.330  13.679  0.6706  0.3751  0.3594
 1274TIP3    H125313   3.326   0.291  13.720 -0.1147 -0.7045  0.8449
 1274TIP3    H225314   3.276   0.346  13.588  1.6498  0.5657  0.6754
 1275TIP3   OH225315   5.618   3.865  17.220 -0.3477 -0.5139 -0.1134
 1275TIP3    H125316   5.703   3.896  17.250 -0.6367 -0.2079  0.4093
 1275TIP3    H225317   5.628   3.852  17.126  1.0177 -2.8563  0.2769
 1276TIP3   OH225318   6.730   5.558   4.797  0.2982 -0.3546  0.2805
 1276TIP3    H125319   6.706   5.465   4.800 -0.8667 -0.2124 -2.2721
 1276TIP3    H225320   6.654   5.604   4.833  0.7993 -0.3309  1.3641
 1277TIP3   OH225321   2.284   6.373  15.410  0.0333 -0.5754 -0.3718
 1277TIP3    H125322   2.378   6.358  15.417  0.0333 -0.6092 -0.4472
 1277TIP3    H225323   2.271   6.404  15.321 -0.0114 -0.4493 -0.3216
 1278TIP3   OH225324   5.289   5.699   1.912 -0.3536 -0.4054 -0.4433
 1278TIP3    H125325   5.254   5.611   1.922  0.5877 -0.6910  0.6255
 1278TIP3    H225326   5.224   5.756   1.954 -1.8924 -0.3131 -2.7579
 1279TIP3   OH225327   0.162   3.582  12.141  0.2180  0.3574 -0.1855
 1279TIP3    H125328   0.237   3.554  12.090  0.3690 -0.3643  0.4214
 1279TIP3    H225329   0.168   3.678  12.143 -0.3958  0.4980 -2.4153
 1280TIP3   OH225330   6.370   0.448  13.529 -0.1588  0.3045  0.0269
 1280TIP3    H125331   6.287   0.495  13.538 -0.2927  0.2665 -0.9064
 1280TIP3    H225332   6.436   0.517  13.520 -0.1763  0.3333  0.1299
 1281TIP3   OH225333   4.626   2.720  15.810  0.4150 -0.4502  0.4171
 1281TIP3    H125334   4.705   2.708  15.864  0.4605 -3.1447 -0.1383
 1281TIP3    H225335   4.600   2.810  15.828  2.7361  0.0548  1.8090
 1282TIP3   OH225336   0.690   5.455   2.153 -0.1207  0.5540  0.0396
 1282TIP3    H125337   0.613   5.469   2.209  0.6285 -1.0087  1.5583
 1282TIP3    H225338   0.668   5.376   2.103  0.4401  0.1416  0.4282
 1283TIP3   OH225339   2.868   0.440   5.067  0.1132 -0.3519 -0.8718
 1283TIP3    H125340   2.797   0.502   5.048 -0.3822  0.0624  1.8809
 1283TIP3    H225341   2.947   0.494   5.068 -0.3102  0.3628  1.4612
 1284TIP3   OH225342   2.238   3.037   4.104  0.3750 -0.3501  0.2797
 1284TIP3    H125343   2.294   3.006   4.174 -0.1340 -0.5251  0.6162
 1284TIP3    H225344   2.160   3.071   4.149 -0.1656 -0.9129 -0.2219
 1285TIP3   OH225345   3.640   1.237  13.017 -0.0479  0.3117  0.0546
 1285TIP3    H125346   3.610   1.165  13.074  2.6437 -0.4429  0.6670
 1285TIP3    H225347   3.598   1.219  12.933 -2.0999 -0.0033  1.0593
 1286TIP3   OH225348   4.149   2.935  12.417  0.5058 -0.0653 -0.2090
 1286TIP3    H125349   4.095   2.870  12.462  1.4379 -0.6327  0.1109
 1286TIP3    H225350   4.086   2.999  12.384 -0.4093 -0.9773 -0.2883
 1287TIP3   OH225351   2.552   4.204   3.643 -0.4364 -0.0413  0.7690
 1287TIP3    H125352   2.595   4.119   3.637 -1.0725 -0.4177  1.3359
 1287TIP3    H225353   2.479   4.197   3.581  0.0960  0.4554  0.0836
 1288TIP3   OH225354   2.439   1.977   3.437  0.6827 -0.4099 -0.6865
 1288TIP3    H125355   2.519   1.925   3.443  0.6239 -0.6929 -2.0039
 1288TIP3    H225356   2.468   2.067   3.456  0.6012 -0.9611  2.6082
 1289TIP3   OH225357   6.050   6.336   1.986 -0.2834  0.3820 -0.1600
 1289TIP3    H125358   6.039   6.418   2.034 -0.9548 -0.7220  1.6652
 1289TIP3    H225359   5.985   6.340   1.916 -0.5047  1.2781  0.0866
 1290TIP3   OH225360   2.657   0.208   1.766  0.0440 -0.3376  0.1563
 1290TIP3    H125361   2.749   0.185   1.779  1.1704  2.5525 -1.6223
 1290TIP3    H225362   2.650   0.299   1.797 -2.1660 -0.3869  0.0178
 1291TIP3   OH225363   5.249   5.902   6.147  0.5800 -0.2009 -0.0279
 1291TIP3    H125364   5.201   5.942   6.220  0.3664 -0.2629 -0.1332
 1291TIP3    H225365   5.204   5.818   6.132 -0.1340  0.3380 -1.0079
 1292TIP3   OH225366   2.662   3.267  13.557 -0.3073 -0.2656  0.7244
 1292TIP3    H125367   2.745   3.314  13.552  0.4704 -1.6864 -0.6112
 1292TIP3    H225368   2.598   3.328  13.520  0.4769  0.1787  0.0562
 1293TIP3   OH225369   2.567   5.053   3.411  0.3119  0.1963  0.0397
 1293TIP3    H125370   2.595   4.999   3.337 -0.1581 -2.6444  1.7600
 1293TIP3    H225371   2.531   4.990   3.473 -2.6404  2.8073  1.2287
 1294TIP3   OH225372   4.750   4.966   0.129 -0.2947  0.7131  0.1686
 1294TIP3    H125373   4.679   4.977   0.192 -0.0703  1.9010  0.2513
 1294TIP3    H225374   4.707   4.963   0.043 -0.5301  0.1487  0.3095
 1295TIP3   OH225375   4.927   4.396   5.807 -0.2575  0.5364  0.3689
 1295TIP3    H125376   4.990   4.404   5.734  0.1785 -0.5821  0.5989
 1295TIP3    H225377   4.843   4.379   5.764 -0.3282  1.5581  0.0755
 1296TIP3   OH225378   2.805   4.965   2.495  0.0433  0.0857 -0.7555
 1296TIP3    H125379   2.824   5.019   2.573 -0.1602 -1.3273  0.3081
 1296TIP3    H225380   2.861   5.001   2.427 -1.0152  2.4993 -0.4845
 1297TIP3   OH225381   1.417   0.130  11.407 -0.1323  0.1823  1.0581
 1297TIP3    H125382   1.448   0.040  11.402  0.6773  0.5006  0.2007
 1297TIP3    H225383   1.329   0.123  11.446 -0.3168 -1.0262  0.4657
 1298TIP3   OH225384   4.364   4.112   1.986  1.0995 -0.1089 -0.4148
 1298TIP3    H125385   4.278   4.093   1.949 -0.4900  0.8387  2.4992
 1298TIP3    H225386   4.392   4.192   1.941  0.1293 -0.0260 -0.8976
 1299TIP3   OH225387   6.389   5.274   6.758  0.0664  0.5247 -0.0728
 1299TIP3    H125388   6.355   5.355   6.719  0.2074  0.4475 -0.3661
 1299TIP3    H225389   6.462   5.249   6.700 -0.4468 -0.2156 -0.4180
 1300TIP3   OH225390   4.739   5.354  14.795 -0.2473 -0.4473  0.1620
 1300TIP3    H125391   4.713   5.312  14.877  0.5620 -0.2661  0.5138
 1300TIP3    H225392   4.799   5.423  14.821 -0.2425 -0.1725 -0.5590
 1301TIP3   OH225393   5.325   2.551  15.437  0.2431  0.3920  0.1368
 1301TIP3    H125394   5.390   2.480  15.439 -0.7840 -0.5799  0.9297
 1301TIP3    H225395   5.284   2.547  15.523 -1.3541  0.4900 -0.5876
 1302TIP3   OH225396   2.983   5.125  15.876 -0.3999  0.8474  0.3689
 1302TIP3    H125397   2.997   5.216  15.903 -0.8966  0.6273  1.4302
 1302TIP3    H225398   3.028   5.118  15.792  1.7440  1.4103  1.4125
 1303TIP3   OH225399   4.214   3.599   5.367 -0.2566  0.3088  0.3351
 1303TIP3    H125400   4.148   3.586   5.436 -0.2569  0.4778  0.3677
 1303TIP3    H225401   4.240   3.511   5.342 -0.7919  0.2255  0.0398
 1304TIP3   OH225402   2.115   5.597   0.519 -0.3344 -0.5264  0.6889
 1304TIP3    H125403   2.125   5.508   0.484  3.2745  0.2836 -0.8094
 1304TIP3    H225404   2.108   5.584   0.614  0.0040 -2.4403  0.5100
 1305TIP3   OH225405   3.194   5.251   6.034 -0.0436 -0.0812  0.4936
 1305TIP3    H125406   3.110   5.287   6.005 -0.4680 -0.9411  0.6108
 1305TIP3    H225407   3.259   5.301   5.986 -0.6713 -0.1765 -0.4826
 1306TIP3   OH225408   1.432   0.425  14.987 -0.4548 -0.2779 -0.0600
 1306TIP3    H125409   1.515   0.439  14.940 -0.0737 -2.7313 -0.2445
 1306TIP3    H225410   1.457   0.417  15.079 -0.5020 -0.7510 -0.0847
 1307TIP3   OH225411   6.080   6.007  17.056 -0.3443  0.2769 -0.5846
 1307TIP3    H125412   6.171   5.976  17.055  0.2576  1.9256 -0.3303
 1307TIP3    H225413   6.057   6.009  17.149 -0.5475  0.1409 -0.6314
 1308TIP3   OH225414   0.394   6.314  15.177  0.2750 -0.3673  0.6855
 1308TIP3    H125415   0.475   6.282  15.138  0.5549  1.2580 -0.1410
 1308TIP3    H225416   0.420   6.391  15.227 -0.8972  0.9484 -0.6257
 1309TIP3   OH225417   4.764   2.278   3.004  0.2302  0.5456 -1.4026
 1309TIP3    H125418   4.854   2.264   2.975 -0.0435 -3.3205 -0.8607
 1309TIP3    H225419   4.741   2.198   3.051 -2.6302  2.5322  0.9080
 1310TIP3   OH225420   4.331   5.204   2.226 -0.0111 -0.0892  0.6755
 1310TIP3    H125421   4.340   5.127   2.282 -0.6439  0.6109  1.7784
 1310TIP3    H225422   4.236   5.216   2.219  0.0681 -0.0538 -0.4107
 1311TIP3   OH225423   0.232   5.615   4.670 -0.4481 -0.0004  0.3060
 1311TIP3    H125424   0.225   5.559   4.748  1.0166 -0.4388  0.1422
 1311TIP3    H225425   0.321   5.603   4.639 -0.4167  1.6261 -0.3601
 1312TIP3   OH225426   0.848   4.422  11.298 -0.2781 -0.1841  0.3315
 1312TIP3    H125427   0.790   4.346  11.289 -1.4873  0.8106 -0.6288
 1312TIP3    H225428   0.792   4.497  11.278  1.9945  0.6728 -4.0953
 1313TIP3   OH225429   6.526   1.174  11.553 -0.0930 -0.3476  0.3039
 1313TIP3    H125430   6.571   1.159  11.470  0.8841  0.6685  0.6248
 1313TIP3    H225431   6.593   1.157  11.619 -1.2722 -2.6455  0.9904
 1314TIP3   OH225432   3.932   3.424  15.437  0.1579 -0.2538  0.5799
 1314TIP3    H125433   3.929   3.476  15.357  0.6742  0.2176  0.8566
 1314TIP3    H225434   3.850   3.374  15.437 -0.0081  0.0114 -0.0556
 1315TIP3   OH225435   0.853   6.320  17.125  0.1892  0.3373  0.5629
 1315TIP3    H125436   0.867   6.249  17.187  1.9226  1.0147  1.0270
 1315TIP3    H225437   0.820   6.278  17.046  0.3974 -0.8694  1.0997
 1316TIP3   OH225438   5.871   5.525   6.785 -0.1724 -0.2809 -0.0258
 1316TIP3    H125439   5.938   5.463   6.814 -0.3820 -0.4019  0.2039
 1316TIP3    H225440   5.793   5.501   6.835 -0.1555  0.4129  0.3467
 1317TIP3   OH225441   1.793   6.579  13.046  0.0349 -0.0946 -0.2450
 1317TIP3    H125442   1.887   6.595  13.051  0.2085 -1.2888  1.2380
 1317TIP3    H225443   1.779   6.539  12.960  0.7561  0.7561 -0.7650
 1318TIP3   OH225444   2.878   6.330  12.286 -0.7203 -0.0721  0.0503
 1318TIP3    H125445   2.950   6.348  12.226 -0.0066  0.3445  1.0008
 1318TIP3    H225446   2.890   6.238  12.311 -2.7001 -1.1642 -2.6056
 1319TIP3   OH225447   0.055   0.157   5.292 -0.2821  0.7169  0.0971
 1319TIP3    H125448   0.050   0.218   5.217 -0.8304 -0.1514 -0.5915
 1319TIP3    H225449  -0.005   0.087   5.269  0.0070  0.1333  1.0963
 1320TIP3   OH225450   0.907   6.640   4.393  0.4246 -0.6563 -0.4903
 1320TIP3    H125451   0.901   6.565   4.335 -1.4711 -1.3539  0.5322
 1320TIP3    H225452   0.817   6.664   4.411  0.9755  1.7733 -0.6231
 1321TIP3   OH225453   5.763   2.680  13.874 -0.1588 -0.4039 -0.1333
 1321TIP3    H125454   5.715   2.596  13.879 -0.4260 -0.2432  0.0693
 1321TIP3    H225455   5.793   2.685  13.784 -0.9126 -0.3006 -0.3892
 1322TIP3   OH225456   4.384   4.072  12.361  0.0712  0.5374  0.6387
 1322TIP3    H125457   4.390   4.103  12.270 -1.5734 -0.2420  0.2332
 1322TIP3    H225458   4.290   4.069  12.379  0.3207 -0.8826  1.8193
 1323TIP3   OH225459   2.356   6.188   2.166  0.4029  0.3947  0.0433
 1323TIP3    H125460   2.415   6.234   2.107  0.8583  0.2441  0.3744
 1323TIP3    H225461   2.317   6.257   2.219  1.1944  0.4014  0.6390
 1324TIP3   OH225462   2.066   4.050   2.097 -0.1723  0.3246 -0.2845
 1324TIP3    H125463   2.025   4.103   2.165 -3.2338 -2.2310  0.1230
 1324TIP3    H225464   2.074   3.963   2.137  2.4809 -0.1645 -1.6577
 1325TIP3   OH225465   1.025   2.535  14.297  0.0902  0.8961  0.2594
 1325TIP3    H125466   1.010   2.611  14.241 -2.4870  2.4795  2.8250
 1325TIP3    H225467   0.938   2.509  14.326  1.0378 -2.1245  0.7081
 1326TIP3   OH225468   5.016   0.936   2.590  0.7363  0.1588  0.2991
 1326TIP3    H125469   5.083   0.892   2.537 -0.2239  0.1260 -0.9422
 1326TIP3    H225470   5.063   1.007   2.634  1.3978  0.8468 -1.4337
 1327TIP3   OH225471   6.809   1.860  17.165 -0.1953  0.2018 -0.2617
 1327TIP3    H125472   6.728   1.895  17.129 -0.9226  1.1678  2.1425
 1327TIP3    H225473   6.863   1.936  17.185  0.6537 -0.3586 -0.3189
 1328TIP3   OH225474   3.874   0.298   5.220 -0.3879  0.8065  0.5065
 1328TIP3    H125475   3.802   0.254   5.265 -1.3005  0.5760 -1.0961
 1328TIP3    H225476   3.939   0.314   5.288 -1.1756 -0.6263  1.6395
 1329TIP3   OH225477   1.300   0.467   2.406 -0.0613  0.4786 -0.2894
 1329TIP3    H125478   1.279   0.410   2.332 -0.8382  2.0500 -1.3615
 1329TIP3    H225479   1.225   0.526   2.412  0.0040  0.4060  1.7733
 1330TIP3   OH225480   6.246   2.962  14.805  0.4211  1.0644 -0.7463
 1330TIP3    H125481   6.191   3.032  14.771  2.0827  1.5112 -2.7548
 1330TIP3    H225482   6.185   2.892  14.828 -1.1795  2.6858  0.1833
 1331TIP3   OH225483   2.788   4.238  12.794 -0.3346  0.6055  0.6197
 1331TIP3    H125484   2.771   4.157  12.747  0.5036  1.4336 -1.2258
 1331TIP3    H225485   2.708   4.257  12.842 -1.8220  0.4638 -1.6811
 1332TIP3   OH225486   4.751   5.920  13.976 -0.0781  0.8183  0.1414
 1332TIP3    H125487   4.691   5.846  13.979  2.3441 -1.2762 -0.0433
 1332TIP3    H225488   4.778   5.925  13.884  2.8403 -0.7884  0.8157
 1333TIP3   OH225489   2.790   5.932  14.650  0.1085 -0.7235 -0.1565
 1333TIP3    H125490   2.849   5.921  14.724 -0.2281 -1.1263  0.0523
 1333TIP3    H225491   2.703   5.927  14.687 -0.0703  0.5708 -0.3592
 1334TIP3   OH225492   4.857   6.768  15.585  0.1782  0.4972  0.1218
 1334TIP3    H125493   4.906   6.846  15.558  1.6125 -0.7686 -1.0642
 1334TIP3    H225494   4.810   6.741  15.507 -2.1800  1.4329  1.1234
 1335TIP3   OH225495   2.559   0.496   2.730 -0.1978 -0.2333  0.7872
 1335TIP3    H125496   2.521   0.555   2.795  3.0439  1.8551  1.0610
 1335TIP3    H225497   2.529   0.409   2.756 -3.4619  1.0140  1.6887
 1336TIP3   OH225498   2.386   5.191   5.865 -0.0512  0.0785 -0.4066
 1336TIP3    H125499   2.330   5.120   5.834  0.4842  0.3089 -2.0020
 1336TIP3    H225500   2.337   5.271   5.847 -0.1060  0.1765  0.1755
 1337TIP3   OH225501   4.312   1.313  13.447  0.0106 -0.2528  0.0319
 1337TIP3    H125502   4.255   1.343  13.376 -0.1250 -0.2512  0.1391
 1337TIP3    H225503   4.401   1.325  13.414 -0.0264  0.7975  0.2910
 1338TIP3   OH225504   5.544   5.404   3.820 -0.4629  0.2143 -0.5464
 1338TIP3    H125505   5.609   5.408   3.749 -0.7094  0.6945 -0.7496
 1338TIP3    H225506   5.591   5.434   3.897 -0.2509 -0.1026 -0.5528
 1339TIP3   OH225507   4.655   2.498   3.915  0.3631  0.0973 -0.1075
 1339TIP3    H125508   4.560   2.494   3.925  0.3857 -1.4995 -0.4059
 1339TIP3    H225509   4.679   2.416   3.872  1.7412  1.0724 -1.2951
 1340TIP3   OH225510   3.514   1.422   0.706 -0.0427  0.3158  0.3669
 1340TIP3    H125511   3.435   1.421   0.760  1.1433 -0.2963  2.1552
 1340TIP3    H225512   3.545   1.332   0.707  0.0871  0.3045 -1.2870
 1341TIP3   OH225513   6.384   6.473  15.663 -0.2111 -0.3221  0.1039
 1341TIP3    H125514   6.430   6.400  15.622 -0.1077 -0.7143  0.8863
 1341TIP3    H225515   6.308   6.433  15.706 -1.4028  0.3465 -1.3154
 1342TIP3   OH225516   5.689   3.107  13.057  0.5038  0.0117  0.0022
 1342TIP3    H125517   5.716   3.132  12.968  0.0082  0.4943 -0.0202
 1342TIP3    H225518   5.753   3.041  13.084  0.8017  0.0363 -0.6228
 1343TIP3   OH225519   2.561   3.353   1.172 -0.4256  0.6506 -0.5720
 1343TIP3    H125520   2.586   3.414   1.241  1.1826 -2.1256  1.5166
 1343TIP3    H225521   2.467   3.340   1.184 -0.0769 -0.2504  1.6197
 1344TIP3   OH225522   5.530   1.088   5.194  1.0780  1.0180 -0.4435
 1344TIP3    H125523   5.506   1.090   5.101  1.3693 -1.2116 -0.6079
 1344TIP3    H225524   5.604   1.028   5.199  0.3114  0.1322  1.3657
 1345TIP3   OH225525   4.538   6.729   3.769  0.1162 -0.0470 -0.2154
 1345TIP3    H125526   4.483   6.651   3.771 -0.8855  0.6176 -0.8153
 1345TIP3    H225527   4.506   6.778   3.693  0.1284  1.3647  0.6558
 1346TIP3   OH225528   3.253   3.808  14.144  0.4537 -0.1825 -0.0234
 1346TIP3    H125529   3.346   3.829  14.138  0.1929  0.5616 -1.9579
 1346TIP3    H225530   3.245   3.722  14.102  0.1522  0.1324 -0.6148
 1347TIP3   OH225531   6.012   5.471   3.689  0.1079  0.2267  0.3121
 1347TIP3    H125532   6.050   5.526   3.620 -0.5394  2.0921  1.3550
 1347TIP3    H225533   5.922   5.504   3.699 -0.4960 -1.4079  0.6420
 1348TIP3   OH225534   5.191   1.861  12.626 -0.0517 -0.0510  0.0944
 1348TIP3    H125535   5.153   1.781  12.589  1.0994 -0.7819  0.4256
 1348TIP3    H225536   5.286   1.847  12.621  0.2539  2.2469 -1.8472
 1349TIP3   OH225537   4.155   6.350  16.853 -0.1851  0.2652 -0.6019
 1349TIP3    H125538   4.201   6.408  16.914 -0.5552 -1.8223  1.8548
 1349TIP3    H225539   4.126   6.277  16.908  1.3241 -2.9140 -3.6781
 1350TIP3   OH225540   1.760   2.848  12.199  0.5734 -0.2603  0.3286
 1350TIP3    H125541   1.852   2.869  12.183 -0.0087  1.4986 -1.0074
 1350TIP3    H225542   1.732   2.801  12.121 -0.5173  2.3655 -1.0034
 1351TIP3   OH225543   0.991   6.372   1.494  0.3130 -0.5445  0.0169
 1351TIP3    H125544   0.926   6.344   1.559 -0.6115 -0.4923 -0.8635
 1351TIP3    H225545   1.062   6.308   1.503 -0.6536 -1.6992 -0.2196
 1352TIP3   OH225546   3.480   4.120   5.996  0.0824  0.4358  0.4293
 1352TIP3    H125547   3.394   4.150   5.968  0.1436  0.9956  0.8337
 1352TIP3    H225548   3.476   4.024   5.987 -0.1564  0.5376 -0.7382
 1353TIP3   OH225549   6.112   5.748  16.093  0.0210 -0.0920  0.0026
 1353TIP3    H125550   6.043   5.686  16.067 -1.0702  0.1199  2.1385
 1353TIP3    H225551   6.192   5.712  16.055 -0.9618 -1.4954 -0.8351
 1354TIP3   OH225552   0.086   3.488  15.562 -0.8214 -0.3610  0.0347
 1354TIP3    H125553   0.007   3.528  15.525 -0.6920  0.0059  0.1445
 1354TIP3    H225554   0.068   3.394  15.562 -0.9021 -0.3506 -0.7600
 1355TIP3   OH225555   3.259   2.789  13.386 -0.1451 -0.4182 -0.1083
 1355TIP3    H125556   3.244   2.870  13.337 -1.1806  0.9369  2.2455
 1355TIP3    H225557   3.200   2.725  13.346 -0.8150  0.5650 -0.7289
 1356TIP3   OH225558   6.313   1.204   3.026 -0.4375 -0.1244 -1.4300
 1356TIP3    H125559   6.282   1.140   2.962 -2.4518 -1.5210  0.7650
 1356TIP3    H225560   6.235   1.228   3.076  1.0041  0.9013  0.4798
 1357TIP3   OH225561   2.409   3.579   0.385 -0.3094  0.1547 -0.5583
 1357TIP3    H125562   2.320   3.612   0.380 -0.3014  0.0871 -1.3524
 1357TIP3    H225563   2.416   3.540   0.472 -1.3216 -0.5786 -0.7865
 1358TIP3   OH225564   4.821   3.241  15.430 -0.0291  0.1886 -0.1801
 1358TIP3    H125565   4.787   3.270  15.515 -1.1940  0.3159 -0.6694
 1358TIP3    H225566   4.800   3.313  15.370  1.4486  0.4259 -0.4510
 1359TIP3   OH225567   0.692   1.279  16.771  0.0224 -0.3325  0.4477
 1359TIP3    H125568   0.777   1.292  16.729  0.3479  0.7146  1.3828
 1359TIP3    H225569   0.629   1.322  16.714  0.4523  1.0235  0.9554
 1360TIP3   OH225570   1.174   1.235  16.359  0.1987 -0.6963 -0.2657
 1360TIP3    H125571   1.237   1.273  16.420 -0.1483 -1.1880  0.4210
 1360TIP3    H225572   1.219   1.236  16.274  1.5881 -2.0662  0.3994
 1361TIP3   OH225573   6.570   1.352   3.334 -0.2698 -0.2624  0.0409
 1361TIP3    H125574   6.633   1.424   3.332  0.5473 -0.8992  1.4796
 1361TIP3    H225575   6.624   1.273   3.322 -1.0399 -0.7087 -0.6102
 1362TIP3   OH225576   2.222   0.554  13.973 -0.3092 -0.6008  0.3841
 1362TIP3    H125577   2.190   0.606  14.047 -0.5384  0.9249 -0.7257
 1362TIP3    H225578   2.147   0.503  13.945 -0.1547 -1.3776  1.3270
 1363TIP3   OH225579   5.559   0.345   4.314 -0.1467 -0.1158 -0.1980
 1363TIP3    H125580   5.625   0.297   4.263 -0.2624 -1.4216  0.8281
 1363TIP3    H225581   5.608   0.417   4.354  1.4411 -2.6093  2.7935
 1364TIP3   OH225582   3.422   1.400  13.102  0.1249 -0.1667 -0.3785
 1364TIP3    H125583   3.445   1.375  13.191  1.2304 -0.1663 -0.6439
 1364TIP3    H225584   3.501   1.441  13.068 -1.4166  3.3054 -0.1536
 1365TIP3   OH225585   1.828   4.295   1.250 -0.3361 -0.1544 -0.2421
 1365TIP3    H125586   1.755   4.242   1.283 -0.5807  0.5614  0.4100
 1365TIP3    H225587   1.871   4.328   1.329  1.1668 -1.1726 -0.5987
 1366TIP3   OH225588   0.443   5.360   4.987 -0.2024  0.2424 -0.0200
 1366TIP3    H125589   0.368   5.405   4.949  1.5609  2.3381 -1.2855
 1366TIP3    H225590   0.453   5.280   4.936 -0.5404  0.8198 -1.0017
 1367TIP3   OH225591   1.567   2.457  14.442  0.0786 -0.6830  0.9542
 1367TIP3    H125592   1.523   2.482  14.523  0.5489 -0.4754  1.1462
 1367TIP3    H225593   1.636   2.522  14.431 -1.9960  1.3904 -1.3607
 1368TIP3   OH225594   3.407   5.091  16.854  0.0475 -0.1153 -0.6103
 1368TIP3    H125595   3.364   5.072  16.771  1.1433 -0.1140 -1.1813
 1368TIP3    H225596   3.448   5.176  16.842  1.6574 -0.8644 -0.6702
 1369TIP3   OH225597   5.535   3.371  17.230  0.5583  0.1021 -0.5888
 1369TIP3    H125598   5.571   3.460  17.222 -1.1249  1.1697  2.0784
 1369TIP3    H225599   5.442   3.382  17.212  0.4200 -1.2618 -0.7800
 1370TIP3   OH225600   5.902   0.047  17.056  0.5025 -0.4378  0.1123
 1370TIP3    H125601   5.953   0.126  17.039  1.4007 -1.4881 -2.6703
 1370TIP3    H225602   5.847   0.036  16.978  1.0035 -2.9387  0.0214
 1371TIP3   OH225603   1.547   1.877  12.589  0.1274  0.8547 -0.6197
 1371TIP3    H125604   1.528   1.785  12.603 -1.2242  1.3756  1.4236
 1371TIP3    H225605   1.465   1.914  12.557  0.4029  1.4858 -0.6186
 1372TIP3   OH225606   1.340   1.106  10.476 -0.2529 -0.3272 -0.0728
 1372TIP3    H125607   1.366   1.197  10.465  0.0503 -0.4962 -0.8211
 1372TIP3    H225608   1.259   1.110  10.527  0.2189  0.3049  0.6363
 1373TIP3   OH225609   1.996   4.232  13.811  0.1329 -0.1880  0.2101
 1373TIP3    H125610   2.047   4.227  13.731 -2.3016 -3.0991 -1.3476
 1373TIP3    H225611   2.033   4.164  13.868  0.0494 -0.0766  0.4014
 1374TIP3   OH225612   0.332   4.454  13.904  0.4636 -0.2432  0.0485
 1374TIP3    H125613   0.388   4.383  13.871  1.2441 -0.3322  1.4904
 1374TIP3    H225614   0.265   4.464  13.837 -0.1822 -2.9419  0.1944
 1375TIP3   OH225615   3.405   5.880   5.246 -0.2244 -0.0399  0.4559
 1375TIP3    H125616   3.426   5.862   5.338 -0.4590  0.1633  0.5493
 1375TIP3    H225617   3.316   5.847   5.235  0.0513 -0.6911  0.1167
 1376TIP3   OH225618   5.698   3.293   3.903  0.1212  0.1817 -0.1356
 1376TIP3    H125619   5.767   3.233   3.876  1.0432  1.4217 -0.6026
 1376TIP3    H225620   5.622   3.268   3.850  0.3470 -0.8303 -0.0100
 1377TIP3   OH225621   3.804   0.541  14.994 -0.2178 -0.3094  0.1787
 1377TIP3    H125622   3.867   0.596  15.040 -2.3185  0.9469  1.7928
 1377TIP3    H225623   3.830   0.545  14.903  1.9241  0.2495  0.7679
 1378TIP3   OH225624   5.109   6.551  12.666  0.2550 -0.1712 -0.1442
 1378TIP3    H125625   5.104   6.461  12.699  1.7509 -0.1634  0.1848
 1378TIP3    H225626   5.200   6.562  12.638  0.2162  1.3745  0.2205
 1379TIP3   OH225627   1.540   0.215   3.656  0.5470 -0.8202 -0.0225
 1379TIP3    H125628   1.584   0.226   3.740  0.2076  1.5069 -0.0951
 1379TIP3    H225629   1.529   0.120   3.647  1.7312 -1.1926  1.9401
 1380TIP3   OH225630   2.916   0.968   5.318  0.5120 -0.0135  0.0946
 1380TIP3    H125631   2.850   1.033   5.293  1.0980  0.4379 -0.3314
 1380TIP3    H225632   2.912   0.966   5.414 -0.4673 -0.3741  0.0550
 1381TIP3   OH225633   6.321   2.707  11.549  0.1684  0.0222  0.6909
 1381TIP3    H125634   6.406   2.751  11.548  0.0274  0.3319  1.5680
 1381TIP3    H225635   6.338   2.622  11.509  0.4989  0.7585 -0.8083
 1382TIP3   OH225636   1.449   1.764  13.307 -0.0157 -0.2666  0.3938
 1382TIP3    H125637   1.464   1.843  13.359 -0.5769  1.1388 -1.4807
 1382TIP3    H225638   1.537   1.735  13.283  0.1783 -0.0450  0.8155
 1383TIP3   OH225639   6.606   6.009  11.358  0.5508 -0.4691  0.3042
 1383TIP3    H125640   6.667   6.074  11.323  0.5049 -1.8020 -2.5412
 1383TIP3    H225641   6.534   6.061  11.393  1.3560  1.0399 -0.1736
 1384TIP3   OH225642   4.492   2.404  10.594  0.5687  0.9696  0.6196
 1384TIP3    H125643   4.400   2.387  10.576  0.9106 -0.3693  0.0102
 1384TIP3    H225644   4.509   2.359  10.677  0.4353  2.1437  1.3165
 1385TIP3   OH225645   3.925   0.116  11.452 -0.1054 -0.6314  0.4318
 1385TIP3    H125646   3.847   0.146  11.404  0.9665 -0.6876 -1.4386
 1385TIP3    H225647   3.958   0.194  11.495 -0.7536 -0.4404  0.5944
 1386TIP3   OH225648   1.751   1.226  15.729 -0.3403 -0.1988  0.8749
 1386TIP3    H125649   1.724   1.312  15.696  0.9864 -0.4199 -0.9542
 1386TIP3    H225650   1.842   1.217  15.699 -0.5524 -2.3724  0.7567
 1387TIP3   OH225651   0.431   3.513  13.119  0.5142  0.3239 -0.2314
 1387TIP3    H125652   0.349   3.488  13.162  0.4385 -0.7963 -1.0088
 1387TIP3    H225653   0.484   3.550  13.190  0.5085 -1.7650  0.9293
 1388TIP3   OH225654   2.784   6.213  16.653  0.2304 -0.1060 -0.4046
 1388TIP3    H125655   2.726   6.139  16.633  0.5233 -0.2305 -0.8044
 1388TIP3    H225656   2.849   6.212  16.583  0.9494 -0.1944  0.2495
 1389TIP3   OH225657   6.537   0.356  11.741 -0.7085 -0.5695  0.0994
 1389TIP3    H125658   6.534   0.449  11.761  0.3886 -0.2612 -1.0118
 1389TIP3    H225659   6.446   0.327  11.747 -1.2235  0.8085 -0.5625
 1390TIP3   OH225660   1.158   1.777   1.683  0.2930 -0.4871 -1.0229
 1390TIP3    H125661   1.155   1.712   1.752 -0.8283 -0.3803 -0.9547
 1390TIP3    H225662   1.087   1.753   1.624 -0.3637  0.8533 -0.8217
 1391TIP3   OH225663   4.384   4.956  15.087 -0.1860 -0.1930  0.2329
 1391TIP3    H125664   4.331   5.000  15.020 -0.0269  1.1524  0.9399
 1391TIP3    H225665   4.375   5.012  15.164  0.7546 -0.9628  0.9246
 1392TIP3   OH225666   4.634   2.107  12.398  0.1814 -0.4518  1.0078
 1392TIP3    H125667   4.549   2.150  12.406 -0.3815 -0.9377 -1.4943
 1392TIP3    H225668   4.650   2.102  12.303  1.1663 -3.8804  1.2188
 1393TIP3   OH225669   1.113   4.358   1.264 -0.4347 -0.0046  0.3941
 1393TIP3    H125670   1.127   4.434   1.208  1.2864 -1.3881 -1.2356
 1393TIP3    H225671   1.160   4.377   1.345  2.1231 -0.2259 -0.9375
 1394TIP3   OH225672   1.194   5.943  15.803  0.0864  0.3248  0.2418
 1394TIP3    H125673   1.184   5.859  15.758 -0.1929  0.9827 -0.9901
 1394TIP3    H225674   1.274   5.981  15.766 -1.2764  1.8177 -1.3548
 1395TIP3   OH225675   1.669   5.674   1.935 -0.4144 -0.0603 -0.1030
 1395TIP3    H125676   1.656   5.631   1.850 -0.9059  1.4933 -0.8495
 1395TIP3    H225677   1.712   5.607   1.989  1.2973 -0.6110 -2.0256
 1396TIP3   OH225678   2.198   5.983  12.460 -0.2190 -0.2728 -0.2436
 1396TIP3    H125679   2.258   5.987  12.534 -0.8692  1.9769  0.2233
 1396TIP3    H225680   2.255   5.977  12.383  0.6364  1.6508  0.1979
 1397TIP3   OH225681   1.090   6.010   1.127  0.0071  0.3860 -0.3801
 1397TIP3    H125682   1.179   6.046   1.131  0.3521 -0.3426 -1.2960
 1397TIP3    H225683   1.048   6.059   1.056 -0.4034  0.8884  0.2040
 1398TIP3   OH225684   1.084   0.163   2.893  0.2099  0.3861  0.0218
 1398TIP3    H125685   1.007   0.167   2.951  0.0817 -0.9762 -0.0093
 1398TIP3    H225686   1.136   0.091   2.928  0.6427  0.2093 -0.9554
 1399TIP3   OH225687   1.728   0.122   0.381 -0.2050 -0.5377 -0.0179
 1399TIP3    H125688   1.667   0.054   0.410 -3.9352  2.4817  0.0307
 1399TIP3    H225689   1.724   0.189   0.449  1.6867  0.6973 -1.0236
 1400TIP3   OH225690   4.695   0.032   1.531  0.5684  0.2940  0.7131
 1400TIP3    H125691   4.780   0.012   1.494  1.4661  3.3212  0.8640
 1400TIP3    H225692   4.641   0.056   1.456  0.2698 -0.2563  0.7489
 1401TIP3   OH225693   2.855   2.100  14.342 -0.1347 -0.2190  0.2575
 1401TIP3    H125694   2.765   2.075  14.325 -1.3329  4.0019 -0.9779
 1401TIP3    H225695   2.900   2.086  14.259 -0.5650  0.7777 -0.1583
 1402TIP3   OH225696   2.008   0.988  14.095  0.8601  0.5707  0.3786
 1402TIP3    H125697   1.947   0.980  14.022  0.3924 -0.2845  0.8543
 1402TIP3    H225698   1.970   1.056  14.151 -0.9195 -1.5418  1.8527
 1403TIP3   OH225699   3.226   6.507   4.680 -0.2104  0.2634 -0.3414
 1403TIP3    H125700   3.156   6.571   4.669  1.0394  1.8955  0.7098
 1403TIP3    H225701   3.302   6.558   4.708  0.8111 -1.6947  0.7364
 1404TIP3   OH225702   6.377   6.348  17.257  0.0528  0.4016  0.3401
 1404TIP3    H125703   6.353   6.396  17.178 -1.8463 -0.8510  0.0975
 1404TIP3    H225704   6.465   6.313  17.238 -0.6384 -0.4554 -1.5350
 1405TIP3   OH225705   3.408   4.726  16.684 -0.2948 -0.6942  0.5054
 1405TIP3    H125706   3.492   4.725  16.730  0.0313  1.7717  0.1285
 1405TIP3    H225707   3.346   4.688  16.746  0.7688 -0.8411  1.5145
 1406TIP3   OH225708   1.426   2.114   5.434  0.5539 -0.2180  0.0639
 1406TIP3    H125709   1.507   2.064   5.423  0.9229  0.3264  0.2558
 1406TIP3    H225710   1.357   2.047   5.438  1.0043 -0.6944  0.0153
 1407TIP3   OH225711   4.222   2.086   3.495  0.1723  0.6472  0.3294
 1407TIP3    H125712   4.231   2.015   3.431 -1.5969  1.9326 -1.4817
 1407TIP3    H225713   4.149   2.059   3.551  0.6370  0.2721  0.7611
 1408TIP3   OH225714   6.417   0.109   1.149  0.4758 -0.4901  0.7025
 1408TIP3    H125715   6.365   0.168   1.095 -0.5510 -1.2245  0.8642
 1408TIP3    H225716   6.358   0.082   1.219  1.2354 -0.9494  1.1851
 1409TIP3   OH225717   0.375   2.804   3.157 -0.6619 -0.0382  0.2563
 1409TIP3    H125718   0.369   2.717   3.197  0.3235 -0.6747 -0.9094
 1409TIP3    H225719   0.467   2.828   3.166 -0.4486 -0.1218 -1.4299
 1410TIP3   OH225720   2.121   3.010   5.756 -0.1310  0.6680 -0.4862
 1410TIP3    H125721   2.174   3.011   5.676  1.4819  1.1161  0.5263
 1410TIP3    H225722   2.173   2.959   5.819 -0.3254  2.0961  0.9029
 1411TIP3   OH225723   0.773   2.919   3.335  0.1699 -0.7649 -0.1998
 1411TIP3    H125724   0.729   2.875   3.407 -1.5702  0.4169 -0.4652
 1411TIP3    H225725   0.752   2.867   3.258  0.3434 -0.9341 -0.1314
 1412TIP3   OH225726   2.986   5.903  16.502  0.3524 -0.4684  0.1007
 1412TIP3    H125727   3.001   5.878  16.411  1.3746  0.0023  0.1245
 1412TIP3    H225728   2.959   5.994  16.497 -0.7461 -0.7802  0.1976
 1413TIP3   OH225729   2.486   2.403  10.968  0.0806  0.0345  0.1194
 1413TIP3    H125730   2.390   2.406  10.968 -0.0004  0.2482 -3.1931
 1413TIP3    H225731   2.512   2.467  11.034 -2.0497  1.1393 -0.0414
 1414TIP3   OH225732   4.792   3.371   3.073  0.1470 -0.4145 -0.0028
 1414TIP3    H125733   4.871   3.325   3.046  0.4755  1.0492 -1.7383
 1414TIP3    H225734   4.722   3.329   3.024  0.0749 -0.6461  0.2934
 1415TIP3   OH225735   4.648   2.337   5.748 -0.2715 -0.0225  0.0119
 1415TIP3    H125736   4.700   2.341   5.828 -0.3784  0.5247  0.0589
 1415TIP3    H225737   4.664   2.249   5.713 -0.6437 -0.4544  0.9068
 1416TIP3   OH225738   6.819   1.608  14.492 -0.5202  0.0122 -0.1413
 1416TIP3    H125739   6.857   1.557  14.563  0.1292  0.1126 -0.4070
 1416TIP3    H225740   6.857   1.571  14.412 -1.3236 -0.1698 -0.4462
 1417TIP3   OH225741   6.585   6.688   0.246  0.1640 -0.1037  0.4193
 1417TIP3    H125742   6.639   6.715   0.321  0.4495 -0.5874  0.3900
 1417TIP3    H225743   6.624   6.734   0.172 -0.0296  0.2623  0.5407
 1418TIP3   OH225744   1.764   2.435  15.008 -0.0446  0.1531  0.1350
 1418TIP3    H125745   1.762   2.418  14.914  1.5389 -1.6682  0.3812
 1418TIP3    H225746   1.789   2.527  15.015 -1.6240  0.7289 -1.2063
 1419TIP3   OH225747   5.221   4.875  13.780  0.2665 -0.1233  0.2934
 1419TIP3    H125748   5.309   4.872  13.743  1.3757  0.5679  2.6877
 1419TIP3    H225749   5.185   4.788  13.763  1.9499 -0.8917  0.4232
 1420TIP3   OH225750   0.740   0.761  14.969 -0.3980 -0.2839 -0.4741
 1420TIP3    H125751   0.695   0.751  15.052 -1.4011 -0.5162 -1.0287
 1420TIP3    H225752   0.813   0.821  14.987  0.2723 -1.4547  0.8823
 1421TIP3   OH225753   2.901   4.120   4.685  0.5291 -0.3491  0.1856
 1421TIP3    H125754   2.957   4.196   4.673 -1.2134  1.1968  1.3290
 1421TIP3    H225755   2.946   4.066   4.750  0.3190  1.3182  1.7899
 1422TIP3   OH225756   3.233   0.810   4.663 -0.2633  0.0540 -0.2569
 1422TIP3    H125757   3.267   0.892   4.699  1.1642 -0.3115 -0.6691
 1422TIP3    H225758   3.299   0.745   4.688  0.3518 -0.3656 -2.7169
 1423TIP3   OH225759   1.825   3.857   0.657  0.0860  0.3192  0.4835
 1423TIP3    H125760   1.788   3.770   0.666 -1.5646  0.4136 -3.3322
 1423TIP3    H225761   1.761   3.915   0.697 -1.5409  0.0698 -1.5860
 1424TIP3   OH225762   1.683   6.759   6.371 -0.1147  0.5658 -0.2813
 1424TIP3    H125763   1.733   6.678   6.375 -0.5495  0.3485  1.4716
 1424TIP3    H225764   1.746   6.827   6.396  0.1881  0.7657 -1.5219
 1425TIP3   OH225765   4.974   5.833  11.127 -0.0290 -0.0663 -0.6475
 1425TIP3    H125766   5.060   5.792  11.124  1.1184  2.0441  1.2599
 1425TIP3    H225767   4.977   5.902  11.061 -0.1611  0.1739 -0.4057
 1426TIP3   OH225768   2.608   3.156  13.818  0.7058  0.1145 -0.5264
 1426TIP3    H125769   2.642   3.209  13.746 -0.0471 -0.4084 -1.2888
 1426TIP3    H225770   2.665   3.078  13.819  0.9663  0.3074 -0.2930
 1427TIP3   OH225771   3.554   1.268   3.043  0.0366 -0.0596  0.3534
 1427TIP3    H125772   3.486   1.319   3.001 -1.2157 -1.6195  0.4076
 1427TIP3    H225773   3.629   1.328   3.049 -0.7618  1.1646 -1.2237
 1428TIP3   OH225774   5.242   4.519   2.434  0.0885  0.3756 -0.0819
 1428TIP3    H125775   5.252   4.476   2.349  0.6504 -0.8259  0.5672
 1428TIP3    H225776   5.323   4.569   2.446 -0.7497  2.0631 -1.0374
 1429TIP3   OH225777   2.441   2.305  16.854 -0.1611 -0.4008 -0.2873
 1429TIP3    H125778   2.497   2.253  16.911  1.7135  1.5725 -0.1929
 1429TIP3    H225779   2.392   2.362  16.913 -1.0315 -0.9396 -0.4713
 1430TIP3   OH225780   1.833   1.820  12.707 -0.1730  0.0648 -0.1629
 1430TIP3    H125781   1.742   1.822  12.678 -0.5794  0.5062  1.0935
 1430TIP3    H225782   1.833   1.864  12.792  1.2127  0.0599 -0.1279
 1431TIP3   OH225783   0.359   3.097  14.761 -0.1242 -0.1195 -0.5437
 1431TIP3    H125784   0.278   3.106  14.710 -0.3496 -0.8882 -0.3414
 1431TIP3    H225785   0.415   3.040  14.708  0.3779  0.5776 -0.7785
 1432TIP3   OH225786   1.511   3.006  12.606 -0.4574 -0.0041  0.1787
 1432TIP3    H125787   1.571   2.932  12.600  0.6786  0.8990  0.1561
 1432TIP3    H225788   1.511   3.044  12.518 -1.6614 -0.4351 -0.0257
 1433TIP3   OH225789   0.850   2.932  16.775 -0.1525 -0.4899  0.8908
 1433TIP3    H125790   0.856   3.004  16.838 -0.4214  2.1820 -1.8992
 1433TIP3    H225791   0.784   2.961  16.713  0.8740 -2.4627 -1.2368
 1434TIP3   OH225792   5.644   0.208   5.560  0.2082 -0.2340  0.5326
 1434TIP3    H125793   5.725   0.258   5.576 -0.2355  1.0978 -1.1460
 1434TIP3    H225794   5.586   0.269   5.515 -1.1613 -1.6570  0.2684
 1435TIP3   OH225795   4.112   4.273   3.261 -0.2537  0.4334 -0.1169
 1435TIP3    H125796   4.135   4.185   3.231  0.5824  0.3117  0.8127
 1435TIP3    H225797   4.022   4.286   3.231 -0.9740 -1.3844  1.0885
 1436TIP3   OH225798   6.328   2.615   5.511 -0.6081  0.2741 -0.2517
 1436TIP3    H125799   6.377   2.648   5.436  1.4221  1.1348  1.3631
 1436TIP3    H225800   6.246   2.582   5.473 -0.3459  2.0707 -2.6400
 1437TIP3   OH225801   6.342   1.517  16.764  0.4035  0.9453  0.7234
 1437TIP3    H125802   6.327   1.611  16.772  1.7570  1.1745  0.9497
 1437TIP3    H225803   6.356   1.487  16.853 -2.8626 -0.0607  0.9972
 1438TIP3   OH225804   4.701   3.866  16.912  0.0954  0.2195 -0.7673
 1438TIP3    H125805   4.738   3.899  16.994 -2.8864 -0.4812  1.0432
 1438TIP3    H225806   4.734   3.777  16.905 -0.9273 -0.3191  0.6908
 1439TIP3   OH225807   2.613   4.465  14.327 -0.0301  0.2491 -0.3220
 1439TIP3    H125808   2.608   4.371  14.310 -0.8754  0.2947 -0.3552
 1439TIP3    H225809   2.644   4.471  14.417  2.0788 -0.0222 -0.9755
 1440TIP3   OH225810   5.998   1.810  14.870 -0.2260  0.7756  0.5298
 1440TIP3    H125811   5.919   1.778  14.826 -0.9535  0.7681  1.8059
 1440TIP3    H225812   6.064   1.742  14.853 -1.1668 -0.4212  1.4502
 1441TIP3   OH225813   5.164   1.133   0.128 -0.1112 -0.5569  0.1407
 1441TIP3    H125814   5.226   1.196   0.092 -2.4654  0.7143 -2.0013
 1441TIP3    H225815   5.153   1.068   0.058 -0.0772 -1.6306  1.1026
 1442TIP3   OH225816   6.197   6.494   0.179  0.2324 -0.0766 -0.1125
 1442TIP3    H125817   6.221   6.551   0.251 -2.0457 -0.6117  1.1513
 1442TIP3    H225818   6.151   6.551   0.117  0.0277 -0.0821  0.0335
 1443TIP3   OH225819   4.399   1.538  12.349  0.3767 -0.3085  0.2407
 1443TIP3    H125820   4.304   1.540  12.340  0.4639  1.1244 -0.6349
 1443TIP3    H225821   4.432   1.531  12.259  1.1163 -1.1612  0.5525
 1444TIP3   OH225822   0.359   2.164  15.644  0.8365  0.1870 -0.4116
 1444TIP3    H125823   0.398   2.251  15.653 -0.8544  1.0260 -0.6082
 1444TIP3    H225824   0.340   2.137  15.733 -0.5640  1.0107 -0.4177
 1445TIP3   OH225825   5.302   2.095   4.817  0.1048 -0.2504  0.0184
 1445TIP3    H125826   5.353   2.176   4.817  1.7847 -1.2330  1.4250
 1445TIP3    H225827   5.243   2.104   4.892 -1.9535  0.8968 -1.6223
 1446TIP3   OH225828   4.834   0.397  12.649 -0.3953 -0.0837 -0.2566
 1446TIP3    H125829   4.917   0.349  12.645 -0.4250 -0.2473  0.9262
 1446TIP3    H225830   4.860   0.486  12.672 -0.6409 -0.5130  1.8772
 1447TIP3   OH225831   5.263   4.972   3.479 -0.3613  0.0237  0.0177
 1447TIP3    H125832   5.260   4.894   3.535  0.7058  0.4747  0.7400
 1447TIP3    H225833   5.336   5.023   3.514  1.0659 -0.1753 -2.4929
 1448TIP3   OH225834   2.221   3.105  13.760  0.0657 -0.8612  0.1185
 1448TIP3    H125835   2.269   3.183  13.789 -2.2945  0.4655  0.6490
 1448TIP3    H225836   2.216   3.049  13.837  0.2003 -0.7122  0.2357
 1449TIP3   OH225837   1.946   0.507  16.737  0.5165  0.2694 -0.0282
 1449TIP3    H125838   2.031   0.490  16.777  0.4228 -1.0340 -0.3662
 1449TIP3    H225839   1.927   0.599  16.760  2.2081  0.7283 -0.3575
 1450TIP3   OH225840   5.795   5.342  17.148 -0.6562 -0.3562 -0.6390
 1450TIP3    H125841   5.722   5.340  17.210 -0.8226  1.4581 -0.7090
 1450TIP3    H225842   5.871   5.363  17.202 -0.2833 -1.5952 -0.6634
 1451TIP3   OH225843   1.697   1.557   1.388  0.0031 -0.0051  0.0047
 1451TIP3    H125844   1.657   1.561   1.475 -0.1799  1.2645 -0.1108
 1451TIP3    H225845   1.642   1.496   1.339 -0.2697 -0.2426  0.5893
 1452TIP3   OH225846   2.102   1.469   1.630  0.1216 -0.4018 -0.0887
 1452TIP3    H125847   2.087   1.541   1.569  0.7422  0.4660  0.7446
 1452TIP3    H225848   2.055   1.395   1.593  1.8451 -0.3995 -2.5400
 1453TIP3   OH225849   0.999   4.670  15.254  0.1054 -0.3602  0.2010
 1453TIP3    H125850   1.054   4.618  15.312  0.1043  0.0807  0.6005
 1453TIP3    H225851   1.055   4.742  15.225  1.2580 -2.3864 -3.1070
 1454TIP3   OH225852   2.235   2.724   4.548 -0.0385 -0.3434 -0.7847
 1454TIP3    H125853   2.218   2.682   4.464  0.4132 -2.3501  0.0667
 1454TIP3    H225854   2.148   2.750   4.579 -0.9266 -3.8462  0.1794
 1455TIP3   OH225855   6.267   1.757   4.884  0.2070 -0.6823 -0.3172
 1455TIP3    H125856   6.172   1.746   4.892  0.2559 -0.1804  1.1928
 1455TIP3    H225857   6.304   1.696   4.948  0.8199  0.6805  0.6613
 1456TIP3   OH225858   1.802   4.962  15.534 -0.2614  0.0300 -0.0027
 1456TIP3    H125859   1.709   4.944  15.549 -0.5111  1.0635 -0.2118
 1456TIP3    H225860   1.808   4.983  15.441  0.4731 -1.6119 -0.3585
 1457TIP3   OH225861   6.339   4.366   6.021  0.3838 -0.3224 -0.2690
 1457TIP3    H125862   6.356   4.413   5.939  0.7538  0.2380  0.1216
 1457TIP3    H225863   6.246   4.380   6.037  0.8173  1.8220  0.7572
 1458TIP3   OH225864   2.784   1.584  13.719 -0.0904  0.0521  0.2564
 1458TIP3    H125865   2.824   1.554  13.638 -0.3824  1.0852 -0.2856
 1458TIP3    H225866   2.690   1.573  13.705 -0.1094 -0.6754  0.8422
 1459TIP3   OH225867   5.198   0.224  14.490  0.0751  0.5976  0.5802
 1459TIP3    H125868   5.177   0.146  14.542  0.9839  1.5611  2.5101
 1459TIP3    H225869   5.275   0.198  14.438 -1.4763 -0.7156 -1.2071
 1460TIP3   OH225870   6.769   5.521  17.139  0.2585  0.5555 -0.1402
 1460TIP3    H125871   6.840   5.546  17.080  0.7852 -0.8632 -0.1362
 1460TIP3    H225872   6.701   5.484  17.082  0.9995 -1.3451  0.1329
 1461TIP3   OH225873   1.578   3.117  12.870  0.0043  0.0348 -0.1877
 1461TIP3    H125874   1.554   3.102  12.779 -0.9965  1.4069 -0.1865
 1461TIP3    H225875   1.673   3.117  12.871  0.0262 -0.5005 -1.1314
 1462TIP3   OH225876   2.127   1.693  17.275 -0.4448 -0.1631 -0.2772
 1462TIP3    H125877   2.087   1.606  17.288 -1.7246  0.6251  1.5419
 1462TIP3    H225878   2.221   1.677  17.280 -0.6348 -1.5043 -0.4429
 1463TIP3   OH225879   3.377   6.552  15.517  0.1217 -0.6507  0.3277
 1463TIP3    H125880   3.370   6.457  15.526  1.0262 -1.0082 -2.1501
 1463TIP3    H225881   3.325   6.573  15.440  3.7364  0.1259 -2.1506
 1464TIP3   OH225882   5.139   6.618  15.755 -0.2196  0.2072 -0.4624
 1464TIP3    H125883   5.097   6.546  15.801  2.1878 -1.0088  0.0004
 1464TIP3    H225884   5.082   6.636  15.680 -0.8280 -2.2841 -0.6717
 1465TIP3   OH225885   3.959   1.598  12.991 -0.5195  0.1466 -0.3270
 1465TIP3    H125886   3.875   1.553  12.983 -0.3368 -0.1903 -0.4115
 1465TIP3    H225887   4.024   1.527  12.990 -0.3378  0.1867  2.2756
 1466TIP3   OH225888   6.467   6.677   4.051  0.3026  0.0396 -0.0646
 1466TIP3    H125889   6.385   6.628   4.055  1.5779 -2.4522 -1.8646
 1466TIP3    H225890   6.520   6.642   4.123 -0.2245  1.8399  1.2717
 1467TIP3   OH225891   1.369   1.552   4.358  0.4493  0.6203 -0.1509
 1467TIP3    H125892   1.320   1.628   4.327  0.8852  1.2825  0.7477
 1467TIP3    H225893   1.399   1.509   4.278  0.6359  1.6906 -0.6704
 1468TIP3   OH225894   0.946   1.685  15.288  0.2496  0.1286 -0.6331
 1468TIP3    H125895   0.881   1.755  15.278  0.2013 -0.1534 -2.7201
 1468TIP3    H225896   0.901   1.617  15.339 -1.1532 -0.0828 -2.0799
 1469TIP3   OH225897   5.492   6.329  11.611 -0.0059 -0.3746 -0.4762
 1469TIP3    H125898   5.424   6.262  11.615  1.4287 -1.9005 -0.4383
 1469TIP3    H225899   5.487   6.374  11.696 -0.0311 -1.4402  0.0964
 1470TIP3   OH225900   5.209   5.175  13.834  0.2528 -0.6236 -0.1170
 1470TIP3    H125901   5.303   5.190  13.821 -0.3698  2.0429 -2.5715
 1470TIP3    H225902   5.187   5.104  13.775  0.1545  1.4211 -2.7320
 1471TIP3   OH225903   1.330   4.733  14.956  0.1283 -0.3502 -0.1835
 1471TIP3    H125904   1.244   4.709  14.923 -0.1456  0.8449 -0.3580
 1471TIP3    H225905   1.361   4.802  14.897  0.7188  0.0267  0.5484
 1472TIP3   OH225906   5.143   5.509  16.463  0.3183 -0.1094 -0.2252
 1472TIP3    H125907   5.057   5.466  16.463  1.1141 -1.7976 -0.4663
 1472TIP3    H225908   5.141   5.567  16.388 -0.3230 -0.7672 -0.7356
 1473TIP3   OH225909   0.406   2.772   2.559  0.1690  0.1762 -0.9721
 1473TIP3    H125910   0.455   2.718   2.497 -0.1747  0.8920 -1.8880
 1473TIP3    H225911   0.392   2.855   2.513 -2.1120 -0.0740 -0.8440
 1474TIP3   OH225912   1.045   4.890   1.659  0.5151 -0.1825  0.4659
 1474TIP3    H125913   1.109   4.901   1.588  1.3807  2.2639  1.5382
 1474TIP3    H225914   1.073   4.809   1.703  0.3428 -1.3935 -1.5217
 1475TIP3   OH225915   1.428   4.468  12.898 -0.1082  0.2126 -0.8359
 1475TIP3    H125916   1.337   4.490  12.916 -0.4301 -1.1323 -0.7117
 1475TIP3    H225917   1.461   4.432  12.980 -0.0542 -1.1273 -1.4210
 1476TIP3   OH225918   4.316   0.532  11.019  0.4077 -0.3836 -0.1912
 1476TIP3    H125919   4.300   0.442  10.991  0.4285 -0.8889  1.3810
 1476TIP3    H225920   4.257   0.546  11.092  1.2240  0.4922  0.3294
 1477TIP3   OH225921   1.424   2.146   5.725  0.2957  0.0530 -0.7890
 1477TIP3    H125922   1.430   2.166   5.632 -1.6783  0.9744 -0.7640
 1477TIP3    H225923   1.354   2.203   5.757  1.7188  0.6404  1.5155
 1478TIP3   OH225924   5.295   3.001   1.419 -0.2457  0.3640 -0.1217
 1478TIP3    H125925   5.254   2.920   1.389 -0.0223 -0.1658  0.9448
 1478TIP3    H225926   5.375   2.972   1.463 -0.2176  1.1558  0.3605
 1479TIP3   OH225927   5.665   5.310   4.290 -0.2047 -0.3767  0.0594
 1479TIP3    H125928   5.686   5.388   4.343 -1.4226 -0.7751  1.1732
 1479TIP3    H225929   5.598   5.340   4.229 -0.1007 -0.3717 -0.0546
 1480TIP3   OH225930   3.609   1.041  12.538  0.0025 -0.0110  0.6202
 1480TIP3    H125931   3.587   1.098  12.611 -0.2579 -0.5296  0.9516
 1480TIP3    H225932   3.681   1.086  12.493 -2.3631  2.2869 -1.1273
 1481TIP3   OH225933   0.240   3.080  11.195  0.2065 -0.7299 -0.2103
 1481TIP3    H125934   0.278   3.011  11.250  0.6794  1.2091  2.0957
 1481TIP3    H225935   0.268   3.161  11.237 -3.2018  0.8879 -0.7135
 1482TIP3   OH225936   3.600   1.176  15.776 -0.2766  0.0836 -0.0410
 1482TIP3    H125937   3.649   1.139  15.850 -2.2906 -1.6844  0.5161
 1482TIP3    H225938   3.519   1.208  15.815 -1.2888 -0.6961 -1.4374
 1483TIP3   OH225939   5.469   5.750   3.692  0.3022 -0.5873  0.1406
 1483TIP3    H125940   5.514   5.816   3.745 -0.4948  0.4699 -0.4621
 1483TIP3    H225941   5.508   5.758   3.605  0.0329 -0.7353  0.0049
 1484TIP3   OH225942   2.571   1.900   4.343 -0.2691  0.2145 -0.0443
 1484TIP3    H125943   2.578   1.988   4.380  0.8760 -0.7521  2.2271
 1484TIP3    H225944   2.602   1.909   4.253 -0.7567  2.2344 -0.0511
 1485TIP3   OH225945   0.566   0.460  14.030  0.3225  0.3810 -0.4626
 1485TIP3    H125946   0.611   0.515  13.965  1.2566 -0.9392 -0.9654
 1485TIP3    H225947   0.601   0.490  14.114 -0.8597  2.0740 -0.5233
 1486TIP3   OH225948   0.330   5.543  14.198 -0.1768  0.1855 -0.1560
 1486TIP3    H125949   0.356   5.472  14.258  0.3122  1.0276  0.6556
 1486TIP3    H225950   0.404   5.553  14.139 -0.0668  0.3022  0.0001
 1487TIP3   OH225951   4.946   1.923  13.440 -0.3415 -0.1776  0.3636
 1487TIP3    H125952   4.931   2.001  13.386 -2.4842  0.0128  1.1003
 1487TIP3    H225953   4.938   1.850  13.379  1.6050  0.1219 -0.3201
 1488TIP3   OH225954   4.857   6.195  11.524 -0.8176 -0.2443 -0.0518
 1488TIP3    H125955   4.787   6.252  11.493 -0.6649  0.2467  0.4928
 1488TIP3    H225956   4.926   6.202  11.457 -0.5858  0.6219  0.2688
 1489TIP3   OH225957   2.031   0.257  12.814  0.2352  0.5520  0.1980
 1489TIP3    H125958   2.049   0.200  12.889 -0.1766  0.6395  0.3636
 1489TIP3    H225959   2.072   0.340  12.836  0.8250  0.3313 -0.0381
 1490TIP3   OH225960   4.191   1.892   0.231  0.3159 -0.2330  0.2112
 1490TIP3    H125961   4.179   1.841   0.151  2.3544 -0.6936  0.1462
 1490TIP3    H225962   4.167   1.832   0.302  0.9366 -0.6802  0.0498
 1491TIP3   OH225963   0.424   4.690  17.157  0.8512  0.2714 -0.9930
 1491TIP3    H125964   0.444   4.679  17.064  0.3374  0.0259 -1.0749
 1491TIP3    H225965   0.510   4.702  17.198  1.1592 -0.5118 -1.3806
 1492TIP3   OH225966   5.231   6.550  13.973 -0.0155  0.4023 -0.0719
 1492TIP3    H125967   5.187   6.565  13.890  0.3792  1.6886 -0.0726
 1492TIP3    H225968   5.324   6.562  13.953  0.2889 -1.4290  0.1092
 1493TIP3   OH225969   0.243   6.022  12.322  0.3210  0.3755 -0.0772
 1493TIP3    H125970   0.295   6.096  12.356  0.2991 -0.5931  2.2956
 1493TIP3    H225971   0.305   5.972  12.269  0.8019  1.2084 -0.3160
 1494TIP3   OH225972   0.912   3.839   2.764  1.1122  0.6051  0.0106
 1494TIP3    H125973   0.984   3.858   2.823  1.1550  0.3362  0.0485
 1494TIP3    H225974   0.870   3.761   2.801  1.6948 -0.1141 -0.7934
 1495TIP3   OH225975   0.575   2.901   5.615 -0.2787 -0.1304 -0.0892
 1495TIP3    H125976   0.593   2.904   5.521  0.9302 -2.7207 -0.0213
 1495TIP3    H225977   0.480   2.905   5.621 -0.3466  0.8481 -1.3540
 1496TIP3   OH225978   2.437   1.919   6.000 -0.2988  1.5432  0.0899
 1496TIP3    H125979   2.471   1.971   6.073 -2.0344 -0.6872  2.6861
 1496TIP3    H225980   2.479   1.834   6.010 -1.1680  0.9490 -1.0546
 1497TIP3   OH225981   5.057   6.066  13.247 -0.6115  0.5787  0.2884
 1497TIP3    H125982   5.099   6.065  13.161 -0.8563  0.5339  0.1685
 1497TIP3    H225983   4.990   5.998  13.241  1.6475 -1.9537  1.6660
 1498TIP3   OH225984   5.669   6.280   2.311 -0.0976 -0.3298 -0.4175
 1498TIP3    H125985   5.695   6.251   2.223 -0.4566 -0.9980 -0.3109
 1498TIP3    H225986   5.704   6.369   2.319 -1.4746  0.4065 -1.8872
 1499TIP3   OH225987   2.735   6.170   1.409  0.4696  0.2540  0.3208
 1499TIP3    H125988   2.808   6.210   1.456  0.1889 -0.7319  1.6483
 1499TIP3    H225989   2.675   6.142   1.478  0.3584 -1.8388 -0.5738
 1500TIP3   OH225990   3.861   2.107  15.645  0.3279 -0.0724 -0.3203
 1500TIP3    H125991   3.896   2.159  15.717 -0.7193 -0.6638  0.6470
 1500TIP3    H225992   3.858   2.167  15.570 -1.5674  1.5161  0.9452
 1501TIP3   OH225993   5.403   2.541   2.612  0.2010  0.4495  0.6694
 1501TIP3    H125994   5.368   2.536   2.522  1.3007  1.5237  0.1599
 1501TIP3    H225995   5.357   2.615   2.651 -0.7543 -0.4148  1.2376
 1502TIP3   OH225996   5.031   1.452  13.106  0.2222  0.1013  0.5984
 1502TIP3    H125997   5.058   1.369  13.145 -0.7683  0.4526  2.1301
 1502TIP3    H225998   5.005   1.429  13.017  0.1182 -1.2012  0.9436
 1503TIP3   OH225999   5.952   5.635  14.721  0.5991  0.1189  0.0882
 1503TIP3    H126000   5.894   5.654  14.795 -1.6495  0.8662 -1.7389
 1503TIP3    H226001   5.961   5.539  14.722 -2.6128 -0.3162 -0.8117
 1504TIP3   OH226002   6.148   1.945  16.799 -0.1455 -0.3113  0.3397
 1504TIP3    H126003   6.179   2.006  16.866 -0.6392  1.2479 -0.8007
 1504TIP3    H226004   6.189   1.975  16.718  1.2201 -2.7350  0.0199
 1505TIP3   OH226005   0.926   3.556   0.152 -0.2237 -0.0821 -0.2369
 1505TIP3    H126006   0.841   3.596   0.133  0.5494  0.8383 -2.0386
 1505TIP3    H226007   0.958   3.604   0.228  0.1047  1.9336 -1.5665
 1506TIP3   OH226008   2.639   1.425  14.189 -0.1162  0.4115 -0.1566
 1506TIP3    H126009   2.599   1.363  14.129  1.1656  0.5283 -1.1978
 1506TIP3    H226010   2.701   1.474  14.134  1.9396 -0.2444  1.4689
 1507TIP3   OH226011   1.783   6.431   3.289  0.0620 -0.3962  0.3551
 1507TIP3    H126012   1.860   6.376   3.301 -0.1031 -0.2586  2.3414
 1507TIP3    H226013   1.817   6.521   3.290  0.6334 -0.2323 -4.9618
 1508TIP3   OH226014   3.212   5.391   2.240  0.0287  0.5953  0.3530
 1508TIP3    H126015   3.120   5.400   2.265  0.2801  3.0845  0.6902
 1508TIP3    H226016   3.257   5.361   2.319 -0.5588 -1.4335 -0.0353
 1509TIP3   OH226017   1.880   5.758  11.283 -0.3917  0.1019  0.0132
 1509TIP3    H126018   1.963   5.729  11.246 -0.3452 -0.9130  0.8726
 1509TIP3    H226019   1.904   5.813  11.358 -0.4605 -1.4474  1.2160
 1510TIP3   OH226020   2.846   4.506   1.744 -0.1714  0.3031 -0.4069
 1510TIP3    H126021   2.861   4.478   1.834 -0.2241 -1.2086 -0.8454
 1510TIP3    H226022   2.863   4.428   1.691 -0.5537  1.0476 -1.6729
 1511TIP3   OH226023   1.854   6.563  11.381 -0.6203  0.5081 -0.5766
 1511TIP3    H126024   1.920   6.584  11.316 -0.8009  0.3259 -0.8223
 1511TIP3    H226025   1.820   6.478  11.354 -1.3922  0.8794 -0.8073
 1512TIP3   OH226026   6.040   1.879   1.677 -0.3675  0.0481  1.2422
 1512TIP3    H126027   6.123   1.922   1.699  0.8637 -1.8306  0.5533
 1512TIP3    H226028   6.001   1.934   1.609 -0.0105  1.2802  2.0020
 1513TIP3   OH226029   2.367   6.786  16.334  0.4908  0.3358 -0.0500
 1513TIP3    H126030   2.396   6.724  16.401 -1.1551  0.3836  0.7294
 1513TIP3    H226031   2.366   6.871  16.378 -2.3551  0.1156  0.4888
 1514TIP3   OH226032   2.407   3.209   6.160  0.4823 -0.0155  0.2447
 1514TIP3    H126033   2.411   3.274   6.230 -1.6867  0.7022 -0.2087
 1514TIP3    H226034   2.316   3.180   6.159  0.5018 -0.2267 -2.0410
 1515TIP3   OH226035   0.837   4.260  13.512 -0.1817  0.3941 -0.3731
 1515TIP3    H126036   0.880   4.341  13.485  0.5313 -0.0427 -0.5774
 1515TIP3    H226037   0.872   4.241  13.599  0.1407 -0.0216 -0.5859
 1516TIP3   OH226038   5.116   4.517   1.184  0.4171  0.2383 -0.5643
 1516TIP3    H126039   5.100   4.540   1.275  0.2325  0.3371 -0.6213
 1516TIP3    H226040   5.184   4.577   1.155  1.3127 -0.5602 -0.1547
 1517TIP3   OH226041   3.068   3.500  12.446  0.0286  0.2244 -0.1136
 1517TIP3    H126042   3.088   3.482  12.538  1.8128 -1.4247 -0.7561
 1517TIP3    H226043   3.041   3.416  12.409 -3.2630  1.3348 -0.6018
 1518TIP3   OH226044   4.949   1.058  14.865  0.2013 -0.0102 -0.2381
 1518TIP3    H126045   5.038   1.045  14.900  0.0895  1.8763  0.8794
 1518TIP3    H226046   4.893   1.004  14.921  0.3700  0.7997  0.7423
 1519TIP3   OH226047   1.433   1.029  16.156 -0.3345 -0.3952  0.0972
 1519TIP3    H126048   1.414   1.018  16.063 -3.6904 -1.6755  0.7898
 1519TIP3    H226049   1.422   1.123  16.171 -0.3330 -0.2618 -0.6635
 1520TIP3   OH226050   2.441   5.866  10.690  0.2168  0.5474 -0.0105
 1520TIP3    H126051   2.494   5.807  10.743 -0.7091 -0.2011  0.1103
 1520TIP3    H226052   2.365   5.887  10.745  0.2500  1.3997 -0.2690
 1521TIP3   OH226053   6.672   1.693   4.296 -0.0661  0.3604 -0.2741
 1521TIP3    H126054   6.635   1.760   4.238 -1.7101  0.3108  0.6467
 1521TIP3    H226055   6.699   1.742   4.373 -0.0374  0.1401 -0.1461
 1522TIP3   OH226056   3.390   1.866   2.417  0.7467  0.5722 -0.2933
 1522TIP3    H126057   3.320   1.927   2.442 -0.4059 -0.2081 -1.4855
 1522TIP3    H226058   3.466   1.922   2.402  0.2455  1.5029  0.5212
 1523TIP3   OH226059   0.619   3.800  12.589  0.3966 -0.3329 -0.3766
 1523TIP3    H126060   0.651   3.741  12.658  1.8578 -1.1804 -1.7063
 1523TIP3    H226061   0.559   3.859  12.634  2.0003 -0.2454  1.8134
 1524TIP3   OH226062   0.546   3.686  16.566 -0.2629 -0.2510  0.0941
 1524TIP3    H126063   0.595   3.763  16.593 -1.7073  0.0603  2.0704
 1524TIP3    H226064   0.541   3.631  16.645 -2.1356 -0.7455 -0.3172
 1525TIP3   OH226065   6.392   0.551   1.852 -0.2580 -0.2424  0.6007
 1525TIP3    H126066   6.448   0.586   1.783  0.5654 -1.9655  0.3377
 1525TIP3    H226067   6.424   0.462   1.866 -2.9358 -1.3365  0.4339
 1526TIP3   OH226068   4.026   1.100   6.267  0.5181 -0.1964  0.3067
 1526TIP3    H126069   4.084   1.159   6.316 -0.5244  1.8962 -0.8534
 1526TIP3    H226070   4.086   1.040   6.222  1.6413  0.3157  1.0735
 1527TIP3   OH226071   3.383   0.370  12.640  0.2505 -0.2584 -0.7480
 1527TIP3    H126072   3.327   0.386  12.716  0.0532 -1.4039 -0.6322
 1527TIP3    H226073   3.387   0.454  12.595 -0.0963  0.2917  0.2200
 1528TIP3   OH226074   0.393   5.512   5.947  0.0539  0.0614 -0.2954
 1528TIP3    H126075   0.390   5.544   6.037  2.5157 -0.7704  0.1637
 1528TIP3    H226076   0.437   5.581   5.898  2.9322 -1.2847  0.1655
 1529TIP3   OH226077   2.886   6.304  11.931  0.0917 -0.3618  0.0877
 1529TIP3    H126078   2.838   6.248  11.992 -1.5858 -0.9377 -1.6588
 1529TIP3    H226079   2.858   6.393  11.953 -0.2437 -0.5389  0.3911
 1530TIP3   OH226080   6.234   5.686  14.947  0.5959 -0.0182  0.2211
 1530TIP3    H126081   6.177   5.612  14.925  1.5875 -0.8255  0.2976
 1530TIP3    H226082   6.315   5.669  14.899  0.7260  1.2113 -0.0356
 1531TIP3   OH226083   0.134   5.311   4.470  0.0182 -0.1825  0.2849
 1531TIP3    H126084   0.207   5.321   4.409  0.1618  0.7381  0.5844
 1531TIP3    H226085   0.175   5.293   4.555 -0.0893  0.3444  0.4560
 1532TIP3   OH226086   4.907   0.347  13.780  0.2853  0.3506  0.3184
 1532TIP3    H126087   4.956   0.430  13.784  0.8941  0.0353 -0.3750
 1532TIP3    H226088   4.952   0.296  13.713 -0.4981 -0.2840  0.2637
 1533TIP3   OH226089   2.094   1.844   4.811  0.8315  0.0314  0.1695
 1533TIP3    H126090   2.064   1.885   4.730 -1.1430 -3.2402 -0.9347
 1533TIP3    H226091   2.189   1.841   4.802  0.8558  2.1046 -0.7546
 1534TIP3   OH226092   0.262   3.457   3.555  0.2521  0.0214 -0.4603
 1534TIP3    H126093   0.323   3.443   3.628  0.4121 -0.8887 -0.7507
 1534TIP3    H226094   0.286   3.390   3.491 -0.0477  0.6589 -1.2512
 1535TIP3   OH226095   0.854   1.938   0.312  0.5401  0.0180  0.0602
 1535TIP3    H126096   0.862   1.931   0.217  0.6024 -1.3642  0.1509
 1535TIP3    H226097   0.800   1.863   0.337  0.9912  0.0451  1.1765
 1536TIP3   OH226098   4.546   0.769  10.553 -0.7717 -0.1619 -0.0030
 1536TIP3    H126099   4.523   0.711  10.480 -1.7201  1.8699 -1.4053
 1536TIP3    H226100   4.641   0.762  10.561 -0.5458  0.0971 -1.9466
 1537TIP3   OH226101   3.123   6.719   0.627  0.3834  0.1784 -0.0295
 1537TIP3    H126102   3.110   6.634   0.585  2.1971  0.5508 -1.4973
 1537TIP3    H226103   3.140   6.699   0.719 -4.3099 -0.6312  0.8868
 1538TIP3   OH226104   4.512   0.420   5.576  0.0765 -0.1508 -0.3782
 1538TIP3    H126105   4.551   0.491   5.526 -0.0385  0.0148 -0.2320
 1538TIP3    H226106   4.426   0.406   5.536 -0.3306  0.4938  0.2534
 1539TIP3   OH226107   2.576   0.562  17.190  0.5186 -0.1592  0.4500
 1539TIP3    H126108   2.589   0.655  17.172  1.8245 -0.5817 -0.9896
 1539TIP3    H226109   2.540   0.526  17.109  0.3270 -0.9685  0.8842
 1540TIP3   OH226110   2.218   6.603  12.433 -0.5795  0.4423  0.4010
 1540TIP3    H126111   2.199   6.517  12.394  1.3118  0.0027  0.3761
 1540TIP3    H226112   2.267   6.583  12.513  0.7124  1.5037 -0.0867
 1541TIP3   OH226113   4.066   0.310  11.622  0.2278  0.1244 -0.3075
 1541TIP3    H126114   4.146   0.343  11.583 -0.1096  0.6588 -0.5666
 1541TIP3    H226115   4.047   0.371  11.694  0.2867 -0.2518  0.0317
 1542TIP3   OH226116   0.279   0.477  13.188 -0.7654  0.3794  0.2130
 1542TIP3    H126117   0.334   0.474  13.267 -0.8624  0.1654  0.2739
 1542TIP3    H226118   0.259   0.569  13.176  0.3708  0.5694 -0.3371
 1543TIP3   OH226119   5.440   2.285  10.776 -0.1353 -0.3572  0.5710
 1543TIP3    H126120   5.486   2.340  10.713 -4.0410  4.4365  1.2619
 1543TIP3    H226121   5.495   2.285  10.854  0.8879  0.9833 -0.1276
 1544TIP3   OH226122   2.913   4.995  14.115 -0.0371  0.7806 -0.4748
 1544TIP3    H126123   2.990   5.052  14.112  1.3552 -0.6273  3.0762
 1544TIP3    H226124   2.946   4.909  14.089 -0.5124  0.2851  0.5096
 1545TIP3   OH226125   2.752   1.667  11.014 -0.1909  0.3071  0.5548
 1545TIP3    H126126   2.737   1.744  10.959 -1.2175 -0.2336  0.0544
 1545TIP3    H226127   2.702   1.597  10.972  0.0867 -0.4428  1.4411
 1546TIP3   OH226128   6.495   3.186   3.185 -0.2456  0.6785  0.2120
 1546TIP3    H126129   6.444   3.182   3.266  0.0461  0.4628  0.3875
 1546TIP3    H226130   6.471   3.107   3.138  0.4701  0.1962  0.6293
 1547TIP3   OH226131   3.414   1.150   5.522  0.0752  0.0447  0.4497
 1547TIP3    H126132   3.353   1.187   5.586 -1.6869 -0.9602 -0.5637
 1547TIP3    H226133   3.439   1.224   5.466 -2.5651  0.0198 -0.9085
 1548TIP3   OH226134   4.129   5.517  12.320  0.6612  0.7182  0.7644
 1548TIP3    H126135   4.077   5.596  12.302 -1.4482 -0.3765  1.6888
 1548TIP3    H226136   4.154   5.525  12.412  2.0295  1.1322  0.3835
 1549TIP3   OH226137   5.655   3.443  15.791 -0.5380  0.2325  0.5231
 1549TIP3    H126138   5.641   3.505  15.863 -0.6312  0.0981  0.6203
 1549TIP3    H226139   5.591   3.470  15.724  1.2145  1.9644 -0.5707
 1550TIP3   OH226140   6.402   4.235  15.734  0.2048  0.1501 -0.0665
 1550TIP3    H126141   6.403   4.248  15.828  2.6905 -2.3072  0.3699
 1550TIP3    H226142   6.370   4.145  15.722  3.9293 -1.2533 -1.0760
 1551TIP3   OH226143   1.726   1.227  11.630 -0.5231 -0.0281 -0.7447
 1551TIP3    H126144   1.725   1.153  11.692 -0.6784 -0.8242 -1.6791
 1551TIP3    H226145   1.658   1.286  11.662 -0.3246 -0.2201  0.0786
 1552TIP3   OH226146   6.002   1.716   1.130  0.2746  0.0042 -0.6804
 1552TIP3    H126147   5.999   1.758   1.044 -4.0648  1.0582 -0.2580
 1552TIP3    H226148   6.063   1.770   1.181 -0.7078  2.3072 -1.8210
 1553TIP3   OH226149   1.766   2.671   2.158  0.1335 -0.6908 -0.1017
 1553TIP3    H126150   1.777   2.611   2.084 -0.5745  0.1928 -0.9422
 1553TIP3    H226151   1.680   2.650   2.193 -1.2110  1.4031 -1.9163
 1554TIP3   OH226152   5.570   4.937  15.051  0.1638  0.1809  0.4193
 1554TIP3    H126153   5.591   4.997  14.980  0.7529 -0.0593  0.3802
 1554TIP3    H226154   5.502   4.981  15.102  1.0692  1.1977  0.7918
 1555TIP3   OH226155   2.362   1.362   0.851  0.0179 -0.1194 -0.2198
 1555TIP3    H126156   2.426   1.355   0.922  0.2601 -0.0769 -0.4282
 1555TIP3    H226157   2.314   1.443   0.869  0.7893  0.4542 -0.6704
 1556TIP3   OH226158   5.806   1.469   4.389  0.1496  0.1461 -0.0461
 1556TIP3    H126159   5.870   1.413   4.344 -2.3377 -0.4783 -3.1530
 1556TIP3    H226160   5.739   1.408   4.421 -0.6488  1.0349  0.0244
 1557TIP3   OH226161   3.173   1.278  14.835 -0.5272  0.3154 -0.6591
 1557TIP3    H126162   3.202   1.310  14.750 -1.0579  1.2321 -0.5072
 1557TIP3    H226163   3.116   1.347  14.869  0.9410  0.7278  1.1510
 1558TIP3   OH226164   5.369   1.541  16.443  0.4887 -0.4827  0.9723
 1558TIP3    H126165   5.294   1.594  16.466  1.5745  1.8410 -0.4355
 1558TIP3    H226166   5.378   1.551  16.348  2.1983 -1.1887  1.0063
 1559TIP3   OH226167   4.371   4.982  15.578  0.0188  0.5735 -0.0871
 1559TIP3    H126168   4.340   4.970  15.488 -0.6485  1.8617 -0.0497
 1559TIP3    H226169   4.409   5.070  15.579  4.3021 -1.0286 -0.2540
 1560TIP3   OH226170   1.978   1.224   2.222 -0.1130  0.4586  0.1412
 1560TIP3    H126171   1.929   1.170   2.160 -0.1205  0.6397 -0.0150
 1560TIP3    H226172   2.021   1.290   2.166  0.3015  0.3038  0.2745
 1561TIP3   OH226173   3.107   2.276  16.012 -0.0952  0.2617 -0.1429
 1561TIP3    H126174   3.052   2.349  15.982  0.8511  1.7048  1.4601
 1561TIP3    H226175   3.192   2.291  15.971 -0.4069 -1.0819 -1.3546
 1562TIP3   OH226176   3.858   0.911  11.679 -0.0639  0.0609  0.1523
 1562TIP3    H126177   3.763   0.908  11.695  0.2007 -0.3243  1.9281
 1562TIP3    H226178   3.895   0.857  11.749  1.5083  0.6190 -0.2169
 1563TIP3   OH226179   4.881   0.000   2.751 -0.1588  0.2341  0.2080
 1563TIP3    H126180   4.920   0.048   2.823  1.5988  0.0118 -0.5350
 1563TIP3    H226181   4.947   0.004   2.681 -1.3082 -0.5435 -0.9759
 1564TIP3   OH226182   1.205   3.030   2.273  0.6460  0.4305 -0.9228
 1564TIP3    H126183   1.131   3.083   2.244  1.7295  2.2318 -0.6168
 1564TIP3    H226184   1.194   3.022   2.368  0.5365  0.2230 -0.9547
 1565TIP3   OH226185   4.149   1.914   1.339 -0.2361  0.3118  0.4933
 1565TIP3    H126186   4.075   1.908   1.400 -0.5480  0.8220  0.1799
 1565TIP3    H226187   4.220   1.866   1.382 -0.8689 -0.5396  0.6139
 1566TIP3   OH226188   1.398   1.089  15.681  0.2546 -0.6207 -0.1291
 1566TIP3    H126189   1.452   1.130  15.749 -0.6804  0.6866 -0.1397
 1566TIP3    H226190   1.457   1.078  15.607  0.6430  0.3694  0.0164
 1567TIP3   OH226191   3.254   1.657  12.491 -0.0038  0.0788  0.0199
 1567TIP3    H126192   3.302   1.576  12.505 -1.1243 -0.6425 -0.1296
 1567TIP3    H226193   3.221   1.681  12.577 -0.0818  0.1090 -0.0178
 1568TIP3   OH226194   2.251   4.028   1.605  0.0156  0.2645 -0.3475
 1568TIP3    H126195   2.162   4.041   1.640  0.6310  0.2651  1.3301
 1568TIP3    H226196   2.241   4.035   1.510 -2.0774 -1.5155 -0.3425
 1569TIP3   OH226197   1.394   4.187  11.835 -0.4160  0.5190 -0.2094
 1569TIP3    H126198   1.405   4.202  11.929  3.0991 -3.7560  0.3879
 1569TIP3    H226199   1.311   4.139  11.828 -0.3657  0.2584  0.8605
 1570TIP3   OH226200   2.564   4.948  13.329 -0.8559  0.0142 -0.5309
 1570TIP3    H126201   2.581   4.857  13.353  0.9135  0.5523  0.4356
 1570TIP3    H226202   2.541   4.944  13.236  0.5446 -1.3013 -0.8637
 1571TIP3   OH226203   0.331   2.123   4.188 -0.3551  0.2255 -0.3765
 1571TIP3    H126204   0.315   2.164   4.103 -5.0350 -0.1576  0.0623
 1571TIP3    H226205   0.280   2.175   4.250  0.4849 -1.2913  1.6987
 1572TIP3   OH226206   2.859   4.080  14.469 -0.0135  0.2731 -0.0749
 1572TIP3    H126207   2.888   4.171  14.480 -0.3362  0.3356  0.2497
 1572TIP3    H226208   2.856   4.045  14.558  0.4704 -0.1698 -0.2267
 1573TIP3   OH226209   2.797   5.381   5.511 -0.0454  0.4933  0.4396
 1573TIP3    H126210   2.752   5.382   5.427 -0.7246  3.9824  0.6849
 1573TIP3    H226211   2.734   5.341   5.572  0.8440 -3.0348 -0.7166
 1574TIP3   OH226212   0.195   6.824   2.478 -0.5983 -0.5859 -0.4896
 1574TIP3    H126213   0.115   6.875   2.479  1.4670  2.9942 -0.3008
 1574TIP3    H226214   0.212   6.807   2.386 -1.8144 -1.9605 -0.5001
 1575TIP3   OH226215   0.431   5.138   6.827 -0.2194  0.1489 -0.2631
 1575TIP3    H126216   0.455   5.077   6.757 -0.2840 -1.0593  0.7255
 1575TIP3    H226217   0.399   5.082   6.898  0.3876  1.2838  0.9608
 1576TIP3   OH226218   5.903   5.080   5.265  0.1083  0.4716  0.2325
 1576TIP3    H126219   5.815   5.080   5.301  0.3185  0.5956  0.7614
 1576TIP3    H226220   5.960   5.075   5.341  0.6121  2.6592  0.0607
 1577TIP3   OH226221   3.079   3.933   5.442  0.4587 -0.7556 -0.0318
 1577TIP3    H126222   3.126   3.894   5.515  0.7542 -1.7791 -0.7463
 1577TIP3    H226223   3.099   4.027   5.447  3.2265 -1.2408 -0.7611
 1578TIP3   OH226224   6.602   3.652   5.000  0.0141 -0.2348 -0.0008
 1578TIP3    H126225   6.542   3.617   5.066  0.3344 -0.2760  0.2637
 1578TIP3    H226226   6.582   3.746   4.997  2.4106  0.4758  2.6914
 1579TIP3   OH226227   6.085   3.578   2.215 -0.3449  0.3245 -0.1278
 1579TIP3    H126228   6.116   3.490   2.194  0.3163  0.5210 -0.0049
 1579TIP3    H226229   5.990   3.572   2.208 -0.2995 -0.3602 -0.2685
 1580TIP3   OH226230   0.193   6.390  15.909 -0.3627 -0.3858  0.4112
 1580TIP3    H126231   0.260   6.341  15.956  0.0327  0.6449  0.9485
 1580TIP3    H226232   0.191   6.476  15.952 -0.1602  0.5110 -1.2875
 1581TIP3   OH226233   0.166   3.101  16.384  0.0015  0.1650  0.8210
 1581TIP3    H126234   0.153   3.079  16.292 -0.6792  2.4073  0.3216
 1581TIP3    H226235   0.080   3.086  16.425  0.3667 -1.0644  1.1680
 1582TIP3   OH226236   0.972   0.777   2.830 -0.0572  0.0019  0.5777
 1582TIP3    H126237   1.014   0.716   2.769 -1.0655  0.1141 -0.2668
 1582TIP3    H226238   0.925   0.720   2.891 -0.9497 -0.1057 -0.1749
 1583TIP3   OH226239   4.193   4.906  14.368  0.5549  0.0241 -0.2497
 1583TIP3    H126240   4.269   4.930  14.315 -0.4524 -0.8574 -2.1785
 1583TIP3    H226241   4.221   4.826  14.413  1.1255  0.3025 -0.0905
 1584TIP3   OH226242   3.016   3.429   1.223 -0.1479  0.1456 -0.1976
 1584TIP3    H126243   3.111   3.437   1.226 -0.1085  1.1866 -2.2972
 1584TIP3    H226244   2.999   3.336   1.235  1.4913 -0.8042 -3.9582
 1585TIP3   OH226245   0.740   0.402  12.674 -0.0165  0.1890 -0.0281
 1585TIP3    H126246   0.803   0.384  12.604 -0.2374  0.3529 -0.2707
 1585TIP3    H226247   0.706   0.316  12.699 -0.7661  0.2168 -0.8992
 1586TIP3   OH226248   2.162   0.021  11.291 -0.3927  0.6710  0.3972
 1586TIP3    H126249   2.118  -0.053  11.251 -0.3310  0.2950  1.0057
 1586TIP3    H226250   2.193  -0.012  11.376  1.9681  0.5989 -0.4233
 1587TIP3   OH226251   4.937   6.114  16.894 -0.4519  0.6096  0.0026
 1587TIP3    H126252   4.891   6.155  16.821  1.0782  1.1138 -0.7225
 1587TIP3    H226253   4.905   6.023  16.895 -4.0517  1.6913  1.7609
 1588TIP3   OH226254   2.276   3.380   6.655 -0.4364  0.4607  0.0186
 1588TIP3    H126255   2.356   3.334   6.678  0.2078  0.2083 -2.4298
 1588TIP3    H226256   2.305   3.458   6.607 -1.6151  0.2795 -1.0685
 1589TIP3   OH226257   1.033   3.115   4.073 -0.3654  0.2774 -0.3470
 1589TIP3    H126258   1.024   3.111   3.978  0.6118  0.6239 -0.4653
 1589TIP3    H226259   0.968   3.179   4.100  0.6691  1.6429 -0.9980
 1590TIP3   OH226260   3.982   6.327   5.045 -0.2052  0.0336 -0.3028
 1590TIP3    H126261   3.947   6.369   4.966 -1.5335  0.5010  0.4907
 1590TIP3    H226262   3.966   6.234   5.031  2.0558 -0.2044 -1.7389
 1591TIP3   OH226263   3.236   3.514  14.271  0.3378  0.0627 -0.2529
 1591TIP3    H126264   3.180   3.549  14.202  1.8764  1.1315 -1.0196
 1591TIP3    H226265   3.253   3.588  14.329  1.0246 -0.2108 -0.0923
 1592TIP3   OH226266   4.129   4.547  15.589 -0.9325  0.5907 -0.3530
 1592TIP3    H126267   4.184   4.616  15.625  0.3679 -1.2484  1.4692
 1592TIP3    H226268   4.190   4.488  15.545 -1.4620 -1.0737  1.0027
 1593TIP3   OH226269   2.344   6.466   0.675  0.0292  0.5818  0.6741
 1593TIP3    H126270   2.318   6.548   0.634 -1.1288 -0.7420 -1.4590
 1593TIP3    H226271   2.424   6.439   0.629 -0.8820 -0.5609 -0.3350
 1594TIP3   OH226272   0.959   5.465  16.116 -0.5972  0.0634  0.1170
 1594TIP3    H126273   0.983   5.373  16.107 -0.6493 -0.1384  1.8477
 1594TIP3    H226274   1.037   5.513  16.087 -0.1351 -0.5418  0.3388
 1595TIP3   OH226275   0.272   1.370   2.429 -0.3474 -0.3966 -0.2448
 1595TIP3    H126276   0.227   1.345   2.349 -0.2092  0.7261 -0.6979
 1595TIP3    H226277   0.364   1.376   2.404 -0.4407  1.1319 -0.3456
 1596TIP3   OH226278   3.511   6.290  12.549 -0.0422 -0.1903  0.3532
 1596TIP3    H126279   3.465   6.230  12.490 -0.5464  0.6987 -0.1938
 1596TIP3    H226280   3.550   6.355  12.490 -0.1619  0.4520  0.9718
 1597TIP3   OH226281   4.563   4.783  16.450 -0.5308  0.3430 -0.2483
 1597TIP3    H126282   4.628   4.718  16.423 -0.5391  0.3480 -0.2807
 1597TIP3    H226283   4.522   4.746  16.528 -0.2761  0.4785 -0.0477
 1598TIP3   OH226284   4.999   1.890   4.127  0.0052 -0.3032  0.0602
 1598TIP3    H126285   4.939   1.835   4.178 -0.6793 -0.4426 -0.8815
 1598TIP3    H226286   4.981   1.868   4.036  0.1204  1.0788 -0.3158
 1599TIP3   OH226287   2.889   5.080   4.880  0.4949 -0.3020  0.7648
 1599TIP3    H126288   2.813   5.135   4.899  0.9861  0.5987  0.2108
 1599TIP3    H226289   2.914   5.104   4.791  1.6584 -0.3142  1.0759
 1600TIP3   OH226290   1.770   2.022  13.733  0.1897 -0.1154  0.4027
 1600TIP3    H126291   1.722   1.974  13.800  0.8809  0.4307  1.2979
 1600TIP3    H226292   1.786   2.108  13.771 -0.1616  0.5100 -0.8001
 1601TIP3   OH226293   4.759   3.755   2.079 -0.6427 -0.2765 -0.1583
 1601TIP3    H126294   4.670   3.782   2.056 -0.0332  1.9868 -0.1301
 1601TIP3    H226295   4.797   3.726   1.996 -1.1251 -0.3403 -0.3589
 1602TIP3   OH226296   6.679   0.465   0.557  0.4584 -0.2067 -0.1201
 1602TIP3    H126297   6.765   0.423   0.554  0.2818 -0.5972  0.2654
 1602TIP3    H226298   6.676   0.508   0.643 -0.0507 -0.8821  0.2091
 1603TIP3   OH226299   3.734   2.544  14.382  0.1044 -0.1371  0.2269
 1603TIP3    H126300   3.802   2.610  14.393 -0.4838  1.3306 -3.3372
 1603TIP3    H226301   3.681   2.550  14.461  2.8355  0.1408  2.1544
 1604TIP3   OH226302   1.650   1.644  14.171 -0.0536 -0.3039 -0.4264
 1604TIP3    H126303   1.579   1.686  14.220 -0.3944 -0.4193 -0.8160
 1604TIP3    H226304   1.623   1.552  14.167 -0.7981 -0.0428 -2.1490
 1605TIP3   OH226305   0.390   5.629   1.627  0.2809  0.0119 -0.0557
 1605TIP3    H126306   0.351   5.628   1.540  0.2443 -1.3935 -0.0385
 1605TIP3    H226307   0.391   5.538   1.655  0.9544  0.3513  1.1294
 1606TIP3   OH226308   4.327   6.536   3.698 -0.2635  0.1619  0.5333
 1606TIP3    H126309   4.262   6.600   3.726 -1.9367 -1.3572  0.3225
 1606TIP3    H226310   4.295   6.452   3.732  1.3466 -0.7202  0.0159
 1607TIP3   OH226311   0.318   3.691  15.971  0.1191  0.2473  0.5984
 1607TIP3    H126312   0.230   3.671  15.939 -0.0832  1.2730  0.4836
 1607TIP3    H226313   0.367   3.719  15.894  1.4199 -2.9786  0.1126
 1608TIP3   OH226314   6.653   3.556  11.604  0.5932 -0.5109 -1.0515
 1608TIP3    H126315   6.684   3.542  11.515  1.3815 -2.8324 -0.5041
 1608TIP3    H226316   6.563   3.525  11.604  0.6861 -0.7916 -1.0055
 1609TIP3   OH226317   1.900   1.617   2.377 -0.0736 -0.1823  1.0775
 1609TIP3    H126318   1.834   1.548   2.375 -1.6424  1.2617  1.2311
 1609TIP3    H226319   1.857   1.690   2.420  1.0026  1.4303 -0.4459
 1610TIP3   OH226320   0.271   6.154  12.766  0.1593  0.0319  0.1550
 1610TIP3    H126321   0.360   6.137  12.797  0.6834  0.6937 -0.9279
 1610TIP3    H226322   0.252   6.243  12.795 -0.1644 -0.1134  0.3992
 1611TIP3   OH226323   0.209   3.744  11.828 -0.7430 -0.0926 -0.2893
 1611TIP3    H126324   0.215   3.805  11.901 -2.1675 -0.6125  0.2952
 1611TIP3    H226325   0.273   3.676  11.848 -1.9093 -0.8219  1.0730
 1612TIP3   OH226326   6.104   5.169   5.479  0.0646 -0.2811  0.0123
 1612TIP3    H126327   6.162   5.243   5.460  2.5449 -2.1165 -0.2108
 1612TIP3    H226328   6.162   5.104   5.519 -1.8040 -2.4289 -0.5748
 1613TIP3   OH226329   2.935   5.815   2.647 -0.6467  0.3165  0.0799
 1613TIP3    H126330   2.989   5.773   2.580  1.7405  2.5266  0.4164
 1613TIP3    H226331   2.918   5.747   2.711 -1.6826 -1.4633 -1.9611
 1614TIP3   OH226332   0.696   6.413   0.836  0.3810  0.0153  0.3996
 1614TIP3    H126333   0.774   6.407   0.891 -0.1051  0.1618  1.1218
 1614TIP3    H226334   0.640   6.341   0.866  1.6179 -2.3276 -2.4131
 1615TIP3   OH226335   3.435   3.096   0.299 -0.0938 -0.2185 -0.0005
 1615TIP3    H126336   3.428   3.080   0.393  0.2435 -1.6923 -0.2075
 1615TIP3    H226337   3.437   3.192   0.291 -2.7056  0.0054  1.2646
 1616TIP3   OH226338   3.816   4.692   2.915  0.2816 -0.0313  0.1122
 1616TIP3    H126339   3.761   4.617   2.891 -1.6347  1.4466 -0.3858
 1616TIP3    H226340   3.763   4.742   2.978  1.4348  0.9707  0.3230
 1617TIP3   OH226341   6.051   5.975  16.241  0.3262 -0.1551  0.6788
 1617TIP3    H126342   6.021   5.933  16.321 -0.0866 -1.0464  0.0823
 1617TIP3    H226343   6.059   5.903  16.178  0.6677  0.5159 -0.0674
 1618TIP3   OH226344   1.219   5.383  15.216  0.1096  0.2263 -0.0245
 1618TIP3    H126345   1.242   5.343  15.132 -1.9966 -2.4154  0.4924
 1618TIP3    H226346   1.297   5.373  15.270  0.7003 -0.2225 -0.9363
 1619TIP3   OH226347   5.239   1.342   3.221 -0.3890 -0.1522  0.2366
 1619TIP3    H126348   5.273   1.300   3.300  0.9863 -0.1682 -0.3384
 1619TIP3    H226349   5.231   1.271   3.158 -1.5185 -0.1434  0.3499
 1620TIP3   OH226350   2.977   0.955  13.933  0.2361 -0.0959 -0.2428
 1620TIP3    H126351   2.906   0.892  13.925  0.6956 -0.7609  0.7629
 1620TIP3    H226352   2.997   0.957  14.027  1.4494  0.1777 -0.4910
 1621TIP3   OH226353   6.675   5.013  11.884  0.1691  0.4694  0.3655
 1621TIP3    H126354   6.660   4.968  11.968 -0.3615 -0.2057 -0.0813
 1621TIP3    H226355   6.628   4.960  11.820 -0.4758  1.6748 -0.1875
 1622TIP3   OH226356   0.569   3.162  16.634 -0.3553  0.3284 -0.1058
 1622TIP3    H126357   0.530   3.150  16.721 -0.9782  0.4106 -0.3700
 1622TIP3    H226358   0.623   3.085  16.621 -0.6882  0.0534  0.1295
 1623TIP3   OH226359   5.421   0.920   4.936  0.2803 -0.2807 -0.4468
 1623TIP3    H126360   5.499   0.878   4.972  0.2525 -0.0643 -0.1328
 1623TIP3    H226361   5.454   0.972   4.863  0.3106 -0.8689 -0.8597
 1624TIP3   OH226362   5.125   6.611  15.483 -0.3129  0.9537 -0.5388
 1624TIP3    H126363   5.181   6.639  15.410  0.8658 -1.3169 -0.6191
 1624TIP3    H226364   5.074   6.538  15.447  0.1868 -0.1149  0.8032
 1625TIP3   OH226365   4.259   3.067   2.364  0.4666  0.6580 -0.4393
 1625TIP3    H126366   4.266   3.069   2.460 -0.9700 -1.0300 -0.2446
 1625TIP3    H226367   4.210   2.987   2.346 -0.8587  1.8650 -2.5039
 1626TIP3   OH226368   5.925   2.883  13.976  0.4579 -0.4472  0.3244
 1626TIP3    H126369   5.854   2.824  13.949  0.8324  0.5295 -3.3342
 1626TIP3    H226370   5.989   2.878  13.905  1.6895  2.4857  1.0813
 1627TIP3   OH226371   6.289   4.890  17.265  0.1622  0.5728 -0.2424
 1627TIP3    H126372   6.312   4.942  17.342  0.6575  1.9842 -1.2925
 1627TIP3    H226373   6.370   4.845  17.242  0.9571  2.5908 -1.7123
 1628TIP3   OH226374   5.558   0.789  11.394  0.0728 -0.2899 -0.2928
 1628TIP3    H126375   5.595   0.702  11.409 -0.1793  0.1126  3.3444
 1628TIP3    H226376   5.624   0.850  11.425  0.2289  0.9191 -2.7639
 1629TIP3   OH226377   2.229   1.297   2.874  0.6632 -0.3391  0.0196
 1629TIP3    H126378   2.261   1.286   2.784  0.6088 -2.0745  0.1643
 1629TIP3    H226379   2.252   1.214   2.917 -1.2580 -0.4317  0.9866
 1630TIP3   OH226380   4.565   6.501  13.151 -0.2310 -0.7380  0.0673
 1630TIP3    H126381   4.509   6.532  13.221  0.4265 -0.8426  0.6488
 1630TIP3    H226382   4.631   6.446  13.195 -0.4188 -1.6417 -0.7429
 1631TIP3   OH226383   3.903   6.183   5.874  0.2294  0.2051 -0.5699
 1631TIP3    H126384   3.841   6.128   5.922  1.7884 -0.3552  0.9035
 1631TIP3    H226385   3.882   6.272   5.901  0.3127 -0.0162  0.2596
 1632TIP3   OH226386   4.996   0.566  12.240  0.0153  0.3439 -0.0402
 1632TIP3    H126387   4.939   0.620  12.186 -0.7403 -1.0989 -0.7475
 1632TIP3    H226388   4.937   0.504  12.282  0.9932 -0.9335 -0.4752
 1633TIP3   OH226389   2.788   1.390   0.383 -0.4604 -0.4095  0.1324
 1633TIP3    H126390   2.769   1.301   0.355 -0.7591 -0.3019 -0.0081
 1633TIP3    H226391   2.702   1.427   0.405 -0.5291  0.3671 -1.3528
 1634TIP3   OH226392   2.057   4.886   0.501 -0.0526 -0.3036 -0.1574
 1634TIP3    H126393   2.100   4.971   0.512  0.6563 -0.3628 -2.1066
 1634TIP3    H226394   2.045   4.877   0.407 -2.9674 -1.0000  0.1882
 1635TIP3   OH226395   4.776   1.624   5.561 -0.5330 -0.4320  0.7058
 1635TIP3    H126396   4.791   1.541   5.516  1.1334 -0.0755  0.5326
 1635TIP3    H226397   4.858   1.672   5.552 -1.1098  0.8271  1.6852
 1636TIP3   OH226398   1.382   5.719   1.964 -0.2973  0.0992 -0.0904
 1636TIP3    H126399   1.405   5.777   2.036  0.4332  0.4156 -0.5601
 1636TIP3    H226400   1.451   5.653   1.962 -0.0557  0.3529 -0.7618
 1637TIP3   OH226401   3.273   3.099   1.494 -0.1171  0.0839  0.3750
 1637TIP3    H126402   3.294   3.056   1.411 -0.0598 -0.7070  0.7938
 1637TIP3    H226403   3.202   3.159   1.472  1.2449  1.4255 -0.6749
 1638TIP3   OH226404   5.351   3.055  14.271 -0.9334  0.6241 -0.0266
 1638TIP3    H126405   5.420   3.118  14.291  0.7724 -0.9093 -0.8262
 1638TIP3    H226406   5.276   3.086  14.321  0.1973  2.5655  0.5900
 1639TIP3   OH226407   2.607   4.135  14.012 -0.3528  0.1235  0.0011
 1639TIP3    H126408   2.523   4.168  14.044 -0.8121  0.6092 -1.5921
 1639TIP3    H226409   2.662   4.213  14.006  0.4979 -0.2886  1.7247
 1640TIP3   OH226410   1.660   0.584   0.893 -0.4221 -0.2390  0.0603
 1640TIP3    H126411   1.675   0.625   0.808  0.6891 -0.1914  0.2656
 1640TIP3    H226412   1.744   0.544   0.915 -0.5221  0.2450  1.3930
 1641TIP3   OH226413   6.152   3.174  14.985 -0.0461  0.5517  0.1049
 1641TIP3    H126414   6.133   3.086  15.018  1.1086 -0.5369 -1.9375
 1641TIP3    H226415   6.175   3.224  15.063  0.0809 -1.1839  1.2384
 1642TIP3   OH226416   1.310   2.619  12.615  0.4614  0.3087 -0.1723
 1642TIP3    H126417   1.334   2.548  12.674 -0.3898  0.0300 -0.1536
 1642TIP3    H226418   1.363   2.603  12.536  0.1775 -0.4211 -0.2222
 1643TIP3   OH226419   1.263   0.612  11.122  0.3446  0.3593 -0.2205
 1643TIP3    H126420   1.286   0.530  11.165  0.5200  0.3938 -0.2455
 1643TIP3    H226421   1.343   0.637  11.075  1.2383  1.9450  1.9521
 1644TIP3   OH226422   4.478   1.875  12.926  0.3426 -0.2079  0.3309
 1644TIP3    H126423   4.559   1.915  12.895  0.4920 -0.5150  0.3205
 1644TIP3    H226424   4.410   1.940  12.906  0.3880 -0.5330 -0.9396
 1645TIP3   OH226425   4.966   1.324  15.397 -0.3439  0.6632 -0.2797
 1645TIP3    H126426   4.878   1.289  15.410  0.4241 -0.8166  1.4733
 1645TIP3    H226427   4.986   1.305  15.305 -2.0494  1.6212 -0.8872
 1646TIP3   OH226428   1.494   3.486  13.666  0.1395  0.0656  0.1431
 1646TIP3    H126429   1.420   3.476  13.607  0.0873  0.7636  0.0833
 1646TIP3    H226430   1.550   3.410  13.647  1.4602  1.5873 -2.7174
 1647TIP3   OH226431   5.610   0.292   0.239  0.3116 -0.5004 -0.3256
 1647TIP3    H126432   5.674   0.352   0.202  0.9878 -0.7836  0.3696
 1647TIP3    H226433   5.662   0.227   0.285 -0.4955 -0.3074  0.8964
 1648TIP3   OH226434   6.608   1.448  13.441 -0.1103  0.0001 -0.0902
 1648TIP3    H126435   6.584   1.479  13.529  1.5996  0.3353  0.3031
 1648TIP3    H226436   6.527   1.412  13.405 -0.4520 -1.9494  2.3720
 1649TIP3   OH226437   5.054   6.021  15.277 -0.5733  0.1130  0.4283
 1649TIP3    H126438   5.023   6.057  15.193 -0.3429  1.0605  0.7327
 1649TIP3    H226439   5.146   6.001  15.262 -1.1481 -2.2621 -0.3339
 1650TIP3   OH226440   5.989   5.226  14.834  0.4717  0.3687  0.2877
 1650TIP3    H126441   5.944   5.171  14.898  0.8484  0.4115  0.5933
 1650TIP3    H226442   6.026   5.165  14.771 -0.9176  0.3781 -0.5819
 1651TIP3   OH226443   2.321   6.330  14.580  0.1471 -0.0204  0.0152
 1651TIP3    H126444   2.273   6.255  14.615  1.9555 -1.4237 -0.3956
 1651TIP3    H226445   2.256   6.376  14.525 -1.0343 -1.1824  0.3826
 1652TIP3   OH226446   5.092   5.147  17.023  0.2891 -0.1877  0.2638
 1652TIP3    H126447   5.185   5.164  17.032  0.4095 -0.5314 -0.3333
 1652TIP3    H226448   5.085   5.053  17.007 -0.0348  0.0839 -1.3630
 1653TIP3   OH226449   4.114   4.572  17.044 -0.4321  0.2099 -0.0938
 1653TIP3    H126450   4.109   4.625  16.965  1.8271  1.4665  0.5311
 1653TIP3    H226451   4.075   4.488  17.018  2.7073 -0.4888 -3.5228
 1654TIP3   OH226452   5.095   4.534   2.001  0.0648  0.3044 -0.1556
 1654TIP3    H126453   5.079   4.572   2.088 -0.9603 -0.5264  0.0357
 1654TIP3    H226454   5.012   4.544   1.955  0.9791  1.9652 -1.5568
 1655TIP3   OH226455   1.627   3.802  15.099  0.0111 -0.7148 -0.4125
 1655TIP3    H126456   1.545   3.781  15.144 -0.4763  1.2638 -0.2889
 1655TIP3    H226457   1.692   3.746  15.141 -0.7740 -0.3163  1.4503
 1656TIP3   OH226458   4.203   5.672  14.885 -0.4679 -0.0563 -0.2928
 1656TIP3    H126459   4.289   5.650  14.920 -0.7909 -0.0897  0.5069
 1656TIP3    H226460   4.177   5.595  14.834  0.6757  0.6010 -1.9672
 1657TIP3   OH226461   5.416   4.040  14.615  0.6894  0.1693 -0.3765
 1657TIP3    H126462   5.328   4.065  14.644  0.5764 -1.1990  0.6021
 1657TIP3    H226463   5.465   4.027  14.697  1.4345 -0.2941 -0.8825
 1658TIP3   OH226464   2.044   0.257  17.084 -0.3432  0.3366 -0.1985
 1658TIP3    H126465   2.059   0.344  17.047  1.0414 -0.3203 -1.2692
 1658TIP3    H226466   2.130   0.215  17.083 -0.7985 -0.7260  1.1978
 1659TIP3   OH226467   5.216   2.164  14.051  0.2499 -0.3334 -0.5090
 1659TIP3    H126468   5.214   2.131  14.140 -0.3019 -0.1956 -0.4630
 1659TIP3    H226469   5.228   2.086  13.996  3.4958 -0.1818 -0.2204
 1660TIP3   OH226470   2.812   0.672  11.798  0.3792  0.3788 -0.2960
 1660TIP3    H126471   2.864   0.615  11.742  3.3328  4.0921 -1.8131
 1660TIP3    H226472   2.794   0.749  11.743 -4.8516  0.4689  0.9635
 1661TIP3   OH226473   4.815   3.368   1.117 -0.3374  0.3973 -0.3207
 1661TIP3    H126474   4.789   3.393   1.028 -0.3880 -0.5601 -0.5963
 1661TIP3    H226475   4.908   3.388   1.122 -0.1678 -0.2065 -0.8521
 1662TIP3   OH226476   1.167   4.147  13.151 -0.5678 -0.1337  0.4491
 1662TIP3    H126477   1.164   4.053  13.169 -1.7024 -0.0504  0.7964
 1662TIP3    H226478   1.245   4.159  13.098 -1.6177 -1.6481 -1.5961
 1663TIP3   OH226479   5.757   1.448  14.997 -0.5886 -0.0481  0.0407
 1663TIP3    H126480   5.741   1.542  15.002  0.3599  0.1203  0.1645
 1663TIP3    H226481   5.692   1.409  15.055 -0.3545  0.6150  0.7630
 1664TIP3   OH226482   5.016   5.839   2.546  0.1381 -0.5969 -0.1237
 1664TIP3    H126483   4.946   5.781   2.576  2.4557 -3.1565  0.7400
 1664TIP3    H226484   5.033   5.897   2.620 -1.8198  0.9761 -0.7979
 1665TIP3   OH226485   0.713   1.563   3.239  0.1028  0.5327 -0.1163
 1665TIP3    H126486   0.638   1.513   3.204 -0.5717  1.0738  0.5327
 1665TIP3    H226487   0.737   1.622   3.168 -0.6153  0.9262 -0.0391
 1666TIP3   OH226488   1.347   1.097   0.036  0.0583 -0.1199 -0.0410
 1666TIP3    H126489   1.320   1.082  -0.055 -2.6235 -1.6999  0.9214
 1666TIP3    H226490   1.290   1.168   0.066  1.1827  0.6483  0.3428
 1667TIP3   OH226491   1.507   4.339   1.384 -0.7307 -0.0708  0.1673
 1667TIP3    H126492   1.520   4.386   1.301  1.2561 -0.9758 -0.0732
 1667TIP3    H226493   1.540   4.251   1.367 -1.0224 -0.4983  1.7000
 1668TIP3   OH226494   1.468   3.792  12.530 -0.3485 -0.2292  0.1755
 1668TIP3    H126495   1.442   3.705  12.499  1.6371 -0.8840  0.2372
 1668TIP3    H226496   1.518   3.829  12.457  1.1820 -0.2802  1.1620
 1669TIP3   OH226497   1.611   2.775   5.835  0.1581  0.2551 -0.0080
 1669TIP3    H126498   1.633   2.838   5.903  0.3222  0.0069  0.1692
 1669TIP3    H226499   1.685   2.778   5.774  1.4618 -1.6667  1.3562
 1670TIP3   OH226500   4.062   4.008   6.047 -0.1926  0.1620 -0.6305
 1670TIP3    H126501   4.097   4.077   6.103 -0.2611  0.3226 -0.7837
 1670TIP3    H226502   3.986   4.048   6.004 -0.7566 -0.2863 -0.0557
 1671TIP3   OH226503   1.793   0.286  16.836  0.6094 -0.1031  0.2410
 1671TIP3    H126504   1.715   0.341  16.841  0.7731  0.2133 -0.5455
 1671TIP3    H226505   1.863   0.346  16.813  0.9470 -0.5135  0.1948
 1672TIP3   OH226506   5.804   5.523   1.527  0.3582  0.7751  0.1668
 1672TIP3    H126507   5.877   5.474   1.565  0.1309  0.5850  0.3582
 1672TIP3    H226508   5.834   5.614   1.530  1.3562  0.5387 -1.4643
 1673TIP3   OH226509   6.820   4.018   0.009  0.5088 -0.0692  0.5755
 1673TIP3    H126510   6.804   4.083  -0.060 -0.4711  0.2592  1.0971
 1673TIP3    H226511   6.890   4.056   0.061 -0.2695  0.7427  1.0650
 1674TIP3   OH226512   2.576   1.952   5.056 -0.0400 -0.0627  0.3522
 1674TIP3    H126513   2.517   1.891   5.012  1.1503 -1.0713  0.1098
 1674TIP3    H226514   2.536   2.038   5.041 -1.2319 -0.6765 -0.1361
 1675TIP3   OH226515   0.276   3.136  15.998  0.2080 -0.2607  0.2536
 1675TIP3    H126516   0.355   3.146  16.052  0.3801  1.5148 -0.2689
 1675TIP3    H226517   0.296   3.184  15.917 -1.3728  0.1512  0.0758
 1676TIP3   OH226518   1.327   5.700  11.243 -0.2747  0.4221  0.2366
 1676TIP3    H126519   1.327   5.756  11.166  0.2121 -1.3564 -1.1178
 1676TIP3    H226520   1.279   5.622  11.216  2.6299 -1.6294  0.6281
 1677TIP3   OH226521   1.825   6.151  16.169  0.0799  0.4445 -0.7496
 1677TIP3    H126522   1.893   6.218  16.180 -0.0125  0.5229 -0.6526
 1677TIP3    H226523   1.804   6.154  16.076  1.0343 -0.3817 -1.0072
 1678TIP3   OH226524   2.776   1.772   6.244  0.4924 -0.3112 -0.6412
 1678TIP3    H126525   2.859   1.726   6.245 -1.4282 -4.1636 -1.3186
 1678TIP3    H226526   2.779   1.825   6.165  2.3527 -0.1498 -0.5135
 1679TIP3   OH226527   5.306   1.428   5.132  0.0065 -0.5615  0.2838
 1679TIP3    H126528   5.290   1.511   5.177  1.7492  0.1067 -0.2531
 1679TIP3    H226529   5.346   1.372   5.199  0.2870 -0.4261  0.2298
 1680TIP3   OH226530   3.242   5.985  14.503  0.3334  0.0638  0.2898
 1680TIP3    H126531   3.269   5.934  14.579 -0.8811 -0.4947  0.3755
 1680TIP3    H226532   3.202   6.063  14.540 -1.7878 -0.9756  0.3258
 1681TIP3   OH226533   0.780   3.766  15.385  0.2111 -0.2676  0.3001
 1681TIP3    H126534   0.720   3.797  15.318 -0.9727 -1.3369  0.8168
 1681TIP3    H226535   0.733   3.781  15.468  0.7267 -0.9324  0.7244
 1682TIP3   OH226536   2.875   0.015   1.082  0.1269  0.3456  0.1011
 1682TIP3    H126537   2.810  -0.042   1.123  0.1678 -0.5521 -1.0069
 1682TIP3    H226538   2.958  -0.033   1.092 -0.0920 -0.7192 -2.3476
 1683TIP3   OH226539   6.366   0.949   1.992  0.0102 -0.5162  0.0662
 1683TIP3    H126540   6.334   0.924   1.905 -0.4633  0.2454  0.0103
 1683TIP3    H226541   6.415   1.029   1.978  2.0835 -1.7059  0.1506
 1684TIP3   OH226542   0.552   2.689  15.133 -0.4984  0.5029 -0.0718
 1684TIP3    H126543   0.514   2.656  15.215 -1.7597  2.1494  0.0678
 1684TIP3    H226544   0.512   2.636  15.065  0.7357 -1.0380  0.3640
 1685TIP3   OH226545   0.771   3.574   2.717 -0.2525 -0.5704 -0.2400
 1685TIP3    H126546   0.810   3.492   2.686 -0.4034 -0.6794 -0.1377
 1685TIP3    H226547   0.698   3.590   2.657 -1.2661 -1.3771  0.7397
 1686TIP3   OH226548   4.013   6.439  14.246 -0.6472 -0.5401 -0.3219
 1686TIP3    H126549   3.963   6.444  14.164 -3.8743 -0.5291  1.4926
 1686TIP3    H226550   3.981   6.359  14.288 -0.0078  0.1239  1.5043
 1687TIP3   OH226551   4.392   2.120  16.342 -0.2471 -0.3332  0.3910
 1687TIP3    H126552   4.441   2.074  16.410 -0.8067  0.6916  1.5419
 1687TIP3    H226553   4.335   2.180  16.391 -0.1169  0.9888 -1.0063
 1688TIP3   OH226554   0.978   5.004   0.933 -0.5962  0.0853 -0.1854
 1688TIP3    H126555   1.046   5.021   0.868  0.4314 -0.7123  0.6413
 1688TIP3    H226556   0.912   4.954   0.886 -0.7221  1.0328 -1.0517
 1689TIP3   OH226557   4.223   2.112  11.922  0.7428 -0.0015  0.2301
 1689TIP3    H126558   4.142   2.089  11.968  1.0672  0.4905  1.0717
 1689TIP3    H226559   4.194   2.160  11.845  0.1885 -0.8332 -0.0904
 1690TIP3   OH226560   6.203   4.037   5.511 -0.6557  0.2313  0.4235
 1690TIP3    H126561   6.126   4.005   5.556 -0.7889  1.3245  1.0156
 1690TIP3    H226562   6.209   4.129   5.536 -0.3807  0.7287 -1.2996
 1691TIP3   OH226563   0.770   1.151   5.791 -0.3572 -0.5390 -0.4282
 1691TIP3    H126564   0.798   1.076   5.844 -1.0682 -0.5129  0.0021
 1691TIP3    H226565   0.711   1.200   5.849  1.3801  1.2718 -0.0877
 1692TIP3   OH226566   1.001   6.446   4.888  0.1413  0.8668 -0.3815
 1692TIP3    H126567   0.954   6.489   4.817  0.1869 -0.0956 -1.0196
 1692TIP3    H226568   1.088   6.429   4.852  0.3801  0.9762  0.1443
 1693TIP3   OH226569   5.637   6.405  13.932  0.2335 -0.6794 -0.2198
 1693TIP3    H126570   5.645   6.481  13.875 -2.6182 -0.3702 -0.3321
 1693TIP3    H226571   5.653   6.440  14.020 -1.0545  0.1161 -0.2679
 1694TIP3   OH226572   4.711   2.358  16.539 -0.2069  0.1458 -0.2525
 1694TIP3    H126573   4.691   2.264  16.540 -0.7679  0.2590  0.6380
 1694TIP3    H226574   4.627   2.400  16.562  0.3382  0.7948  0.6269
 1695TIP3   OH226575   6.349   3.859   5.139 -0.0582 -0.6681 -0.2673
 1695TIP3    H126576   6.267   3.902   5.161  0.0963  0.2315 -1.3344
 1695TIP3    H226577   6.343   3.842   5.045  1.1048 -0.2887 -0.4336
 1696TIP3   OH226578   4.943   2.755   3.087  0.5706 -0.4723 -0.2134
 1696TIP3    H126579   4.880   2.689   3.058  1.2052 -2.0529  1.7493
 1696TIP3    H226580   5.026   2.728   3.049  0.3971  0.7015 -1.4936
 1697TIP3   OH226581   4.276   1.951   5.519 -0.5602 -0.3053 -0.4747
 1697TIP3    H126582   4.272   1.965   5.614 -0.4310 -0.4117 -0.4531
 1697TIP3    H226583   4.215   2.015   5.483 -0.9085 -0.5335 -0.2934
 1698TIP3   OH226584   4.626   6.311  10.310  0.0511 -0.6075 -0.2571
 1698TIP3    H126585   4.578   6.394  10.318 -1.5615 -1.6614  2.3754
 1698TIP3    H226586   4.564   6.251  10.269  0.6444 -0.9401 -0.6838
 1699TIP3   OH226587   3.646   1.427   0.450 -0.0570  0.3732 -0.0709
 1699TIP3    H126588   3.571   1.387   0.406  0.0994  1.6117 -1.5651
 1699TIP3    H226589   3.617   1.438   0.541 -1.0444 -0.6847 -0.2295
 1700TIP3   OH226590   1.939   3.751  15.148  0.2088 -0.0930  0.3573
 1700TIP3    H126591   1.981   3.701  15.217 -0.4541 -0.9557  0.1563
 1700TIP3    H226592   1.912   3.686  15.083 -0.2327  0.5696 -0.1502
 1701TIP3   OH226593   4.631   1.641   3.602  0.1516  0.2964 -0.4118
 1701TIP3    H126594   4.705   1.701   3.592  1.3569 -1.1054 -0.2587
 1701TIP3    H226595   4.595   1.632   3.514  0.7647  0.2632 -0.6654
 1702TIP3   OH226596   1.890   5.755  15.496  0.1873  0.0079 -0.6883
 1702TIP3    H126597   1.972   5.797  15.524 -0.5204  0.8190  0.2151
 1702TIP3    H226598   1.853   5.719  15.576  0.1001 -1.1902 -1.2442
 1703TIP3   OH226599   1.276   3.047  12.924  0.1486 -0.5989 -0.3354
 1703TIP3    H126600   1.343   3.113  12.940 -0.7781  0.5708 -1.0481
 1703TIP3    H226601   1.324   2.968  12.900  1.2837  0.4732 -1.8085
 1704TIP3   OH226602   5.963   6.337  14.051  0.2682 -0.2665  0.6027
 1704TIP3    H126603   5.941   6.424  14.084 -2.2221 -1.1511  1.4487
 1704TIP3    H226604   6.056   6.326  14.072 -0.0317  1.1347  2.9087
 1705TIP3   OH226605   0.771   4.541   6.270 -0.4609 -0.2324 -0.3380
 1705TIP3    H126606   0.769   4.578   6.358 -0.8046 -0.9334 -0.0427
 1705TIP3    H226607   0.864   4.536   6.248 -0.2983 -1.3250  0.5429
 1706TIP3   OH226608   2.590   1.650  12.214  0.4881  0.1375  0.5707
 1706TIP3    H126609   2.617   1.699  12.291  2.0073  0.2777 -0.0121
 1706TIP3    H226610   2.537   1.712  12.163  0.8878  0.5927  0.7055
 1707TIP3   OH226611   3.074   6.373   3.852  0.4163  0.0454 -0.2778
 1707TIP3    H126612   3.039   6.421   3.927  2.2464 -0.0349  0.6692
 1707TIP3    H226613   3.153   6.421   3.828  1.4899 -1.6440 -0.2344
 1708TIP3   OH226614   2.138   0.029   1.251 -0.7477  0.3235  0.2030
 1708TIP3    H126615   2.091  -0.032   1.193  0.8958 -0.6528 -0.1781
 1708TIP3    H226616   2.139  -0.015   1.336  0.9550 -0.5393 -0.2109
 1709TIP3   OH226617   0.473   2.991   4.530 -0.2220  0.2985  0.6472
 1709TIP3    H126618   0.538   2.925   4.556 -1.1768 -0.9000  0.1322
 1709TIP3    H226619   0.462   3.046   4.607  1.5233  0.6554  0.6863
 1710TIP3   OH226620   1.687   2.828   5.215 -0.1107  0.3282 -0.0703
 1710TIP3    H126621   1.649   2.742   5.228  0.2207  0.0731 -0.7078
 1710TIP3    H226622   1.615   2.889   5.229  0.1756  0.1479  2.8573
 1711TIP3   OH226623   4.414   5.840   0.776  0.1115  0.2952  0.2576
 1711TIP3    H126624   4.326   5.843   0.739  0.2208  0.9546  0.0266
 1711TIP3    H226625   4.472   5.856   0.701  0.3735  0.8483  0.5657
 1712TIP3   OH226626   1.196   4.208   0.524  0.8630 -0.8346 -0.6286
 1712TIP3    H126627   1.133   4.262   0.476 -0.9977 -1.1496  1.3113
 1712TIP3    H226628   1.237   4.154   0.457 -1.1365 -0.7993 -1.9734
 1713TIP3   OH226629   5.406   2.471   6.407  0.5003  0.1219  0.2150
 1713TIP3    H126630   5.317   2.495   6.383  0.4613  1.6211  1.7033
 1713TIP3    H226631   5.398   2.434   6.495  1.2337 -0.7188 -0.0586
 1714TIP3   OH226632   0.144   5.870   0.909 -0.0691 -0.6496 -0.6486
 1714TIP3    H126633   0.145   5.875   0.814 -1.3334 -1.4478 -0.7227
 1714TIP3    H226634   0.065   5.918   0.935  0.9987  0.7892  0.1148
 1715TIP3   OH226635   4.388   6.743  14.216  0.5626 -0.2697 -0.0630
 1715TIP3    H126636   4.327   6.769  14.147  0.6093 -0.2397 -0.0936
 1715TIP3    H226637   4.474   6.766  14.181  0.8557 -2.7971 -1.1666
 1716TIP3   OH226638   6.219   6.791   3.342  0.0254  0.2544  0.0984
 1716TIP3    H126639   6.153   6.745   3.289 -1.4213 -1.2420  2.9538
 1716TIP3    H226640   6.280   6.723   3.368  1.9347  1.3655 -1.2409
 1717TIP3   OH226641   3.322   2.971  13.017 -0.5721 -0.5783 -0.2972
 1717TIP3    H126642   3.351   3.017  13.096  0.4397 -2.6770  0.6237
 1717TIP3    H226643   3.229   2.994  13.008 -0.4453  0.4853  0.9154
 1718TIP3   OH226644   4.153   4.410  14.745 -0.0894 -0.4641 -0.1214
 1718TIP3    H126645   4.218   4.387  14.811  0.5999 -0.0982 -0.6569
 1718TIP3    H226646   4.086   4.460  14.793  0.6519  0.2304  0.2111
 1719TIP3   OH226647   3.924   2.021  17.221 -0.1427 -0.3446 -0.2783
 1719TIP3    H126648   3.937   2.044  17.313  0.3279  0.8732 -0.6297
 1719TIP3    H226649   3.856   1.954  17.222 -0.5822  0.1023  0.9177
 1720TIP3   OH226650   3.886   4.217   1.288 -0.1870  0.2803 -0.1186
 1720TIP3    H126651   3.812   4.275   1.308 -0.3666 -0.1138  0.3782
 1720TIP3    H226652   3.863   4.177   1.204 -0.3344  0.4909 -0.1781
 1721TIP3   OH226653   3.464   3.953  16.232 -0.6218 -0.2017  0.2413
 1721TIP3    H126654   3.397   4.008  16.191 -1.9913 -1.6350  0.4646
 1721TIP3    H226655   3.479   3.992  16.318 -1.6574 -0.2325  0.4395
 1722TIP3   OH226656   5.162   4.420   2.810 -0.4121 -0.7597 -0.7418
 1722TIP3    H126657   5.100   4.446   2.878  0.6537 -0.7166  0.2456
 1722TIP3    H226658   5.214   4.350   2.850  0.4688 -0.4935 -1.3957
 1723TIP3   OH226659   1.579   2.941  17.135 -0.5714 -0.3798 -0.3795
 1723TIP3    H126660   1.555   3.025  17.096 -0.5980 -0.7334 -1.1545
 1723TIP3    H226661   1.675   2.942  17.137 -0.5884  0.0669  0.5271
 1724TIP3   OH226662   6.002   5.774  16.791  0.8092  0.8707  0.1197
 1724TIP3    H126663   6.012   5.765  16.697 -0.4250 -1.4914  0.1516
 1724TIP3    H226664   6.067   5.715  16.829  1.4835  1.9976  0.8097
 1725TIP3   OH226665   4.217   4.053  11.561 -0.3588  1.0619 -0.0061
 1725TIP3    H126666   4.233   3.996  11.486 -1.5493  1.7732 -0.8395
 1725TIP3    H226667   4.265   4.133  11.540  0.7363  0.6525  0.8350
 1726TIP3   OH226668   6.011   5.285   5.113  0.1670  0.1881 -0.1906
 1726TIP3    H126669   5.928   5.332   5.102 -0.6842 -1.1239  0.4037
 1726TIP3    H226670   5.988   5.206   5.162  1.9181  0.2169  0.7533
 1727TIP3   OH226671   5.929   1.605   0.433  0.4227  0.0664 -0.2551
 1727TIP3    H126672   5.916   1.691   0.392  1.5600  0.5333  0.3187
 1727TIP3    H226673   5.915   1.542   0.362 -1.6077  0.6346 -0.4254
 1728TIP3   OH226674   3.604   3.916  13.737 -0.6791  0.3382  0.2879
 1728TIP3    H126675   3.569   3.907  13.649  1.0094  1.5485 -0.5548
 1728TIP3    H226676   3.699   3.916  13.726 -0.3163 -1.7839  2.3621
 1729TIP3   OH226677   4.618   0.635   2.548  0.3353 -0.0209  0.2707
 1729TIP3    H126678   4.664   0.693   2.487  0.8044 -1.2013 -0.5163
 1729TIP3    H226679   4.623   0.681   2.632 -0.6719  1.8317 -0.6117
 1730TIP3   OH226680   1.557   0.969   2.816  0.3314 -0.0448 -0.7056
 1730TIP3    H126681   1.640   0.951   2.859  0.9009  1.0721 -1.2944
 1730TIP3    H226682   1.555   0.909   2.742  1.1893  0.7340 -1.3823
 1731TIP3   OH226683   2.895   3.570  10.864  0.0784 -0.0080 -0.5285
 1731TIP3    H126684   2.828   3.570  10.796  0.4614  0.7568 -0.9159
 1731TIP3    H226685   2.846   3.586  10.945 -0.3261 -0.4845 -0.6750
 1732TIP3   OH226686   6.623   3.063   5.875  0.0881 -0.1686  0.7623
 1732TIP3    H126687   6.546   3.120   5.882 -0.5769 -1.1068  1.3391
 1732TIP3    H226688   6.592   2.977   5.902  0.7994 -1.0828 -1.1440
 1733TIP3   OH226689   6.673   3.334  13.600  0.0089  0.5148  0.4187
 1733TIP3    H126690   6.688   3.398  13.530 -1.4210 -0.5649 -0.9174
 1733TIP3    H226691   6.743   3.353  13.663 -0.9945  4.1771  0.6938
 1734TIP3   OH226692   5.076   1.823  11.946 -0.0816 -0.2946  1.0443
 1734TIP3    H126693   5.055   1.768  11.871  1.6317 -0.8076  0.8962
 1734TIP3    H226694   5.011   1.800  12.012 -1.3953 -0.0920 -0.1363
 1735TIP3   OH226695   0.056   2.645   2.081 -0.4018  0.3213  0.2013
 1735TIP3    H126696  -0.019   2.640   2.021  0.1104 -0.9536 -0.3698
 1735TIP3    H226697   0.103   2.563   2.068  0.8008  0.8553  0.9566
 1736TIP3   OH226698   3.963   5.183   1.379 -0.1914 -0.1453 -0.8589
 1736TIP3    H126699   3.999   5.117   1.439 -1.0088  0.8746  0.8221
 1736TIP3    H226700   4.038   5.212   1.328  0.3940 -1.5699 -0.8517
 1737TIP3   OH226701   4.792   0.130  13.216 -0.3831  0.3653  0.3380
 1737TIP3    H126702   4.744   0.202  13.176 -2.8839 -0.8516  0.9592
 1737TIP3    H226703   4.777   0.055  13.159  0.9817 -0.0455  0.4594
 1738TIP3   OH226704   5.628   4.369   5.681  0.2460  0.0681  0.8661
 1738TIP3    H126705   5.665   4.285   5.653 -0.6569 -0.0870  0.0522
 1738TIP3    H226706   5.589   4.351   5.766  2.3466  0.3421  1.9473
 1739TIP3   OH226707   0.364   6.817  15.576  0.3245  0.0042  0.1441
 1739TIP3    H126708   0.328   6.824  15.488 -0.8113 -4.5673 -0.0049
 1739TIP3    H226709   0.295   6.849  15.633 -0.8404 -1.2275 -0.5120
 1740TIP3   OH226710   6.348   4.492  11.774 -0.0889  0.5250 -0.1959
 1740TIP3    H126711   6.409   4.422  11.751 -0.6848 -0.4752  1.1564
 1740TIP3    H226712   6.350   4.496  11.869 -1.3106  1.2094 -0.1748
 1741TIP3   OH226713   4.523   5.813  13.743  0.7749 -0.6264  0.2386
 1741TIP3    H126714   4.529   5.752  13.670  0.0992  0.6081 -0.8655
 1741TIP3    H226715   4.519   5.756  13.821  1.5235 -1.9497 -0.6505
 1742TIP3   OH226716   1.420   2.789   4.674  0.1962 -0.1566 -0.3468
 1742TIP3    H126717   1.515   2.781   4.680  0.2116  0.3668  0.1658
 1742TIP3    H226718   1.391   2.706   4.635  0.9225 -0.0217 -1.2136
 1743TIP3   OH226719   6.250   6.584   4.369 -0.2109 -0.5500  0.1877
 1743TIP3    H126720   6.286   6.510   4.417 -0.7670 -0.3497  0.9212
 1743TIP3    H226721   6.270   6.565   4.277 -1.3080 -2.1692  0.2517
 1744TIP3   OH226722   2.603   1.039   2.265 -0.2657 -0.1512  0.4439
 1744TIP3    H126723   2.550   1.031   2.186 -1.2818 -1.7336  1.2319
 1744TIP3    H226724   2.541   1.069   2.332  0.4032  0.4059  0.8226
 1745TIP3   OH226725   5.984   3.829   6.293  1.0956  0.5763 -0.3908
 1745TIP3    H126726   5.905   3.865   6.253  0.6750  0.2768  0.1547
 1745TIP3    H226727   6.035   3.905   6.319  0.1580  0.8059  0.8718
 1746TIP3   OH226728   4.938   5.696   0.150  0.2205  0.1701  0.4405
 1746TIP3    H126729   4.974   5.779   0.118  0.3412 -0.2105 -0.4305
 1746TIP3    H226730   4.960   5.632   0.082 -1.0141 -0.3258  0.4864
 1747TIP3   OH226731   3.594   2.440  12.898  0.5523 -0.2373  0.0971
 1747TIP3    H126732   3.533   2.512  12.882  0.9775  0.0050 -0.4468
 1747TIP3    H226733   3.659   2.448  12.829  0.8374 -0.8934  0.2874
 1748TIP3   OH226734   1.059   6.442   1.820  0.4138 -0.0681 -0.3573
 1748TIP3    H126735   1.081   6.349   1.814 -1.4416 -0.5316 -0.5522
 1748TIP3    H226736   0.984   6.453   1.761 -1.2924  0.8967  1.8511
 1749TIP3   OH226737   3.449   5.945   3.703  0.9864  0.3627 -0.1940
 1749TIP3    H126738   3.463   5.930   3.610  0.5371 -0.5634 -0.1233
 1749TIP3    H226739   3.354   5.959   3.710  0.2861 -3.6589  0.5977
 1750TIP3   OH226740   2.827   1.694  17.201  0.2846 -0.0469  0.2030
 1750TIP3    H126741   2.906   1.641  17.211  0.5196  0.5134  1.4789
 1750TIP3    H226742   2.812   1.732  17.288  0.0423  1.8617 -0.6302
 1751TIP3   OH226743   0.665   5.868   5.613 -0.4103  0.2545  0.0533
 1751TIP3    H126744   0.668   5.784   5.660 -2.0637  1.4835  2.5597
 1751TIP3    H226745   0.757   5.892   5.602  0.0803 -1.5491 -0.1160
 1752TIP3   OH226746   6.576   2.215   6.551 -0.2729  0.0726 -0.9610
 1752TIP3    H126747   6.560   2.287   6.490 -0.7971  0.7512 -0.0541
 1752TIP3    H226748   6.496   2.162   6.547  0.0782 -0.4311 -1.5630
 1753TIP3   OH226749   5.940   2.091   3.122  0.0120 -0.0183  0.0533
 1753TIP3    H126750   5.987   2.086   3.206 -1.0544  0.1766  0.6915
 1753TIP3    H226751   5.928   2.185   3.107 -0.3159 -0.0666 -0.0001
 1754TIP3   OH226752   2.378   3.722  13.473  0.2906  0.1102 -0.3474
 1754TIP3    H126753   2.453   3.754  13.423  0.4726  0.9578  0.4192
 1754TIP3    H226754   2.302   3.737  13.416  0.7316 -1.1600 -1.3018
 1755TIP3   OH226755   1.298   4.239  17.014 -0.1103 -0.3870  0.1265
 1755TIP3    H126756   1.352   4.194  16.950 -0.4753 -1.3616  0.4808
 1755TIP3    H226757   1.215   4.255  16.968 -0.4517 -1.2848  0.4024
 1756TIP3   OH226758   2.359   6.375   5.295  0.1720  0.4971  0.3647
 1756TIP3    H126759   2.419   6.344   5.227 -1.4284  0.2042 -0.9593
 1756TIP3    H226760   2.369   6.311   5.366  0.5157 -0.2563 -0.3444
 1757TIP3   OH226761   3.580   1.567   1.438 -0.5811 -0.2068 -0.2448
 1757TIP3    H126762   3.612   1.625   1.368  1.2308 -0.9131 -0.0521
 1757TIP3    H226763   3.599   1.479   1.407 -0.2194 -0.5524  0.9126
 1758TIP3   OH226764   2.694   5.128   3.875  0.9275 -0.1029  0.3698
 1758TIP3    H126765   2.616   5.076   3.895  2.7101 -1.8294  3.5870
 1758TIP3    H226766   2.716   5.103   3.786 -1.1991 -0.8694 -0.0229
 1759TIP3   OH226767   1.844   3.016   4.545 -0.0751  0.5188 -0.3975
 1759TIP3    H126768   1.927   3.062   4.530 -0.7200  1.5918 -0.7827
 1759TIP3    H226769   1.777   3.080   4.521 -1.0201 -0.2849  0.0584
 1760TIP3   OH226770   2.865   4.050  13.040 -0.5174  0.4202 -0.4513
 1760TIP3    H126771   2.885   3.959  13.065 -1.6384  0.2626 -0.0503
 1760TIP3    H226772   2.950   4.088  13.019  0.3749  0.1230  2.2252
 1761TIP3   OH226773   1.563   3.289   3.344 -0.3547  0.3947 -0.8731
 1761TIP3    H126774   1.569   3.366   3.288 -0.9345  0.0387 -1.4268
 1761TIP3    H226775   1.639   3.236   3.319  0.5051  1.1328  0.0644
 1762TIP3   OH226776   4.233   2.481  11.466 -0.7211 -0.3684  0.5976
 1762TIP3    H126777   4.172   2.454  11.397 -0.2717  1.7245 -0.7068
 1762TIP3    H226778   4.177   2.503  11.540 -1.9431  3.3348 -1.1600
 1763TIP3   OH226779   0.996   0.700   0.004  0.5798  0.1090  0.1641
 1763TIP3    H126780   0.938   0.629  -0.022  2.0860 -1.0136 -0.2560
 1763TIP3    H226781   0.998   0.758  -0.073  0.6309 -0.2597 -0.1127
 1764TIP3   OH226782   4.287   6.506  12.311 -0.1689 -0.1017 -0.1640
 1764TIP3    H126783   4.297   6.550  12.226  2.2255  0.1315  0.1474
 1764TIP3    H226784   4.196   6.480  12.314 -0.9494  2.0858 -1.7427
 1765TIP3   OH226785   3.464   6.088  15.305  0.4915 -0.2858 -0.3347
 1765TIP3    H126786   3.396   6.104  15.240  0.2444 -0.7768 -0.1955
 1765TIP3    H226787   3.474   5.993  15.308  1.4157 -0.2050 -0.5900
 1766TIP3   OH226788   1.950   1.380  11.607  0.0073  0.3577  0.1176
 1766TIP3    H126789   1.875   1.321  11.598  0.1075  0.4127 -1.4616
 1766TIP3    H226790   2.019   1.338  11.554  0.5929  1.0687  0.3027
 1767TIP3   OH226791   5.274   4.335   3.783 -0.8318  0.1103  0.4141
 1767TIP3    H126792   5.300   4.244   3.796 -0.0290  0.2074 -0.4366
 1767TIP3    H226793   5.354   4.385   3.801 -1.3041  0.6702  1.0211
 1768TIP3   OH226794   2.459   4.719  14.454 -0.2281 -0.2214  0.8098
 1768TIP3    H126795   2.509   4.637  14.458 -1.6185 -1.1638  0.0336
 1768TIP3    H226796   2.492   4.771  14.528  2.2506 -0.5253  0.0108
 1769TIP3   OH226797   4.732   4.763  11.893  0.4908 -0.7542 -0.0790
 1769TIP3    H126798   4.693   4.799  11.814 -0.4368 -1.3487  0.0889
 1769TIP3    H226799   4.785   4.835  11.929 -0.9649  0.2913  0.0328
 1770TIP3   OH226800   0.442   0.136  11.429  0.2004  0.0317  0.3228
 1770TIP3    H126801   0.439   0.042  11.408 -0.5017  0.3318 -0.9998
 1770TIP3    H226802   0.495   0.174  11.360 -3.0654  1.2132 -1.7348
 1771TIP3   OH226803   6.107   5.452  14.999 -0.7096  0.4416 -0.4246
 1771TIP3    H126804   6.132   5.443  15.090  2.2087 -0.6547 -1.2182
 1771TIP3    H226805   6.060   5.371  14.978  1.9217 -1.1179 -0.7409
 1772TIP3   OH226806   1.906   0.046   2.042  0.4170  0.1877  0.2928
 1772TIP3    H126807   1.903   0.123   1.985 -2.1390  0.4059  0.6055
 1772TIP3    H226808   1.897  -0.029   1.983 -0.4401  0.3201  0.2474
 1773TIP3   OH226809   5.517   0.082   6.269  0.2247  0.7209  0.2289
 1773TIP3    H126810   5.603   0.107   6.233 -0.0054 -0.2042 -1.0159
 1773TIP3    H226811   5.524   0.102   6.362  2.8713 -2.0280  0.7880
 1774TIP3   OH226812   2.970   0.985  13.267  0.1946 -0.3203 -0.0303
 1774TIP3    H126813   2.946   0.893  13.255  0.7096 -0.4250 -0.2723
 1774TIP3    H226814   2.992   1.015  13.179 -0.6904  0.2413 -0.0664
 1775TIP3   OH226815   0.841   4.544  12.474  0.3347 -0.0299  0.0589
 1775TIP3    H126816   0.820   4.566  12.564  1.3136 -0.0346  0.3065
 1775TIP3    H226817   0.880   4.624  12.438 -1.6518  0.5631 -0.9303
 1776TIP3   OH226818   2.000   4.216   0.501 -0.4393  0.2227 -0.4576
 1776TIP3    H126819   2.014   4.309   0.519  0.0161 -0.0997  0.9764
 1776TIP3    H226820   1.919   4.195   0.546  1.5564 -0.9804  2.9263
 1777TIP3   OH226821   3.662   0.702   5.928  0.2125 -0.4596 -0.3428
 1777TIP3    H126822   3.738   0.748   5.964 -1.7072  3.1124 -0.4179
 1777TIP3    H226823   3.604   0.689   6.003  1.2538 -4.5254  0.0293
 1778TIP3   OH226824   4.071   5.909   0.169  0.2029 -0.5545  0.6062
 1778TIP3    H126825   4.077   5.860   0.251  0.7971 -1.1004  0.2465
 1778TIP3    H226826   3.986   5.951   0.173 -0.8632 -2.5561  0.4286
 1779TIP3   OH226827   0.348   0.279  16.004 -0.0728 -0.4021 -0.0161
 1779TIP3    H126828   0.395   0.203  16.038 -2.3735 -1.5900  0.7390
 1779TIP3    H226829   0.355   0.345  16.074  1.5659 -0.0085 -0.4961
 1780TIP3   OH226830   2.181   1.908   3.429 -0.0359  0.1315  0.8355
 1780TIP3    H126831   2.272   1.926   3.450  0.6363  0.1693 -1.7351
 1780TIP3    H226832   2.171   1.940   3.339 -2.8442  0.9294  1.3504
 1781TIP3   OH226833   1.446   6.165  15.253  0.4608  0.0869 -0.4694
 1781TIP3    H126834   1.487   6.245  15.285  0.6089 -0.3954  0.5761
 1781TIP3    H226835   1.500   6.094  15.287 -0.7745 -0.5346  0.2751
 1782TIP3   OH226836   3.367   0.501   2.351 -0.0952  0.0420  0.2948
 1782TIP3    H126837   3.348   0.594   2.334  0.5388  0.1249  0.0054
 1782TIP3    H226838   3.398   0.468   2.267  0.7919 -0.1436  0.6841
 1783TIP3   OH226839   4.826   0.297  15.828  0.8693 -0.0457 -0.3831
 1783TIP3    H126840   4.919   0.279  15.829  0.4793 -2.4111 -1.2584
 1783TIP3    H226841   4.816   0.366  15.763  2.1465  1.6241  1.0801
 1784TIP3   OH226842   0.354   0.588   3.164 -0.2202  0.3865 -0.3085
 1784TIP3    H126843   0.274   0.584   3.111 -0.2949  1.1086 -0.2529
 1784TIP3    H226844   0.335   0.532   3.240 -0.0270 -0.8425 -1.1365
 1785TIP3   OH226845   6.086   6.324   3.701  0.2885  0.0898  0.4093
 1785TIP3    H126846   6.061   6.373   3.624 -1.0085 -0.7389  0.2665
 1785TIP3    H226847   6.105   6.236   3.669  1.2508  0.1203  0.8398
 1786TIP3   OH226848   0.471   3.933  15.871  0.1118  0.5730 -0.1900
 1786TIP3    H126849   0.476   3.917  15.965  1.2687  2.9650  0.2288
 1786TIP3    H226850   0.381   3.962  15.856  0.4874  2.2936  0.6253
 1787TIP3   OH226851   0.349   2.901   4.210  0.5099  0.4630  0.2728
 1787TIP3    H126852   0.299   2.959   4.266 -0.5818 -0.8962  0.7774
 1787TIP3    H226853   0.411   2.857   4.268  0.4353  0.1829  0.1472
 1788TIP3   OH226854   3.253   2.524  13.138 -0.2186  0.7120  0.0803
 1788TIP3    H126855   3.207   2.570  13.208 -1.2674 -1.7324  1.0792
 1788TIP3    H226856   3.314   2.590  13.103 -2.2888  3.1440  0.7261
 1789TIP3   OH226857   5.329   0.391  12.796  0.4001 -0.1154 -0.2328
 1789TIP3    H126858   5.299   0.344  12.875  0.5515 -0.1733 -0.2097
 1789TIP3    H226859   5.282   0.475  12.799 -1.0519 -0.8599 -1.0814
 1790TIP3   OH226860   0.554   3.385   0.884 -0.1345  1.0185  0.0926
 1790TIP3    H126861   0.466   3.393   0.849 -0.3617  4.0667  1.0290
 1790TIP3    H226862   0.610   3.429   0.819  0.4753  0.5325  0.2744
 1791TIP3   OH226863   6.460   5.721   0.426  0.4489  0.1841  0.4247
 1791TIP3    H126864   6.468   5.679   0.341 -0.6407 -0.5019  0.6279
 1791TIP3    H226865   6.534   5.687   0.477 -0.3202 -1.4362  0.5355
 1792TIP3   OH226866   0.920   1.634   3.777 -0.0426  0.1113  0.3529
 1792TIP3    H126867   0.895   1.679   3.858  2.4362 -0.9023  1.7890
 1792TIP3    H226868   0.955   1.550   3.806 -2.6687 -2.0244 -2.1058
 1793TIP3   OH226869   3.217   6.083  12.102  0.3953  0.1573  0.0982
 1793TIP3    H126870   3.227   6.158  12.043  2.3216 -0.2397 -0.1608
 1793TIP3    H226871   3.284   6.021  12.073 -0.5656 -1.2984  0.8764
 1794TIP3   OH226872   4.683   3.223  12.953 -0.0538 -0.4437 -0.4047
 1794TIP3    H126873   4.637   3.296  12.911 -0.7536 -1.7402 -2.0075
 1794TIP3    H226874   4.775   3.250  12.955 -0.0312 -0.1654 -2.5398
 1795TIP3   OH226875   3.694   5.034   3.296 -0.0340 -0.4665 -0.3077
 1795TIP3    H126876   3.756   5.037   3.370  0.8792  0.1213 -1.0671
 1795TIP3    H226877   3.697   4.943   3.267  0.3796 -0.4782 -0.2467
 1796TIP3   OH226878   2.865   3.597   5.330 -0.8916 -0.2721 -0.8630
 1796TIP3    H126879   2.789   3.563   5.377  0.1999 -1.0001  0.4349
 1796TIP3    H226880   2.925   3.523   5.325  1.9953  1.4352  2.9195
 1797TIP3   OH226881   3.577   1.323  14.718  0.3051 -0.0907 -0.2382
 1797TIP3    H126882   3.517   1.397  14.724  0.8149  0.4104 -1.2010
 1797TIP3    H226883   3.520   1.246  14.726 -0.4991  0.3741 -1.1812
 1798TIP3   OH226884   0.086   2.122   0.527 -0.4930 -0.1763 -0.1930
 1798TIP3    H126885   0.047   2.177   0.595  1.9484 -0.3431  1.4989
 1798TIP3    H226886   0.101   2.182   0.454 -1.9000  0.3406 -0.0915
 1799TIP3   OH226887   1.007   4.462   3.527 -0.3270  0.0402  0.5360
 1799TIP3    H126888   1.016   4.397   3.597  0.1531  0.3379  0.7568
 1799TIP3    H226889   1.095   4.498   3.516 -0.7132  1.1218  0.8658
 1800TIP3   OH226890   1.847   4.114  13.164 -0.1291 -0.2148 -0.1669
 1800TIP3    H126891   1.756   4.102  13.137  0.1066 -0.9912 -0.6177
 1800TIP3    H226892   1.859   4.209  13.164 -0.9119 -0.1107 -0.1877
 1801TIP3   OH226893   4.398   3.035   0.576 -0.4648 -0.3989  0.1960
 1801TIP3    H126894   4.366   3.106   0.631 -0.2763 -0.2606  0.1262
 1801TIP3    H226895   4.484   3.065   0.545  0.4225 -1.3688  1.5767
 1802TIP3   OH226896   2.010   2.602   3.130 -0.5252 -0.0024  0.0075
 1802TIP3    H126897   2.067   2.665   3.175 -0.2081 -0.2325 -0.0717
 1802TIP3    H226898   1.924   2.645   3.128 -1.1225 -0.8578  2.7763
 1803TIP3   OH226899   1.740   3.279   6.510  0.1112 -0.3681 -0.5261
 1803TIP3    H126900   1.829   3.280   6.545 -0.2275  1.9874  0.4570
 1803TIP3    H226901   1.685   3.251   6.584 -0.2196  1.0206 -0.2098
 1804TIP3   OH226902   3.440   0.129   0.043 -0.1042 -0.6078 -0.4364
 1804TIP3    H126903   3.401   0.049   0.009  0.4372 -0.7306 -0.7987
 1804TIP3    H226904   3.473   0.105   0.130 -0.9270 -0.4707 -0.0851
 1805TIP3   OH226905   2.313   4.438  14.295  0.0916  0.5329 -0.3324
 1805TIP3    H126906   2.277   4.526  14.295 -1.2455  0.0151  0.2686
 1805TIP3    H226907   2.327   4.417  14.387  0.9127  0.3057 -0.4982
 1806TIP3   OH226908   2.749   2.372   1.792 -0.4669 -0.2912 -0.1406
 1806TIP3    H126909   2.725   2.463   1.775 -0.8459 -0.4239 -0.3177
 1806TIP3    H226910   2.757   2.367   1.887  1.8356  0.5062 -0.2148
 1807TIP3   OH226911   5.063   0.737  16.910  0.4100  0.2634  0.1720
 1807TIP3    H126912   5.003   0.689  16.854 -0.4428  1.4396  0.0393
 1807TIP3    H226913   5.078   0.820  16.864  1.5886  0.2852  0.5433
 1808TIP3   OH226914   5.629   0.596  10.779  0.5418  0.1956 -0.0831
 1808TIP3    H126915   5.588   0.659  10.720 -0.5911 -1.9323 -1.6797
 1808TIP3    H226916   5.711   0.573  10.736 -1.1279 -2.7721 -1.9874
 1809TIP3   OH226917   6.322   6.636   1.452  0.2564  0.4285 -0.0211
 1809TIP3    H126918   6.332   6.579   1.528 -0.6681 -0.5419 -0.6005
 1809TIP3    H226919   6.405   6.682   1.445  0.6016  0.0120  1.1533
 1810TIP3   OH226920   5.273   6.348  15.161 -0.8469  0.1383 -0.3403
 1810TIP3    H126921   5.190   6.366  15.118 -0.2535  0.3897 -1.4009
 1810TIP3    H226922   5.269   6.255  15.184 -2.3716  0.6347  1.7732
 1811TIP3   OH226923   3.179   1.455   3.468 -0.1992  0.2786  0.0052
 1811TIP3    H126924   3.219   1.443   3.382  0.0583  0.8246  0.0437
 1811TIP3    H226925   3.102   1.510   3.451 -0.0174  0.5818  0.1506
 1812TIP3   OH226926   2.943   5.265   2.424  0.8699  0.0315 -0.5217
 1812TIP3    H126927   3.001   5.254   2.500 -2.0839 -2.0481  1.6492
 1812TIP3    H226928   2.906   5.352   2.435  1.8302  0.4595 -0.6181
 1813TIP3   OH226929   2.819   2.209  11.008 -0.7184  0.3822 -0.1260
 1813TIP3    H126930   2.857   2.185  11.093  0.3906  1.9535 -0.1319
 1813TIP3    H226931   2.741   2.154  11.000  0.0846 -0.9986  1.1415
 1814TIP3   OH226932   4.274   3.704   6.499  0.2493 -0.2110 -0.0254
 1814TIP3    H126933   4.180   3.685   6.495 -0.2080  1.6163  0.8022
 1814TIP3    H226934   4.286   3.778   6.439  0.5064  1.6390  2.1667
 1815TIP3   OH226935   4.686   1.727   1.880 -0.2963 -1.1651  0.8798
 1815TIP3    H126936   4.781   1.732   1.888  0.0244  0.8040 -2.3253
 1815TIP3    H226937   4.668   1.634   1.870  1.2082 -1.6014  1.8598
 1816TIP3   OH226938   6.390   3.047   6.436  0.4719 -0.1515 -0.4548
 1816TIP3    H126939   6.435   3.060   6.519  1.7066  0.8973 -1.2338
 1816TIP3    H226940   6.298   3.062   6.455  0.5275 -1.4234  1.0014
 1817TIP3   OH226941   3.853   3.559  14.297  0.1668  0.7913  0.2520
 1817TIP3    H126942   3.835   3.465  14.288 -1.3432  1.1128 -0.4257
 1817TIP3    H226943   3.790   3.601  14.238 -0.0295  2.2951  1.4781
 1818TIP3   OH226944   3.178   2.822   0.331 -0.3482 -0.4333 -0.0727
 1818TIP3    H126945   3.200   2.732   0.355  1.3434 -0.3234 -1.0830
 1818TIP3    H226946   3.195   2.873   0.410 -1.0857 -0.9411  0.4308
 1819TIP3   OH226947   0.172   3.681   0.255  0.4859 -0.6476  0.5118
 1819TIP3    H126948   0.104   3.733   0.297  0.8931 -0.6391  1.1861
 1819TIP3    H226949   0.135   3.654   0.171  0.8627  2.1387 -0.6522
 1820TIP3   OH226950   3.613   5.669  11.238  0.1363 -0.0343  0.4726
 1820TIP3    H126951   3.698   5.649  11.199  0.4605 -0.3198  1.2897
 1820TIP3    H226952   3.607   5.764  11.236 -0.6383 -0.0762 -1.8458
 1821TIP3   OH226953   0.619   2.863  13.328  0.3026 -0.2045 -0.3352
 1821TIP3    H126954   0.702   2.909  13.340 -0.4590  0.9352  0.9097
 1821TIP3    H226955   0.571   2.915  13.264 -0.2787  0.3724  0.5442
 1822TIP3   OH226956   5.695   2.984   5.513  0.1812  0.1714 -0.1983
 1822TIP3    H126957   5.664   2.898   5.540  0.3592  0.4979  1.1564
 1822TIP3    H226958   5.766   3.004   5.574 -2.3611  2.9116  2.2501
 1823TIP3   OH226959   2.714   2.101   1.759  0.6705  0.4440  0.0659
 1823TIP3    H126960   2.708   2.064   1.847  1.6355  0.9601  0.3591
 1823TIP3    H226961   2.703   2.195   1.772 -0.6294  0.4020 -0.5446
 1824TIP3   OH226962   6.661   4.692   3.063 -0.1560 -0.2026 -0.2170
 1824TIP3    H126963   6.617   4.613   3.096  1.5876 -0.7108  1.0656
 1824TIP3    H226964   6.740   4.658   3.019 -0.0159  0.7737 -0.7423
 1825TIP3   OH226965   5.899   1.988   5.103  0.3158  0.0150 -0.3714
 1825TIP3    H126966   5.960   1.991   5.177 -1.0646  1.0031  0.7835
 1825TIP3    H226967   5.927   2.060   5.047  0.7979 -0.1396 -0.3353
 1826TIP3   OH226968   2.400   4.477  17.019  0.8372  0.0966  0.8641
 1826TIP3    H126969   2.308   4.489  17.040  0.2030  1.0161 -2.0334
 1826TIP3    H226970   2.446   4.542  17.072 -0.3172  0.6301  1.2420
 1827TIP3   OH226971   0.382   1.264   5.803 -0.0023 -0.8447  0.1238
 1827TIP3    H126972   0.286   1.261   5.804 -0.0462  0.1765  0.8437
 1827TIP3    H226973   0.409   1.173   5.786 -1.0954 -1.0447 -0.6028
 1828TIP3   OH226974   2.972   4.471  15.323  0.3499 -0.1386 -0.4615
 1828TIP3    H126975   3.051   4.419  15.305  0.5096  0.1920 -0.7309
 1828TIP3    H226976   2.998   4.529  15.394  0.4839  0.2689 -0.8409
 1829TIP3   OH226977   6.170   1.751   4.609 -0.4206  0.6746 -0.7654
 1829TIP3    H126978   6.103   1.683   4.608 -0.0659  0.3256 -0.7300
 1829TIP3    H226979   6.168   1.785   4.698  0.8334 -0.7147 -0.1727
 1830TIP3   OH226980   5.153   5.780  14.571  0.2350  0.0437 -0.3730
 1830TIP3    H126981   5.234   5.768  14.621 -0.4116 -1.9271  0.3076
 1830TIP3    H226982   5.095   5.827  14.631  0.1340 -0.5423 -0.0046
 1831TIP3   OH226983   2.295   4.173   0.806  0.2692 -0.4405  0.1546
 1831TIP3    H126984   2.309   4.081   0.784 -3.3505 -0.4630 -3.1316
 1831TIP3    H226985   2.330   4.221   0.731 -1.3818  0.5245 -0.0344
 1832TIP3   OH226986   0.087   1.054   4.529 -0.0246 -0.2254  0.5468
 1832TIP3    H126987   0.130   1.061   4.614 -1.0592 -1.8695  1.2506
 1832TIP3    H226988   0.026   1.127   4.527  0.5848  0.3010  0.8531
 1833TIP3   OH226989   5.927   1.574   2.037 -0.1484  1.0061  0.0112
 1833TIP3    H126990   5.867   1.511   1.998  0.1351  0.7138  0.0364
 1833TIP3    H226991   5.970   1.616   1.962 -0.7828  1.6175 -0.0190
 1834TIP3   OH226992   6.113   6.045   5.274 -0.2769  0.0268 -0.3247
 1834TIP3    H126993   6.163   5.966   5.256 -0.1814 -0.0399  0.2276
 1834TIP3    H226994   6.092   6.080   5.187 -1.5057 -1.3320 -0.6177
 1835TIP3   OH226995   0.710   5.220   1.984  0.2607 -0.0464 -0.0660
 1835TIP3    H126996   0.771   5.191   1.916  0.6817  2.6437 -0.9548
 1835TIP3    H226997   0.750   5.192   2.066  0.0690 -2.7820 -0.7977
 1836TIP3   OH226998   4.335   2.644   3.068  0.6494  0.3536 -0.4236
 1836TIP3    H126999   4.243   2.671   3.075  1.4322  3.0362  1.4148
 1836TIP3    H227000   4.370   2.699   2.997  0.9126 -0.4167 -0.8934
 1837TIP3   OH227001   5.817   0.915   2.323 -0.3166 -0.2859  0.1913
 1837TIP3    H127002   5.751   0.856   2.286 -0.0460 -0.3026 -0.2763
 1837TIP3    H227003   5.788   1.003   2.296 -0.2418 -0.2788  0.1341
 1838TIP3   OH227004   4.144   3.918   5.746  0.5939  0.1317  0.0161
 1838TIP3    H127005   4.186   3.970   5.678 -1.3601  2.0916  0.2234
 1838TIP3    H227006   4.195   3.937   5.825  0.5135  0.9379 -0.1186
 1839TIP3   OH227007   6.601   5.663  12.212  1.1478 -0.2633 -0.2803
 1839TIP3    H127008   6.635   5.575  12.195 -0.9433 -0.9859 -1.0277
 1839TIP3    H227009   6.606   5.673  12.307  0.8128 -1.4547 -0.1235
 1840TIP3   OH227010   4.507   4.121   3.279 -0.4994  0.1082 -0.1893
 1840TIP3    H127011   4.565   4.138   3.204 -0.3573 -1.6425 -0.5147
 1840TIP3    H227012   4.566   4.091   3.349 -0.9736 -2.1879 -0.6784
 1841TIP3   OH227013   1.846   3.368  15.658  0.0781 -0.0225  0.6364
 1841TIP3    H127014   1.835   3.428  15.732  2.2221  2.1350 -0.6411
 1841TIP3    H227015   1.828   3.421  15.581  1.9101 -1.0117 -0.5509
 1842TIP3   OH227016   0.473   6.668   3.159 -0.3604  0.1798  0.1315
 1842TIP3    H127017   0.555   6.620   3.171 -0.3213 -0.2379 -1.5629
 1842TIP3    H227018   0.477   6.739   3.224  1.0222 -0.2318  0.5267
 1843TIP3   OH227019   1.976   2.206   1.622 -0.4465 -0.0038  0.3061
 1843TIP3    H127020   1.992   2.178   1.532 -0.5544  0.4375  0.1459
 1843TIP3    H227021   2.034   2.152   1.675 -0.9720 -0.8376  0.0487
 1844TIP3   OH227022   1.166   1.940  13.160  0.1252 -0.0376  0.5836
 1844TIP3    H127023   1.074   1.953  13.137 -0.6234 -1.0386  2.7896
 1844TIP3    H227024   1.167   1.861  13.214  2.2899 -0.0474  0.6235
 1845TIP3   OH227025   3.139   0.985  15.826  0.1334 -0.0313  0.0710
 1845TIP3    H127026   3.089   0.903  15.834 -0.9113  0.5254 -0.5177
 1845TIP3    H227027   3.153   0.996  15.732  1.9400 -0.4810  0.2520
 1846TIP3   OH227028   2.507   3.220   1.864  0.8042 -0.2492  0.5692
 1846TIP3    H127029   2.549   3.294   1.908  2.2547 -0.4590 -0.4010
 1846TIP3    H227030   2.444   3.187   1.929  0.0164  1.8721  0.9810
 1847TIP3   OH227031   5.284   2.304   4.370 -0.0208  0.9018 -0.2571
 1847TIP3    H127032   5.353   2.313   4.436  1.2532  0.6192 -1.5062
 1847TIP3    H227033   5.300   2.375   4.308 -2.1068  2.0970  0.4498
 1848TIP3   OH227034   1.334   1.299  16.117  0.0565 -0.5009  0.2008
 1848TIP3    H127035   1.363   1.372  16.172  1.4357 -0.9173  0.0597
 1848TIP3    H227036   1.301   1.342  16.038  0.2060  0.0042  0.4043
 1849TIP3   OH227037   6.509   6.461  16.745 -0.0610  0.2134  0.1611
 1849TIP3    H127038   6.422   6.484  16.777 -0.3926  1.5540 -1.5288
 1849TIP3    H227039   6.557   6.431  16.822 -1.8333  0.0076  1.2199
 1850TIP3   OH227040   0.532   5.749   0.565  0.0580 -0.1735 -0.1679
 1850TIP3    H127041   0.602   5.811   0.585 -0.5713  0.4981 -0.0008
 1850TIP3    H227042   0.451   5.801   0.571 -0.4831 -1.0103  0.0000
 1851TIP3   OH227043   3.675   1.083   4.985 -0.0247  0.1233  0.5927
 1851TIP3    H127044   3.626   1.158   5.018 -0.9223 -0.1709 -0.0252
 1851TIP3    H227045   3.736   1.061   5.055  0.9758  2.0558  0.3833
 1852TIP3   OH227046   5.313   2.495   2.357 -0.4045 -0.1693  0.6764
 1852TIP3    H127047   5.265   2.445   2.290 -0.3599 -0.8081  1.1126
 1852TIP3    H227048   5.405   2.478   2.336 -0.3816 -1.7359  1.8742
 1853TIP3   OH227049   5.810   4.578   5.921  0.1420  0.0478 -0.5485
 1853TIP3    H127050   5.786   4.630   5.998 -0.1349  0.0911 -0.6623
 1853TIP3    H227051   5.886   4.624   5.885  0.9487 -0.5746  0.3013
 1854TIP3   OH227052   3.998   3.414   3.117  0.4313  0.2000  0.5386
 1854TIP3    H127053   4.052   3.492   3.100  1.2903 -0.4360  0.2719
 1854TIP3    H227054   4.040   3.372   3.192  0.3140 -0.3115  0.3224
 1855TIP3   OH227055   5.881   4.164   4.986  0.2201 -0.0890 -0.4852
 1855TIP3    H127056   5.787   4.149   4.976  0.4330 -2.4085  0.4016
 1855TIP3    H227057   5.921   4.104   4.924  1.1578  0.6149 -0.5887
 1856TIP3   OH227058   4.481   0.930   2.718  0.9534 -0.1412  0.3582
 1856TIP3    H127059   4.486   0.961   2.628 -2.0062  2.7437  0.9670
 1856TIP3    H227060   4.540   0.988   2.766 -0.8267  1.4076  0.7970
 1857TIP3   OH227061   6.558   3.728   3.431 -0.2926  0.2611  0.1543
 1857TIP3    H127062   6.473   3.763   3.458 -0.9834 -0.7288 -0.6891
 1857TIP3    H227063   6.614   3.806   3.424 -1.0972  0.9208  0.7901
 1858TIP3   OH227064   1.716   0.962  16.115 -0.6011 -0.4113 -0.2934
 1858TIP3    H127065   1.744   0.892  16.175  1.2140 -0.3115 -0.9445
 1858TIP3    H227066   1.633   0.993  16.151 -1.4204 -2.8354  0.0415
 1859TIP3   OH227067   3.129   4.871   2.805  0.6637 -0.4009  0.2276
 1859TIP3    H127068   3.101   4.786   2.771 -0.4222 -0.6229  1.5983
 1859TIP3    H227069   3.117   4.865   2.900  1.2328  1.0491  0.4270
 1860TIP3   OH227070   4.292   5.804   1.179 -0.0497 -0.5936 -0.7414
 1860TIP3    H127071   4.297   5.872   1.112  0.3957 -1.0606 -1.1871
 1860TIP3    H227072   4.220   5.747   1.150  0.1494 -0.8002 -0.8278
 1861TIP3   OH227073   4.034   6.037   2.768 -0.4837 -0.5848 -0.0733
 1861TIP3    H127074   4.099   6.103   2.744 -1.8696  0.0700 -2.3496
 1861TIP3    H227075   3.972   6.084   2.824 -0.1910 -0.6126  0.2766
 1862TIP3   OH227076   3.134   5.261  16.597  0.0560  0.0608 -0.0469
 1862TIP3    H127077   3.090   5.304  16.524 -0.3127 -0.6868 -0.2799
 1862TIP3    H227078   3.224   5.250  16.567  0.3319  1.2445  0.2796
 1863TIP3   OH227079   5.475   5.531  12.179  0.5685  0.3994  0.7328
 1863TIP3    H127080   5.561   5.545  12.140  0.2536  0.9954  0.2314
 1863TIP3    H227081   5.429   5.475  12.116  1.2702 -1.6898  1.9676
 1864TIP3   OH227082   2.070   3.181   4.519 -0.1487 -0.3188  0.0379
 1864TIP3    H127083   2.145   3.169   4.461 -1.0584  0.8251 -1.4581
 1864TIP3    H227084   2.097   3.251   4.578 -0.5856  1.2842 -1.5842
 1865TIP3   OH227085   3.784   6.527   0.194 -0.4989  0.0525 -0.4854
 1865TIP3    H127086   3.849   6.596   0.186 -2.0544  1.4732 -1.7422
 1865TIP3    H227087   3.739   6.545   0.277 -0.6629  0.3564 -0.6369
 1866TIP3   OH227088   1.777   6.182  17.204  0.3855 -0.1025 -0.0876
 1866TIP3    H127089   1.758   6.243  17.275 -1.8410 -0.4994 -0.2429
 1866TIP3    H227090   1.820   6.108  17.246  2.4227  1.1997  0.2149
 1867TIP3   OH227091   2.735   6.123  17.281  0.5586 -0.1947 -0.3021
 1867TIP3    H127092   2.704   6.101  17.193 -0.2361 -1.4843  0.2675
 1867TIP3    H227093   2.660   6.163  17.324  0.7803 -0.0691 -0.0247
 1868TIP3   OH227094   1.626   1.742   5.191 -0.4994 -0.0661  0.4156
 1868TIP3    H127095   1.579   1.664   5.163  1.2820 -0.6505 -1.1674
 1868TIP3    H227096   1.678   1.767   5.115 -1.0041  2.7006  0.8657
 1869TIP3   OH227097   1.189   0.524  12.989  0.5686 -0.0580 -0.1506
 1869TIP3    H127098   1.152   0.599  13.037  0.6453  0.1611 -0.4325
 1869TIP3    H227099   1.176   0.450  13.048  0.2198  0.1230  0.0052
 1870TIP3   OH227100   0.157   2.542   6.230 -0.0088  0.6028 -0.2733
 1870TIP3    H127101   0.224   2.506   6.172  1.7928  2.6971  0.3783
 1870TIP3    H227102   0.137   2.629   6.195 -0.3927  1.0910  1.0598
 1871TIP3   OH227103   2.327   0.262   1.066 -0.2250 -0.1544 -0.4113
 1871TIP3    H127104   2.362   0.248   0.978 -2.9206  0.6237 -1.7236
 1871TIP3    H227105   2.312   0.173   1.100  3.3651 -0.5386  0.4897
 1872TIP3   OH227106   4.543   6.124  16.578 -0.1241 -0.6248 -0.0182
 1872TIP3    H127107   4.448   6.111  16.580 -0.1992 -0.2693 -0.9590
 1872TIP3    H227108   4.576   6.068  16.648 -1.1565  0.4311  1.3723
 1873TIP3   OH227109   3.178   4.775  13.162  0.0810  0.0704 -0.5747
 1873TIP3    H127110   3.180   4.681  13.180 -1.3025 -0.0263 -0.7853
 1873TIP3    H227111   3.251   4.811  13.212 -1.0247 -0.7475  1.7849
 1874TIP3   OH227112   4.406   4.314  13.345  0.1637 -0.4183  0.1684
 1874TIP3    H127113   4.501   4.321  13.334 -0.0099 -0.0050 -1.3354
 1874TIP3    H227114   4.380   4.397  13.385  0.7664 -1.7742  3.7317
 1875TIP3   OH227115   5.826   4.126   1.173  0.0508 -0.1524  0.4845
 1875TIP3    H127116   5.845   4.220   1.169  1.3222 -0.4113 -0.0305
 1875TIP3    H227117   5.748   4.115   1.120  1.0203  0.3576 -1.1121
 1876TIP3   OH227118   6.484   3.494   3.574 -0.0737  0.0792  0.2370
 1876TIP3    H127119   6.492   3.535   3.660 -0.9486  0.1710  0.2805
 1876TIP3    H227120   6.519   3.560   3.513  2.1946 -0.6459  0.6378
 1877TIP3   OH227121   3.827   6.580   6.484 -0.4290 -0.0234 -0.4846
 1877TIP3    H127122   3.820   6.485   6.490  0.3519 -0.0241  1.0245
 1877TIP3    H227123   3.744   6.609   6.445 -1.3691 -1.1953  0.5782
 1878TIP3   OH227124   4.512   2.968   0.904 -0.0904 -0.5183  0.0744
 1878TIP3    H127125   4.563   3.028   0.959  0.2218  0.0876 -0.8574
 1878TIP3    H227126   4.578   2.926   0.848 -0.7611  2.2307 -3.0611
 1879TIP3   OH227127   5.701   5.164  15.753  0.0051  0.2905  0.1642
 1879TIP3    H127128   5.743   5.149  15.668  2.8414  0.9078  1.3182
 1879TIP3    H227129   5.704   5.078  15.796  3.1243  0.8511  1.3734
 1880TIP3   OH227130   1.818   5.927  13.481  0.2047 -0.5711 -0.6266
 1880TIP3    H127131   1.884   5.968  13.426  0.8788 -0.5157  0.2145
 1880TIP3    H227132   1.762   5.879  13.419  0.5598  0.0149 -1.4154
 1881TIP3   OH227133   2.815   0.066  11.315  0.0397  0.5183  0.3966
 1881TIP3    H127134   2.843   0.130  11.381  0.9244  3.1964 -2.3493
 1881TIP3    H227135   2.727   0.093  11.290  0.5779  0.9917 -1.0885
 1882TIP3   OH227136   1.380   1.473  15.132  0.0677  0.3930 -0.1258
 1882TIP3    H127137   1.430   1.413  15.076  1.6360  2.1028 -0.6355
 1882TIP3    H227138   1.308   1.503  15.076  0.7280  0.8924 -0.7273
 1883TIP3   OH227139   4.500   5.632   3.396  0.0567  0.2726 -0.3172
 1883TIP3    H127140   4.474   5.623   3.488  2.2130 -0.5347  0.2938
 1883TIP3    H227141   4.555   5.555   3.380  1.5787  1.5495 -1.5816
 1884TIP3   OH227142   0.557   1.031   1.956  0.2843  0.2091 -0.4551
 1884TIP3    H127143   0.637   0.983   1.936  0.4809  0.8981 -1.4418
 1884TIP3    H227144   0.584   1.123   1.958 -0.5198  0.4792 -1.1152
 1885TIP3   OH227145   2.744   4.184   2.693 -0.5270  0.5575  0.0751
 1885TIP3    H127146   2.825   4.235   2.694 -0.7040  0.8529 -0.3862
 1885TIP3    H227147   2.773   4.093   2.696 -0.2328  0.6648  2.1005
 1886TIP3   OH227148   2.930   6.772   6.304  0.2632  0.0849  0.7361
 1886TIP3    H127149   2.900   6.856   6.269 -1.0025  0.1758  1.9358
 1886TIP3    H227150   3.017   6.760   6.268  0.5843  2.0617  0.7561
 1887TIP3   OH227151   1.215   0.431  16.723  0.0339  0.0692  0.7637
 1887TIP3    H127152   1.259   0.440  16.807  3.8430 -2.2827 -0.6838
 1887TIP3    H227153   1.156   0.356  16.733 -0.8559  0.8821  1.7400
 1888TIP3   OH227154   0.348   6.578   0.952  0.4147  0.0294  0.7588
 1888TIP3    H127155   0.366   6.503   0.895  0.8506 -0.7044  1.8044
 1888TIP3    H227156   0.255   6.595   0.942  0.4220 -0.3058  0.0947
 1889TIP3   OH227157   2.567   2.965  16.121  0.8024 -0.3241 -0.8623
 1889TIP3    H127158   2.499   2.930  16.179 -0.3398 -0.3154 -2.1617
 1889TIP3    H227159   2.637   2.899  16.124  0.7294 -0.3770  0.4150
 1890TIP3   OH227160   4.769   2.683   1.205  0.3849  0.1317 -0.1046
 1890TIP3    H127161   4.805   2.627   1.273 -0.2162  0.9695  0.9330
 1890TIP3    H227162   4.846   2.717   1.158  0.9479  1.1578  1.4836
 1891TIP3   OH227163   1.440   2.508  14.669 -0.2166 -0.2119  0.4303
 1891TIP3    H127164   1.404   2.564  14.738  1.6464  0.7189  0.7184
 1891TIP3    H227165   1.365   2.486  14.614 -1.3521  0.9071  1.4739
 1892TIP3   OH227166   2.972   6.090   0.367  0.4510  0.3355 -0.0712
 1892TIP3    H127167   3.055   6.059   0.404 -0.3215 -1.6229  0.0933
 1892TIP3    H227168   2.998   6.156   0.303  2.2982 -1.5006 -1.3446
 1893TIP3   OH227169   4.017   0.351   2.273  0.5083 -0.0149  0.1901
 1893TIP3    H127170   4.071   0.290   2.223  0.4816 -0.2079  0.4000
 1893TIP3    H227171   4.075   0.385   2.341  0.7766  0.8362 -0.4384
 1894TIP3   OH227172   0.069   1.668  11.919  0.3226  0.0755  0.4307
 1894TIP3    H127173   0.023   1.590  11.947 -0.3495  0.6825  1.0748
 1894TIP3    H227174   0.118   1.697  11.997  2.1713 -0.7893 -0.3447
 1895TIP3   OH227175   5.351   3.035   2.053 -0.4448  0.1463 -0.1807
 1895TIP3    H127176   5.297   2.957   2.064 -0.3595 -0.1896 -1.8965
 1895TIP3    H227177   5.304   3.103   2.100 -0.7198 -0.8318  1.0220
 1896TIP3   OH227178   2.145   4.477  13.378 -0.5367 -0.3070  0.1620
 1896TIP3    H127179   2.170   4.385  13.389 -0.6451 -0.4442 -0.6616
 1896TIP3    H227180   2.098   4.479  13.294 -0.8230  0.4409  0.3321
 1897TIP3   OH227181   6.254   1.191   4.857  0.1593  0.4381  0.3511
 1897TIP3    H127182   6.315   1.248   4.904  2.4762 -2.6727  1.4185
 1897TIP3    H227183   6.174   1.191   4.911  0.9248  0.9287  1.5241
 1898TIP3   OH227184   3.535   5.758   5.955  0.1557  0.2844 -0.2353
 1898TIP3    H127185   3.503   5.821   6.019 -1.3342 -0.4687 -0.1953
 1898TIP3    H227186   3.529   5.674   5.999 -1.6355 -0.3441 -1.5564
 1899TIP3   OH227187   4.330   2.095  17.022  0.2608  0.4007 -0.3447
 1899TIP3    H127188   4.314   2.176  17.072 -0.9737 -0.0860  0.0839
 1899TIP3    H227189   4.262   2.035  17.052  2.8684 -1.8459  1.5152
 1900TIP3   OH227190   4.370   4.213  14.913  0.4174  0.2498 -0.3174
 1900TIP3    H127191   4.390   4.301  14.943 -1.0687  0.7027 -0.5508
 1900TIP3    H227192   4.277   4.201  14.934  0.4771 -1.0946 -0.6992
 1901TIP3   OH227193   5.561   6.591   0.660  0.0427 -0.1219  0.1881
 1901TIP3    H127194   5.529   6.616   0.574  1.8672 -0.4849 -0.6310
 1901TIP3    H227195   5.514   6.510   0.680 -0.7991  0.2544 -0.1917
 1902TIP3   OH227196   3.924   4.732  15.039 -0.3286 -0.3869  0.4835
 1902TIP3    H127197   3.917   4.805  14.977  2.0757  0.3115  0.9209
 1902TIP3    H227198   3.914   4.772  15.125  3.3003  0.0145  0.8899
 1903TIP3   OH227199   0.348   2.164   6.580  0.4868 -0.6706 -0.1752
 1903TIP3    H127200   0.306   2.248   6.560  0.9188 -0.5075 -0.4087
 1903TIP3    H227201   0.329   2.150   6.673 -0.6774 -0.9464 -0.4420
 1904TIP3   OH227202   6.076   4.267   4.448 -0.0503  0.0381 -0.2980
 1904TIP3    H127203   6.165   4.257   4.483  1.0340 -3.4771 -3.3464
 1904TIP3    H227204   6.084   4.336   4.382  0.5411 -0.3976 -0.7013
 1905TIP3   OH227205   3.930   2.731  14.396 -0.0415  0.5775 -0.8758
 1905TIP3    H127206   4.011   2.725  14.347  1.9684  1.8373  1.9873
 1905TIP3    H227207   3.870   2.780  14.339  1.9254  1.4720 -2.2822
 1906TIP3   OH227208   1.177   6.003  16.093 -0.1582  0.1977 -0.1592
 1906TIP3    H127209   1.137   5.987  16.008 -1.5491  1.3043  0.2490
 1906TIP3    H227210   1.270   6.015  16.074 -0.3048 -0.4726 -1.3847
 1907TIP3   OH227211   4.250   1.564  14.355  0.2450 -0.1295 -0.1764
 1907TIP3    H127212   4.282   1.578  14.266  0.1712 -0.3825 -0.2449
 1907TIP3    H227213   4.214   1.648  14.381 -0.2531 -0.2027 -0.6021
 1908TIP3   OH227214   6.735   3.059  13.459  0.1384 -0.1782  0.2228
 1908TIP3    H127215   6.706   3.141  13.500  0.0195 -0.4340  0.6598
 1908TIP3    H227216   6.796   3.087  13.391  0.9332  0.2297  1.0752
 1909TIP3   OH227217   1.848   0.779   1.022  0.4925 -0.0474  0.1339
 1909TIP3    H127218   1.784   0.708   1.017  1.1263 -0.6833  0.7763
 1909TIP3    H227219   1.932   0.735   1.036  1.0002  0.7971 -0.1728
 1910TIP3   OH227220   0.868   1.824  16.099 -0.8292 -0.0862  0.3896
 1910TIP3    H127221   0.820   1.742  16.088 -1.5374  0.4146 -0.4688
 1910TIP3    H227222   0.943   1.816  16.040  1.0940 -1.4936  2.8465
 1911TIP3   OH227223   3.693   4.535  13.680 -0.1253 -0.7794  0.1570
 1911TIP3    H127224   3.621   4.476  13.699  0.2961 -1.3558 -0.0078
 1911TIP3    H227225   3.739   4.495  13.606 -0.2443  0.1163 -0.4278
 1912TIP3   OH227226   4.036   4.785  16.892 -1.1724 -0.2716 -0.3604
 1912TIP3    H127227   3.968   4.799  16.957 -0.9063  1.7804 -0.4759
 1912TIP3    H227228   3.997   4.810  16.808 -0.6103 -0.0578 -0.5695
 1913TIP3   OH227229   3.138   2.063   3.847  0.1400  0.0958 -0.0854
 1913TIP3    H127230   3.144   1.986   3.790  0.0173  0.3627 -0.4654
 1913TIP3    H227231   3.106   2.132   3.789 -0.5734  0.2255  0.4532
 1914TIP3   OH227232   2.952   4.900  13.276 -0.0827  0.0786 -0.4782
 1914TIP3    H127233   2.882   4.872  13.217  0.0752 -1.5121  0.0381
 1914TIP3    H227234   3.032   4.888  13.225  0.1142 -1.9384  0.2011
 1915TIP3   OH227235   3.638   5.047   1.916  0.4334 -0.0566  0.5634
 1915TIP3    H127236   3.667   4.962   1.950  0.0147 -0.4001  0.0726
 1915TIP3    H227237   3.715   5.104   1.926  0.9158 -0.6517  0.3446
 1916TIP3   OH227238   1.986   5.767  12.371 -0.2684 -0.3427  0.1400
 1916TIP3    H127239   2.068   5.814  12.357 -0.8383  0.8448  0.6094
 1916TIP3    H227240   1.944   5.814  12.443 -1.6661 -0.5100 -0.5372
 1917TIP3   OH227241   0.320   3.878  13.885  0.2684 -0.4116 -0.3776
 1917TIP3    H127242   0.246   3.869  13.945  0.2605  0.8233 -0.1735
 1917TIP3    H227243   0.319   3.797  13.834 -0.5209 -0.9141  0.3979
 1918TIP3   OH227244   3.437   1.147   3.273 -0.4085 -0.5568  0.0056
 1918TIP3    H127245   3.355   1.102   3.255 -0.0719 -0.5487 -1.6730
 1918TIP3    H227246   3.450   1.205   3.198 -0.2075  1.4516  1.5134
 1919TIP3   OH227247   4.544   3.754  13.959  0.1882 -0.7213  0.5406
 1919TIP3    H127248   4.514   3.845  13.971  0.2720 -0.2236 -2.3248
 1919TIP3    H227249   4.614   3.744  14.023  1.2066  1.7757 -0.0550
 1920TIP3   OH227250   1.115   6.394  12.629  0.2425  0.1872  0.1265
 1920TIP3    H127251   1.057   6.400  12.553  1.9979  0.1044 -1.2596
 1920TIP3    H227252   1.123   6.484  12.660  0.0609  0.3158 -0.1972
 1921TIP3   OH227253   1.606   6.772  14.613 -0.6776 -0.1715  0.5430
 1921TIP3    H127254   1.547   6.699  14.599 -0.6027  0.0305 -1.0705
 1921TIP3    H227255   1.565   6.824  14.682 -0.7188 -1.7184  1.7169
 1922TIP3   OH227256   2.993   1.806   1.416  0.0543  0.6828  0.0807
 1922TIP3    H127257   3.038   1.722   1.412  0.6913  1.0442 -2.9589
 1922TIP3    H227258   3.056   1.865   1.457  1.3107  0.5330 -1.5235
 1923TIP3   OH227259   5.053   1.035  12.343 -0.3059  0.2976  0.1981
 1923TIP3    H127260   4.990   1.084  12.291 -0.4803 -0.5900 -0.4529
 1923TIP3    H227261   5.070   0.956  12.292 -0.1298 -0.3814  1.2778
 1924TIP3   OH227262   6.372   0.957  17.079  0.1240  0.0205  0.4716
 1924TIP3    H127263   6.436   0.989  17.016 -1.2949  1.4591 -0.3250
 1924TIP3    H227264   6.313   0.902  17.027 -0.1542 -0.0577  0.8661
 1925TIP3   OH227265   4.850   3.245   6.298 -0.0126  0.5324 -0.1679
 1925TIP3    H127266   4.775   3.245   6.359 -0.6832  1.3527 -0.9532
 1925TIP3    H227267   4.865   3.153   6.278 -1.1206  0.3707 -0.3365
 1926TIP3   OH227268   0.092   6.266   3.643  0.0554  0.1342 -0.1421
 1926TIP3    H127269   0.041   6.346   3.642 -0.6358 -0.2928 -1.2604
 1926TIP3    H227270   0.102   6.242   3.551  2.0200  0.0265  0.0542
 1927TIP3   OH227271   6.238   2.238   4.319 -0.3704 -0.1729 -0.1834
 1927TIP3    H127272   6.298   2.267   4.388  0.5563 -1.6332 -0.3223
 1927TIP3    H227273   6.171   2.189   4.365  0.4630 -1.4832 -0.3225
 1928TIP3   OH227274   2.287   4.676   1.278 -0.1339  0.6177 -0.1766
 1928TIP3    H127275   2.292   4.580   1.273 -0.3708  0.6261 -0.5993
 1928TIP3    H227276   2.205   4.693   1.324 -0.2976  0.6225 -0.4670
 1929TIP3   OH227277   1.699   6.726  15.904  0.2641  0.6336  0.5080
 1929TIP3    H127278   1.778   6.775  15.927  1.6587 -1.1591 -0.1435
 1929TIP3    H227279   1.701   6.722  15.809 -0.8961  0.9535  0.4596
 1930TIP3   OH227280   0.317   1.333   3.357 -0.8107  0.3647 -0.4123
 1930TIP3    H127281   0.253   1.386   3.405 -1.1657  0.0542 -0.5330
 1930TIP3    H227282   0.290   1.341   3.265 -0.6154  0.3109 -0.4748
 1931TIP3   OH227283   0.631   4.838   3.994 -0.5315  0.1165 -0.3333
 1931TIP3    H127284   0.695   4.908   3.985  0.2771 -0.8699 -3.8046
 1931TIP3    H227285   0.554   4.880   4.032  0.7167  2.3085 -0.1023
 1932TIP3   OH227286   3.657   1.452   6.185 -0.2753 -0.0329 -0.4972
 1932TIP3    H127287   3.726   1.515   6.164  0.1935 -0.4941 -0.3617
 1932TIP3    H227288   3.704   1.377   6.222 -0.4759 -1.7420 -3.3894
 1933TIP3   OH227289   4.563   1.070  13.940  0.0847 -0.1364 -0.2366
 1933TIP3    H127290   4.562   1.163  13.964  1.0999  0.2665 -1.6764
 1933TIP3    H227291   4.470   1.044  13.944 -0.3242  1.1677 -0.6449
 1934TIP3   OH227292   0.524   3.992  13.753 -0.3414  0.3574  0.2509
 1934TIP3    H127293   0.456   3.946  13.802  0.7218 -0.0332  1.4301
 1934TIP3    H227294   0.599   3.932  13.755  0.7208  1.6639  0.8559
 1935TIP3   OH227295   1.320   6.122  17.195  0.0886 -0.4789  0.0317
 1935TIP3    H127296   1.281   6.158  17.274 -0.0046  0.4728 -0.4326
 1935TIP3    H227297   1.245   6.101  17.139  0.1275 -1.7141  0.4159
 1936TIP3   OH227298   2.121   6.702  14.369  0.3593 -0.2795  0.1578
 1936TIP3    H127299   2.044   6.710  14.426 -1.1270 -1.2373 -1.5744
 1936TIP3    H227300   2.137   6.607  14.365  1.9033 -0.0697  0.7837
 1937TIP3   OH227301   0.748   5.101  15.648  0.0946 -0.0739  0.4935
 1937TIP3    H127302   0.739   5.020  15.699  1.1395  1.0555  2.6119
 1937TIP3    H227303   0.661   5.139  15.649  0.2921  0.4553  2.4947
 1938TIP3   OH227304   4.805   6.578   1.466  0.0910 -0.0240  0.5873
 1938TIP3    H127305   4.841   6.500   1.424 -1.3281 -0.2184 -0.3175
 1938TIP3    H227306   4.711   6.569   1.458 -0.2003  0.5710  2.7327
 1939TIP3   OH227307   4.903   2.957   6.306 -0.7290 -0.2193 -0.0878
 1939TIP3    H127308   4.837   2.910   6.357  0.5378 -1.3781  0.5313
 1939TIP3    H227309   4.980   2.900   6.306  0.4638  1.3132 -0.3628
 1940TIP3   OH227310   1.795   0.738  16.266  0.4394  0.2015 -0.4097
 1940TIP3    H127311   1.890   0.746  16.261  0.4519 -0.6373 -3.8966
 1940TIP3    H227312   1.779   0.644  16.282  0.1491  0.4166  0.6790
 1941TIP3   OH227313   3.168   6.318  11.903  0.1637  0.1298 -0.3478
 1941TIP3    H127314   3.196   6.371  11.828 -0.2741 -0.7991 -1.1989
 1941TIP3    H227315   3.073   6.307  11.890  0.1060 -0.1494  0.2722
 1942TIP3   OH227316   1.307   0.420  15.879 -0.1510 -0.0432 -0.1578
 1942TIP3    H127317   1.310   0.515  15.890 -0.8852  0.0943 -1.0612
 1942TIP3    H227318   1.377   0.388  15.935 -1.9910  0.7838  2.9133
 1943TIP3   OH227319   5.819   0.639   3.277  0.1959  0.1446  0.3343
 1943TIP3    H127320   5.798   0.727   3.248  0.3808  0.2236  0.4383
 1943TIP3    H227321   5.739   0.588   3.260  0.5692 -0.0116 -1.0879
 1944TIP3   OH227322   1.845   1.744   2.064  0.0967  0.5434 -0.2392
 1944TIP3    H127323   1.920   1.719   2.118  0.7770  2.6609 -0.0785
 1944TIP3    H227324   1.875   1.823   2.018  0.2679 -2.0513 -5.2668
 1945TIP3   OH227325   5.742   0.160  11.776 -0.2314  0.2475 -0.3050
 1945TIP3    H127326   5.729   0.217  11.852 -1.7216  1.4815 -1.4233
 1945TIP3    H227327   5.669   0.098  11.780 -1.7805  1.8358 -1.9654
 1946TIP3   OH227328   2.587   0.157   2.634 -0.3520 -0.4882 -0.3938
 1946TIP3    H127329   2.589   0.063   2.616 -0.9670 -0.6071  0.1188
 1946TIP3    H227330   2.559   0.163   2.726 -0.2148  0.1914 -0.3935
 1947TIP3   OH227331   3.359   0.020  11.533  0.1006 -0.2664  0.0013
 1947TIP3    H127332   3.403   0.104  11.542 -0.5782  0.1041 -0.0846
 1947TIP3    H227333   3.365  -0.002  11.440 -0.4790  0.1152 -0.1330
 1948TIP3   OH227334   3.532   0.137   2.811 -0.0755  0.2565 -0.0241
 1948TIP3    H127335   3.520   0.103   2.900  0.0295  1.9403  0.6636
 1948TIP3    H227336   3.617   0.180   2.812 -1.2210  2.6970 -0.0913
 1949TIP3   OH227337   5.735   2.018  12.255  0.0432  0.3419 -0.0791
 1949TIP3    H127338   5.709   1.954  12.321  0.8304  1.0002  0.9016
 1949TIP3    H227339   5.652   2.050  12.219 -0.3708 -1.5733 -0.9948
 1950TIP3   OH227340   2.617   5.791  12.741  0.0812 -0.1718 -0.1954
 1950TIP3    H127341   2.690   5.841  12.777 -0.3946  0.1022  0.4103
 1950TIP3    H227342   2.624   5.705  12.782 -0.8509  0.3456  1.1164
 1951TIP3   OH227343   0.309   6.697   4.146 -0.0607  0.0322 -0.3733
 1951TIP3    H127344   0.257   6.619   4.163  0.7909 -0.9115 -1.8504
 1951TIP3    H227345   0.399   6.665   4.140  0.6906  1.5394  1.6118
 1952TIP3   OH227346   0.803   3.768  10.422 -0.0360 -0.5164 -0.0925
 1952TIP3    H127347   0.843   3.853  10.405 -2.1057  0.7390  1.0344
 1952TIP3    H227348   0.716   3.774  10.384 -1.5238 -0.7945  2.9762
 1953TIP3   OH227349   4.998   2.486  16.607  0.2035  0.1035  0.1272
 1953TIP3    H127350   5.000   2.550  16.678  1.5447 -0.1199  0.3161
 1953TIP3    H227351   4.906   2.462  16.600  0.0281  0.0936  1.8331
 1954TIP3   OH227352   3.250   3.284  13.092 -0.1375 -0.4564 -0.4623
 1954TIP3    H127353   3.336   3.251  13.066  0.2939 -0.3939  0.8154
 1954TIP3    H227354   3.202   3.294  13.009  0.9487 -0.8402 -1.1617
 1955TIP3   OH227355   0.187   5.123   0.342 -0.5284  0.5126 -0.2897
 1955TIP3    H127356   0.091   5.114   0.350 -0.8092  2.7925 -0.6365
 1955TIP3    H227357   0.208   5.200   0.395  1.4322 -1.0399  1.3602
 1956TIP3   OH227358   6.452   3.143  13.616 -0.0899  0.0917 -0.0166
 1956TIP3    H127359   6.527   3.199  13.596  0.6070 -1.4804 -2.2177
 1956TIP3    H227360   6.422   3.112  13.531 -1.4039 -1.6640  1.0160
 1957TIP3   OH227361   6.010   1.086  16.944  0.2133  0.3676 -0.2182
 1957TIP3    H127362   5.986   1.136  16.867 -0.7627  1.7802  0.9460
 1957TIP3    H227363   5.964   1.003  16.935  0.0262  0.5614 -1.0921
 1958TIP3   OH227364   5.896   0.512   2.954 -0.7696 -0.2346  0.0799
 1958TIP3    H127365   5.984   0.549   2.956 -1.7162  2.1978  0.9637
 1958TIP3    H227366   5.881   0.489   2.863  0.6765 -0.4087 -0.1286
 1959TIP3   OH227367   5.126   5.622   0.904 -0.2068  0.3248  0.1972
 1959TIP3    H127368   5.123   5.657   0.815 -1.4797  0.5576  0.3123
 1959TIP3    H227369   5.046   5.654   0.945  0.8883  1.1472  1.7969
 1960TIP3   OH227370   3.602   1.624   5.832 -0.0717 -0.4287  0.2781
 1960TIP3    H127371   3.690   1.629   5.868 -0.5364  0.7692  1.3088
 1960TIP3    H227372   3.546   1.604   5.907 -0.8702  0.5485 -0.0329
 1961TIP3   OH227373   4.196   5.811   2.816 -0.2601 -0.1889 -0.4197
 1961TIP3    H127374   4.169   5.893   2.774 -0.2986 -0.1130 -0.2491
 1961TIP3    H227375   4.183   5.744   2.749 -1.7432 -0.2899 -0.0547
 1962TIP3   OH227376   1.513   4.127   5.647 -0.0873  0.5422  0.4847
 1962TIP3    H127377   1.530   4.219   5.625 -1.5106  0.8579  0.5881
 1962TIP3    H227378   1.433   4.130   5.699  0.2782 -0.6968  1.1525
 1963TIP3   OH227379   3.245   6.801   2.779 -0.1233  0.7553  0.0433
 1963TIP3    H127380   3.159   6.829   2.749 -0.1544  0.8593  0.2238
 1963TIP3    H227381   3.267   6.863   2.849 -0.4158  0.0319  0.7939
 1964TIP3   OH227382   6.607   2.082  13.812 -0.1939  0.6436 -0.2399
 1964TIP3    H127383   6.702   2.084  13.800  0.4350  1.2975  3.5566
 1964TIP3    H227384   6.579   1.999  13.771  2.3796 -0.7285  0.5642
 1965TIP3   OH227385   4.632   5.730   2.482  0.0012 -0.2988  0.3407
 1965TIP3    H127386   4.641   5.803   2.421  0.3446 -0.3735  0.2994
 1965TIP3    H227387   4.538   5.715   2.488 -0.0051 -0.9471 -0.9457
 1966TIP3   OH227388   2.777   5.974   2.020  0.0846 -0.0476  0.5421
 1966TIP3    H127389   2.816   5.887   2.017 -4.3048 -2.2702 -1.0549
 1966TIP3    H227390   2.738   5.981   2.107 -2.2093 -1.2054 -0.2947
 1967TIP3   OH227391   6.247   4.150   3.226 -0.3020 -0.2446  0.2135
 1967TIP3    H127392   6.325   4.197   3.255 -0.9021  1.0575 -0.1840
 1967TIP3    H227393   6.222   4.194   3.145 -0.7208 -1.4811 -0.3593
 1968TIP3   OH227394   3.834   2.425   0.993 -0.3245 -0.3182  0.0984
 1968TIP3    H127395   3.740   2.438   1.001  0.0219  1.7991  2.0157
 1968TIP3    H227396   3.860   2.480   0.919 -0.5105 -0.1583  0.1505
 1969TIP3   OH227397   4.649   2.593  11.370 -0.2403  0.2900 -0.5707
 1969TIP3    H127398   4.690   2.544  11.298 -0.2261  1.0248 -1.0747
 1969TIP3    H227399   4.664   2.539  11.447 -1.6279 -1.3124 -1.3486
 1970TIP3   OH227400   3.860   6.556  15.706 -0.5114  0.0820 -0.3220
 1970TIP3    H127401   3.843   6.568  15.613 -0.0227 -4.2010 -1.1888
 1970TIP3    H227402   3.777   6.579  15.748 -0.2199  3.8542 -1.4220
 1971TIP3   OH227403   4.574   0.554  10.352 -0.4831 -0.3080  0.0773
 1971TIP3    H127404   4.650   0.498  10.337  0.8218  0.8272  1.9884
 1971TIP3    H227405   4.500   0.494  10.356  0.3367 -1.4928 -1.3995
 1972TIP3   OH227406   4.154   3.291  10.646  0.1549  0.2444  0.3676
 1972TIP3    H127407   4.233   3.300  10.593 -0.1532 -1.2004 -0.3979
 1972TIP3    H227408   4.130   3.380  10.670  1.7626  0.7277  0.2349
 1973TIP3   OH227409   1.474   2.438   4.515  0.4951 -0.3121  0.0763
 1973TIP3    H127410   1.529   2.373   4.560  1.3501  1.6658  2.0497
 1973TIP3    H227411   1.535   2.490   4.464  0.2753  0.7907  0.8917
 1974TIP3   OH227412   4.016   0.728  14.585  0.0190  0.4846  0.2393
 1974TIP3    H127413   4.079   0.660  14.611  0.4962  1.3402  1.3773
 1974TIP3    H227414   3.931   0.683  14.586  0.4035 -0.2551  0.3552
 1975TIP3   OH227415   3.128   2.611   4.369 -0.4928 -0.0695 -0.3594
 1975TIP3    H127416   3.145   2.662   4.290 -1.5370  0.5388 -0.2125
 1975TIP3    H227417   3.033   2.611   4.377 -0.4188 -0.5107  0.6495
 1976TIP3   OH227418   2.844   4.186   2.041  0.3387  0.6650  0.2818
 1976TIP3    H127419   2.791   4.107   2.057  0.1773  1.0112  1.5692
 1976TIP3    H227420   2.814   4.248   2.107  0.6318  1.7409 -0.5666
 1977TIP3   OH227421   2.904   6.259   3.636 -0.4499  0.1496  0.5174
 1977TIP3    H127422   2.822   6.217   3.660 -0.0365 -0.7324  0.4344
 1977TIP3    H227423   2.935   6.300   3.717 -1.6429  1.7134  0.2373
 1978TIP3   OH227424   5.342   6.078  16.943 -0.0599  0.1172 -0.3090
 1978TIP3    H127425   5.331   6.074  17.038 -2.7564 -1.3189 -0.5823
 1978TIP3    H227426   5.376   5.992  16.919 -0.9295 -0.1151 -0.7612
 1979TIP3   OH227427   3.067   5.246  13.613 -0.7408  0.3517  0.2894
 1979TIP3    H127428   3.159   5.263  13.631 -0.8259 -0.1447  1.2219
 1979TIP3    H227429   3.028   5.229  13.699 -1.8102  1.0711 -0.0306
 1980TIP3   OH227430   6.121   0.158   0.721  0.3856  0.0395 -0.1589
 1980TIP3    H127431   6.173   0.158   0.640 -0.5839  2.0333 -0.8508
 1980TIP3    H227432   6.031   0.152   0.691  0.0576 -0.3413  0.8611
 1981TIP3   OH227433   1.398   1.076   5.451  0.2990  0.3315 -0.2467
 1981TIP3    H127434   1.473   1.018   5.438 -0.3572 -0.1229 -2.3558
 1981TIP3    H227435   1.390   1.083   5.546  2.1425 -0.7217  0.0386
 1982TIP3   OH227436   4.167   4.018  16.018 -0.3201  0.4588  0.0548
 1982TIP3    H127437   4.158   3.978  16.104  0.2230  0.7594  0.2559
 1982TIP3    H227438   4.177   3.943  15.958 -0.9039  0.2439  0.2174
 1983TIP3   OH227439   4.389   2.284  13.057 -0.4058  0.3983 -0.3138
 1983TIP3    H127440   4.351   2.235  12.984 -0.8825  0.0410  0.1683
 1983TIP3    H227441   4.375   2.228  13.133  2.1521 -0.3082 -0.2731
 1984TIP3   OH227442   1.662   4.753  16.831  0.4305  0.3964  0.0897
 1984TIP3    H127443   1.571   4.773  16.810  0.8269  1.8687 -0.3778
 1984TIP3    H227444   1.679   4.668  16.791 -1.2909 -0.8861  1.8922
 1985TIP3   OH227445   3.082   0.975   0.671 -0.5903  0.3111 -0.0143
 1985TIP3    H127446   3.046   1.058   0.703 -1.4497  0.1288 -0.4750
 1985TIP3    H227447   3.139   0.944   0.741 -2.9836 -0.4612  1.7020
 1986TIP3   OH227448   3.959   0.478  11.815 -0.1368 -0.6471 -0.0962
 1986TIP3    H127449   3.915   0.432  11.887  2.2326 -0.5574  1.5067
 1986TIP3    H227450   3.943   0.570  11.832  1.2074 -0.5690  0.9466
 1987TIP3   OH227451   0.459   4.668  16.860  0.0934  0.4739  0.2871
 1987TIP3    H127452   0.509   4.587  16.873 -0.9442 -0.0048  1.5135
 1987TIP3    H227453   0.446   4.673  16.765  0.4011 -0.6557  0.1621
 1988TIP3   OH227454   2.841   4.071  13.519  0.4449 -0.5539  0.0070
 1988TIP3    H127455   2.844   3.980  13.548  2.8847 -0.1565  1.1910
 1988TIP3    H227456   2.928   4.089  13.483  0.2708  1.5146  0.4782
 1989TIP3   OH227457   2.456   3.494  13.018  0.3285 -0.6992  0.1542
 1989TIP3    H127458   2.506   3.567  12.981 -0.2888 -0.6907 -0.6895
 1989TIP3    H227459   2.521   3.441  13.064  0.8552  0.1436  0.3984
 1990TIP3   OH227460   2.317   2.494   5.937  0.1413  0.0268 -0.2876
 1990TIP3    H127461   2.404   2.511   5.971  0.9464 -1.8216 -1.2548
 1990TIP3    H227462   2.332   2.448   5.854 -1.7364 -0.9320 -0.1558
 1991TIP3   OH227463   0.557   2.154   4.332  0.8170 -0.2958  0.1212
 1991TIP3    H127464   0.635   2.107   4.304  0.5448 -1.7966  1.6894
 1991TIP3    H227465   0.485   2.110   4.286  0.6792 -0.5242  0.5558
 1992TIP3   OH227466   5.676   6.567   1.094 -0.3866  0.8515 -0.4092
 1992TIP3    H127467   5.753   6.510   1.094 -0.4960  0.6051  2.3539
 1992TIP3    H227468   5.703   6.643   1.042  0.1531 -1.1070 -3.2099
 1993TIP3   OH227469   0.855   0.909  11.709  0.3923  0.1463  0.3829
 1993TIP3    H127470   0.809   0.932  11.790 -0.8313  1.2309 -0.5739
 1993TIP3    H227471   0.924   0.975  11.702  1.6783 -1.0301  1.4311
 1994TIP3   OH227472   6.366   4.925  15.903  0.1717  0.1439 -0.2291
 1994TIP3    H127473   6.375   4.877  15.820  0.3599 -1.0397  0.4497
 1994TIP3    H227474   6.416   5.005  15.889  0.9207 -0.4285 -0.9714
 1995TIP3   OH227475   3.025   4.533   4.418  0.1125  0.1790 -0.7186
 1995TIP3    H127476   2.961   4.485   4.471 -0.5862  2.6820  0.9353
 1995TIP3    H227477   3.097   4.551   4.478  0.1767  1.4689 -1.1462
 1996TIP3   OH227478   0.590   1.752   1.769 -0.1252 -0.2151 -0.2163
 1996TIP3    H127479   0.660   1.687   1.761  1.0848  0.8539  1.0509
 1996TIP3    H227480   0.515   1.713   1.725  0.9185 -1.9283 -0.5548
 1997TIP3   OH227481   6.003   6.796   0.029  0.3654  0.1494 -0.0345
 1997TIP3    H127482   5.955   6.851  -0.032  0.2863  0.6829  0.4939
 1997TIP3    H227483   6.017   6.714  -0.018 -1.2205 -0.0966 -0.1314
 1998TIP3   OH227484   3.037   2.089  17.100 -0.1176  0.3799  0.2972
 1998TIP3    H127485   3.002   2.178  17.095  0.1388  0.4930  0.5312
 1998TIP3    H227486   3.130   2.100  17.115 -0.1288  0.0720  0.6156
 1999TIP3   OH227487   6.105   6.633   1.705  0.0852 -0.2260  0.0601
 1999TIP3    H127488   6.177   6.570   1.694  0.9445  0.8629 -0.7714
 1999TIP3    H227489   6.064   6.608   1.788  0.0334 -2.2211 -0.5034
 2000TIP3   OH227490   6.695   5.471  11.765 -0.8858 -0.7938  0.6230
 2000TIP3    H127491   6.626   5.448  11.826 -3.7908  0.6634 -1.8367
 2000TIP3    H227492   6.717   5.389  11.721  0.7037 -1.7035  2.9234
 2001TIP3   OH227493   1.110   4.326  11.735  0.2937  0.1388 -0.4720
 2001TIP3    H127494   1.053   4.329  11.659  1.4983 -0.2884 -1.4212
 2001TIP3    H227495   1.139   4.235  11.740 -0.0577  0.0655  0.7383
 2002TIP3   OH227496   0.365   1.295  13.799 -0.0177  0.3787 -0.4517
 2002TIP3    H127497   0.291   1.310  13.740 -0.3093 -0.1347 -0.2206
 2002TIP3    H227498   0.435   1.349  13.763 -0.5381  0.9631 -0.6119
 2003TIP3   OH227499   1.063   4.470   5.274  0.1192  0.8152  0.3661
 2003TIP3    H127500   1.133   4.413   5.304  1.9406  2.0321 -1.2930
 2003TIP3    H227501   1.085   4.556   5.309  1.7370  2.0509 -3.1805
 2004TIP3   OH227502   3.134   0.498  12.195  0.2805  0.3024 -0.3920
 2004TIP3    H127503   3.164   0.542  12.274  1.2295  1.1829 -1.2196
 2004TIP3    H227504   3.047   0.535  12.178 -1.2029 -1.9061  1.7409
 2005TIP3   OH227505   3.568   0.308   1.072 -0.0888  0.1001 -0.2066
 2005TIP3    H127506   3.617   0.235   1.034 -1.1913 -0.3012 -0.9050
 2005TIP3    H227507   3.481   0.272   1.089 -0.6859  1.2826 -0.6730
 2006TIP3   OH227508   3.396   6.630  14.826  0.2545  0.1865 -0.0690
 2006TIP3    H127509   3.330   6.684  14.869 -1.1102 -0.3919 -1.3630
 2006TIP3    H227510   3.347   6.575  14.766  1.6946 -1.8538  0.5036
 2007TIP3   OH227511   2.468   4.060   2.377  0.0912  0.4189 -0.0066
 2007TIP3    H127512   2.456   4.097   2.290 -3.4982 -0.2362  0.0637
 2007TIP3    H227513   2.463   3.965   2.364  0.6292  0.2674  0.7885
 2008TIP3   OH227514   4.161   2.243  12.279 -0.4770  0.0286  0.1306
 2008TIP3    H127515   4.143   2.289  12.360  0.2082  1.0568 -0.2793
 2008TIP3    H227516   4.120   2.297  12.211 -1.5348 -1.1158 -0.1678
 2009TIP3   OH227517   6.211   5.608  16.622 -0.2248 -0.1600 -0.1224
 2009TIP3    H127518   6.180   5.545  16.557 -0.9798  1.6170 -1.5830
 2009TIP3    H227519   6.221   5.690  16.573 -1.0070  1.3206  2.0475
 2010TIP3   OH227520   5.781   0.085  15.353 -0.1514 -0.0578 -0.1525
 2010TIP3    H127521   5.712   0.145  15.324 -0.7216 -0.9377 -0.6883
 2010TIP3    H227522   5.767   0.006  15.300  0.9871 -0.4183  0.0686
 2011TIP3   OH227523   5.236   2.132  14.347  0.4554 -0.2635  0.0572
 2011TIP3    H127524   5.247   2.049  14.394 -0.1578 -1.5741 -1.9374
 2011TIP3    H227525   5.158   2.171  14.385 -1.9079 -2.8120 -1.7634
 2012TIP3   OH227526   4.397   3.276  16.936 -0.0707 -0.0408 -0.3038
 2012TIP3    H127527   4.459   3.320  16.994  1.0150 -0.7043 -0.9433
 2012TIP3    H227528   4.325   3.338  16.927  0.7435  0.9728  0.0205
 2013TIP3   OH227529   1.833   1.896   3.594  0.7003 -0.3104  0.9119
 2013TIP3    H127530   1.868   1.878   3.507  1.2525  0.2903  1.0029
 2013TIP3    H227531   1.738   1.900   3.581  0.7895 -0.1128  0.3171
 2014TIP3   OH227532   2.859   3.139  16.585 -0.8142  0.2488  0.2612
 2014TIP3    H127533   2.858   3.197  16.661  1.7889  2.2560 -1.0592
 2014TIP3    H227534   2.822   3.191  16.514  0.7441  0.0400 -0.7507
 2015TIP3   OH227535   1.495   6.604   5.187 -0.3123 -0.0739  0.3942
 2015TIP3    H127536   1.491   6.509   5.172 -0.6963 -0.1346  0.8325
 2015TIP3    H227537   1.504   6.612   5.282 -0.2372  0.3288  0.3531
 2016TIP3   OH227538   2.334   0.539   3.528  0.4727 -0.0596 -0.4051
 2016TIP3    H127539   2.242   0.523   3.548  1.0596 -0.8650  1.9261
 2016TIP3    H227540   2.336   0.628   3.493 -0.8696  1.2459  2.5335
 2017TIP3   OH227541   0.592   0.971   3.329 -0.0387  0.2772 -0.2323
 2017TIP3    H127542   0.665   0.914   3.305  1.2899  1.0251  1.7209
 2017TIP3    H227543   0.529   0.912   3.371  0.8106  0.0406  0.7574
 2018TIP3   OH227544   5.785   4.276   3.362  0.2246  0.2333  0.2546
 2018TIP3    H127545   5.874   4.252   3.386  0.8432  0.9299 -1.2225
 2018TIP3    H227546   5.792   4.313   3.274 -1.5446  0.1902  0.0454
 2019TIP3   OH227547   3.805   2.044   2.967 -0.0773  0.4758  0.2279
 2019TIP3    H127548   3.890   2.034   2.924 -0.8147  0.8408 -1.3835
 2019TIP3    H227549   3.824   2.090   3.049  1.4974 -1.1326  0.8295
 2020TIP3   OH227550   5.124   2.458  10.802 -0.2380  0.3390 -0.0689
 2020TIP3    H127551   5.039   2.477  10.840 -0.7182  0.3357 -1.1108
 2020TIP3    H227552   5.134   2.363  10.811 -0.6843  0.2360 -0.6232
 2021TIP3   OH227553   2.460   3.930  10.662  0.0220 -0.6181  0.2838
 2021TIP3    H127554   2.548   3.964  10.677  1.1491 -2.5219 -1.5930
 2021TIP3    H227555   2.453   3.855  10.721  0.8256 -2.2642 -1.6486
 2022TIP3   OH227556   1.312   1.886   5.735  0.0600  0.1266  0.3123
 2022TIP3    H127557   1.330   1.980   5.736  1.2766 -0.1011  1.1471
 2022TIP3    H227558   1.288   1.868   5.644 -3.5399  1.7915  0.7392
 2023TIP3   OH227559   2.009   4.226  16.472  0.4466 -0.4680  0.0594
 2023TIP3    H127560   1.991   4.252  16.381  2.2190  2.6993  0.4430
 2023TIP3    H227561   1.947   4.156  16.490 -2.1842  0.9496 -2.5852
 2024TIP3   OH227562   0.492   2.726   0.285  0.1194 -0.4172  0.2537
 2024TIP3    H127563   0.528   2.813   0.266  1.5127 -0.8137  0.9214
 2024TIP3    H227564   0.425   2.712   0.218  0.7724  0.6330 -0.6542
 2025TIP3   OH227565   4.790   5.636  15.720 -0.4374  0.3169  0.7323
 2025TIP3    H127566   4.843   5.713  15.697 -0.5008  0.4893  1.1439
 2025TIP3    H227567   4.704   5.672  15.743 -1.8449 -0.1846 -3.0269
 2026TIP3   OH227568   6.375   3.481   4.693 -1.0463  0.3337 -0.4774
 2026TIP3    H127569   6.382   3.540   4.618  0.0179  1.2699  0.3282
 2026TIP3    H227570   6.321   3.528   4.756 -3.7152 -1.2941 -1.3754
 2027TIP3   OH227571   3.144   4.365  13.690 -0.0730 -0.3309  0.0742
 2027TIP3    H127572   3.166   4.450  13.652 -2.1484  0.9556  1.5348
 2027TIP3    H227573   3.179   4.369  13.778 -0.5970 -0.7781  0.3055
 2028TIP3   OH227574   2.857   2.167   1.374 -0.4162  0.0927  0.2807
 2028TIP3    H127575   2.841   2.083   1.418 -1.0025  0.1927  0.2697
 2028TIP3    H227576   2.770   2.195   1.344 -0.2187  0.6860  0.2553
 2029TIP3   OH227577   6.339   1.566   5.539 -1.0006  0.3304  0.1058
 2029TIP3    H127578   6.369   1.497   5.598 -1.4367  0.6293  0.6981
 2029TIP3    H227579   6.255   1.594   5.576 -0.8389  1.1606 -0.1284
 2030TIP3   OH227580   3.104   6.619   5.764 -0.4901  0.0337  0.0005
 2030TIP3    H127581   3.119   6.713   5.761 -0.6529  0.0413 -1.0367
 2030TIP3    H227582   3.123   6.589   5.675  1.7606 -1.2660  0.8435
 2031TIP3   OH227583   1.164   5.261  12.022  0.1393 -0.1336  0.6617
 2031TIP3    H127584   1.131   5.293  12.105  0.5225  0.2010  0.6918
 2031TIP3    H227585   1.087   5.257  11.965 -0.1174 -0.3349  1.0223
 2032TIP3   OH227586   5.548   1.799  16.657 -0.1238  0.0416 -0.6846
 2032TIP3    H127587   5.474   1.773  16.712  0.5255 -1.1537 -0.3569
 2032TIP3    H227588   5.610   1.727  16.664  1.5835  1.4969 -0.0650
 2033TIP3   OH227589   3.416   2.604   1.071  0.5799 -0.0303  0.0058
 2033TIP3    H127590   3.446   2.516   1.096  1.1847 -0.1092 -0.9497
 2033TIP3    H227591   3.346   2.624   1.133 -0.1717 -1.5534 -0.3117
 2034TIP3   OH227592   2.024   1.514   0.256  0.0052  0.6624 -0.1600
 2034TIP3    H127593   1.977   1.445   0.304 -0.2870  0.4600 -0.7342
 2034TIP3    H227594   1.961   1.585   0.248 -0.7977 -0.2050 -2.3255
 2035TIP3   OH227595   0.528   0.442  15.751  0.6612 -0.0695  0.0846
 2035TIP3    H127596   0.466   0.373  15.727 -0.3908  1.4186 -1.7705
 2035TIP3    H227597   0.585   0.450  15.674  2.2110 -0.3381  1.1513
 2036TIP3   OH227598   1.495   5.603  12.198 -0.3537  0.6321  0.1421
 2036TIP3    H127599   1.436   5.674  12.222 -0.2043  1.2050 -1.1149
 2036TIP3    H227600   1.577   5.624  12.243  0.1613  2.0985 -1.3643
 2037TIP3   OH227601   0.803   3.449  14.124 -0.5273 -0.1081 -0.3076
 2037TIP3    H127602   0.758   3.371  14.155  0.8923 -0.2504  1.5600
 2037TIP3    H227603   0.854   3.479  14.199  2.1858  0.2372 -2.1581
 2038TIP3   OH227604   6.783   3.107  10.754  0.1928  0.4344  0.0048
 2038TIP3    H127605   6.725   3.178  10.781 -0.0526  0.2075  0.0840
 2038TIP3    H227606   6.731   3.056  10.692  0.7666  0.9742 -0.9505
 2039TIP3   OH227607   4.580   0.791  13.077  0.5016 -0.8408 -0.2481
 2039TIP3    H127608   4.611   0.878  13.053 -0.5146 -0.5650 -0.6107
 2039TIP3    H227609   4.575   0.792  13.173 -3.0250  0.8234 -0.3016
 2040TIP3   OH227610   6.155   6.409   3.366  0.5208  0.0915 -0.2337
 2040TIP3    H127611   6.227   6.376   3.313  1.4256 -1.3731  1.7763
 2040TIP3    H227612   6.076   6.386   3.316  1.3427 -0.4984 -1.3086
 2041TIP3   OH227613   2.121   5.835   3.422  0.0394 -0.1670  0.0003
 2041TIP3    H127614   2.079   5.913   3.460  1.6935  0.5606  0.4021
 2041TIP3    H227615   2.053   5.797   3.366 -0.6458  1.8753 -0.6561
 2042TIP3   OH227616   1.286   1.362  17.258  0.6590 -0.3958  0.2418
 2042TIP3    H127617   1.317   1.451  17.241 -1.4142  0.1738 -0.9434
 2042TIP3    H227618   1.310   1.313  17.179  0.6608 -0.5724  0.3520
 2043TIP3   OH227619   1.163   2.078  15.921  0.2771 -0.6778 -0.2315
 2043TIP3    H127620   1.155   2.042  15.833 -2.4169 -0.7738 -0.0256
 2043TIP3    H227621   1.196   2.167  15.908 -0.3951 -0.5868 -1.3578
 2044TIP3   OH227622   0.529   2.995  14.945 -0.0893 -0.1498 -0.2106
 2044TIP3    H127623   0.444   2.999  14.902 -0.7633  1.6893  1.1594
 2044TIP3    H227624   0.589   2.964  14.877 -1.4446  0.7290 -1.8763
 2045TIP3   OH227625   0.847   1.144   2.614 -0.0537 -0.0552 -0.1105
 2045TIP3    H127626   0.864   1.222   2.562 -1.1388  1.0714  1.1397
 2045TIP3    H227627   0.899   1.075   2.572  2.3881  1.7059 -0.1858
 2046TIP3   OH227628   5.759   4.339  16.661  0.5859 -0.4783  0.4998
 2046TIP3    H127629   5.668   4.356  16.683  0.2000  0.6940 -1.6822
 2046TIP3    H227630   5.807   4.414  16.696  0.3505  0.0626 -0.3001
 2047TIP3   OH227631   4.166   4.732  14.658  0.1788  0.0637  0.6803
 2047TIP3    H127632   4.217   4.652  14.668  3.2007  1.9067  1.2419
 2047TIP3    H227633   4.094   4.708  14.599  1.5900 -2.7406 -0.0640
 2048TIP3   OH227634   4.030   5.022  11.895 -0.1432 -0.6497 -0.1754
 2048TIP3    H127635   3.987   5.054  11.974 -1.4509 -0.8432 -0.7808
 2048TIP3    H227636   3.974   5.051  11.823  0.4999 -1.3114 -0.9708
 2049TIP3   OH227637   5.716   0.256  14.242 -0.0301  0.0957 -0.3483
 2049TIP3    H127638   5.633   0.245  14.290 -1.1986 -0.1871 -2.3295
 2049TIP3    H227639   5.747   0.343  14.267  0.8303 -0.9899  2.9168
 2050TIP3   OH227640   1.233   5.508   2.078 -0.9661  0.0066 -0.3325
 2050TIP3    H127641   1.154   5.490   2.027  0.2757 -2.7664 -1.4508
 2050TIP3    H227642   1.276   5.580   2.032 -1.1678 -0.7378 -1.7268
 2051TIP3   OH227643   0.307   3.390   0.706  0.4955  0.5468  0.0993
 2051TIP3    H127644   0.285   3.452   0.637 -3.0681 -0.3972  0.1505
 2051TIP3    H227645   0.296   3.304   0.664  0.0443 -0.0200  1.3277
 2052TIP3   OH227646   5.017   1.152  14.619 -0.1180 -0.0011  0.2118
 2052TIP3    H127647   4.982   1.117  14.700 -1.3539 -0.0224 -0.3144
 2052TIP3    H227648   4.952   1.129  14.552  0.7342  0.2564 -0.7384
 2053TIP3   OH227649   0.039   0.893  13.814  0.3385  0.3934 -0.4623
 2053TIP3    H127650   0.063   0.810  13.772  0.6722 -0.1805  0.8404
 2053TIP3    H227651  -0.056   0.888  13.822  0.2234  0.6905 -1.5096
 2054TIP3   OH227652   2.523   5.671   2.806  0.3502 -0.3057  0.4011
 2054TIP3    H127653   2.515   5.669   2.902  0.2037 -2.4800  0.4098
 2054TIP3    H227654   2.543   5.580   2.783  0.5616  0.2199 -1.6356
 2055TIP3   OH227655   1.420   2.668  12.141 -0.0472 -0.1289 -0.2259
 2055TIP3    H127656   1.371   2.589  12.116 -3.0866  0.9568  1.6028
 2055TIP3    H227657   1.414   2.725  12.065 -0.8858 -0.3741 -0.3562
 2056TIP3   OH227658   6.592   1.240   2.967 -0.0398 -0.2193 -0.1305
 2056TIP3    H127659   6.632   1.250   3.053  1.0576 -1.4264 -0.4596
 2056TIP3    H227660   6.498   1.238   2.983  0.1594 -0.5864  1.0463
 2057TIP3   OH227661   5.747   6.169   3.748 -0.1018 -0.1821  0.6605
 2057TIP3    H127662   5.679   6.137   3.807 -1.4095  1.1163 -0.0809
 2057TIP3    H227663   5.759   6.261   3.774  0.7306 -0.1528  0.1883
 2058TIP3   OH227664   4.144   4.840   5.195  0.2721  0.1998 -0.1422
 2058TIP3    H127665   4.098   4.868   5.116  0.4842  1.5223  0.1752
 2058TIP3    H227666   4.080   4.787   5.243 -1.1674  2.4225  0.5485
 2059TIP3   OH227667   5.299   2.483  15.704  0.6054 -1.0861 -0.6781
 2059TIP3    H127668   5.330   2.504  15.793 -1.1016 -0.4389 -0.1850
 2059TIP3    H227669   5.218   2.434  15.718 -1.1285  1.2641 -1.8143
 2060TIP3   OH227670   1.067   0.964   1.594 -0.0201  0.2438 -0.1179
 2060TIP3    H127671   1.136   0.957   1.528 -1.1493  0.7201 -1.3973
 2060TIP3    H227672   1.020   1.043   1.571 -2.3191 -1.1774 -0.6431
 2061TIP3   OH227673   3.782   0.040   2.497 -0.2101  0.2268  0.0070
 2061TIP3    H127674   3.842  -0.034   2.493 -0.9279 -0.4358  0.8397
 2061TIP3    H227675   3.700   0.002   2.529 -0.6771  1.3348  0.1803
 2062TIP3   OH227676   4.127   4.255   3.690  0.0092  0.0945 -0.7907
 2062TIP3    H127677   4.200   4.294   3.738 -0.5102  0.7371 -0.5159
 2062TIP3    H227678   4.115   4.169   3.730  1.0522 -0.3096 -1.2939
 2063TIP3   OH227679   0.166   4.464   3.499  0.7214  0.2460  0.0482
 2063TIP3    H127680   0.082   4.485   3.540  0.2561 -2.1638  0.4227
 2063TIP3    H227681   0.222   4.540   3.519 -1.8061  2.7937 -1.7351
 2064TIP3   OH227682   4.306   4.242  15.908 -0.6492  0.3595  0.8424
 2064TIP3    H127683   4.272   4.326  15.940 -1.4486  0.7089 -0.8204
 2064TIP3    H227684   4.277   4.178  15.973  0.2217  1.3893  2.2912
 2065TIP3   OH227685   1.214   0.277   2.221  0.0437 -0.1239 -1.0941
 2065TIP3    H127686   1.209   0.335   2.145  1.0431 -1.7937 -2.5098
 2065TIP3    H227687   1.193   0.190   2.186  0.5980 -0.9472  0.5182
 2066TIP3   OH227688   6.297   6.231  15.850  0.0903  0.3394  0.4416
 2066TIP3    H127689   6.239   6.179  15.906  0.6458  0.9951  1.6623
 2066TIP3    H227690   6.379   6.183  15.849  0.2319  0.5747  0.5941
 2067TIP3   OH227691   0.051   3.240   0.983 -0.1603 -0.1197 -0.6595
 2067TIP3    H127692   0.050   3.271   1.074 -0.3042 -1.7707 -0.0632
 2067TIP3    H227693   0.019   3.315   0.932  1.4920  1.4132  0.4194
 2068TIP3   OH227694   5.143   3.883  14.347 -0.3498  0.2285 -0.6386
 2068TIP3    H127695   5.225   3.863  14.392  0.4310  1.8459 -1.2723
 2068TIP3    H227696   5.075   3.851  14.406  0.7115 -0.2854  0.3383
 2069TIP3   OH227697   1.827   5.490   5.523 -0.5534  0.0400  0.3498
 2069TIP3    H127698   1.837   5.424   5.592 -1.3008 -1.0673 -0.5649
 2069TIP3    H227699   1.737   5.479   5.493  0.4755 -1.3102 -2.5683
 2070TIP3   OH227700   4.194   5.961   1.412 -0.1258  0.2665  0.2318
 2070TIP3    H127701   4.222   5.920   1.331  2.2204 -0.7550  1.4495
 2070TIP3    H227702   4.113   5.916   1.436 -0.2220 -0.2045 -0.9404
 2071TIP3   OH227703   1.800   1.259  16.760  0.2949  0.3555 -0.1488
 2071TIP3    H127704   1.811   1.354  16.760  1.5439  0.2387  0.5082
 2071TIP3    H227705   1.823   1.231  16.671 -0.2820  0.6761 -0.4034
 2072TIP3   OH227706   4.631   1.297   4.393 -0.1093  0.1446  0.4496
 2072TIP3    H127707   4.584   1.310   4.475 -0.7352 -0.8897  0.2773
 2072TIP3    H227708   4.584   1.226   4.349  0.4535  0.4092 -0.6228
 2073TIP3   OH227709   5.828   6.780   2.259 -0.4395  0.0170 -0.0836
 2073TIP3    H127710   5.804   6.837   2.332 -0.0339  0.5896 -0.3878
 2073TIP3    H227711   5.839   6.839   2.184 -0.0244 -0.4576 -0.4118
 2074TIP3   OH227712   3.644   6.469  16.566 -0.1450 -0.2255 -0.2538
 2074TIP3    H127713   3.646   6.533  16.494 -0.1974  0.0438 -0.0133
 2074TIP3    H227714   3.692   6.511  16.637  0.9673 -0.9826 -0.5342
 2075TIP3   OH227715   1.126   1.465   5.861  0.0486 -0.0437  0.0705
 2075TIP3    H127716   1.142   1.406   5.935 -0.5190  0.3018  0.4751
 2075TIP3    H227717   1.064   1.417   5.806  1.5796 -0.9286 -0.9535
 2076TIP3   OH227718   0.435   2.401   5.837 -0.4686 -0.4009  0.2646
 2076TIP3    H127719   0.480   2.323   5.805  2.0452  0.8599  0.4483
 2076TIP3    H227720   0.444   2.464   5.765 -1.2246  0.1648  0.6583
 2077TIP3   OH227721   2.142   4.928  13.140  0.2412  0.2250  0.0441
 2077TIP3    H127722   2.237   4.928  13.151  0.6365  0.0907 -2.6136
 2077TIP3    H227723   2.123   5.008  13.091 -0.9862  0.1401  0.3480
 2078TIP3   OH227724   1.942   4.445   1.443 -0.1581 -0.0832 -0.1622
 2078TIP3    H127725   1.960   4.519   1.501  0.7678 -0.4190  0.0055
 2078TIP3    H227726   1.937   4.370   1.502  0.9603 -0.4533 -0.5197
 2079TIP3   OH227727   5.700   3.992  11.900 -0.0324  0.1696 -0.6307
 2079TIP3    H127728   5.617   4.015  11.942 -1.4890 -2.9910 -1.4857
 2079TIP3    H227729   5.683   4.003  11.806  0.4533 -0.6203 -0.8150
 2080TIP3   OH227730   5.693   6.436  13.320  0.9406  0.3719 -1.0498
 2080TIP3    H127731   5.722   6.392  13.400  0.3192 -1.3512 -1.7165
 2080TIP3    H227732   5.598   6.430  13.323  0.9327 -1.7427 -2.9244
 2081TIP3   OH227733   4.431   3.855   4.462  0.0446 -0.8368  0.2677
 2081TIP3    H127734   4.512   3.853   4.513  0.1748  1.2595  0.2471
 2081TIP3    H227735   4.406   3.948   4.460 -2.3094 -1.3989  0.1754
 2082TIP3   OH227736   0.126   1.112  13.279  0.7857  0.3981 -0.0540
 2082TIP3    H127737   0.115   1.203  13.308 -0.5132  0.1806  0.1645
 2082TIP3    H227738   0.213   1.111  13.237  0.5209  1.9148 -0.7066
 2083TIP3   OH227739   1.407   2.371   1.105 -0.0587  0.5627 -0.3651
 2083TIP3    H127740   1.319   2.346   1.133  0.2051  0.5615  0.5137
 2083TIP3    H227741   1.451   2.288   1.086 -0.2788  0.5699 -0.9089
 2084TIP3   OH227742   1.686   0.516   2.286  0.5115 -0.4444 -0.4953
 2084TIP3    H127743   1.626   0.568   2.232  0.0153 -0.2189  0.2471
 2084TIP3    H227744   1.642   0.432   2.297 -0.2960  0.1319  1.0698
 2085TIP3   OH227745   1.887   4.031  16.616 -0.1416  0.1402 -0.0899
 2085TIP3    H127746   1.978   4.012  16.596 -0.2628  1.6324 -2.3344
 2085TIP3    H227747   1.836   3.976  16.556 -0.7438 -0.5455  1.0120
 2086TIP3   OH227748   6.379   6.102   4.524  0.0425  0.6910  0.1335
 2086TIP3    H127749   6.441   6.074   4.456 -0.9713  0.0548 -0.5802
 2086TIP3    H227750   6.421   6.078   4.606  0.2638 -0.7938 -0.3745
 2087TIP3   OH227751   3.896   1.460  13.937  0.2976  0.4089 -0.3353
 2087TIP3    H127752   3.853   1.545  13.952  0.0703  0.4260 -1.0483
 2087TIP3    H227753   3.934   1.468  13.850 -0.3813 -0.4934 -0.7228
 2088TIP3   OH227754   0.489   5.501  11.428  0.0053 -0.4855 -0.1141
 2088TIP3    H127755   0.562   5.547  11.387  1.1360 -1.5140  0.6548
 2088TIP3    H227756   0.424   5.492  11.359 -1.3994  4.3061  0.2743
 2089TIP3   OH227757   1.141   5.732   4.763  0.4822 -0.1056  0.6016
 2089TIP3    H127758   1.109   5.771   4.682  0.8079  0.3574  0.6905
 2089TIP3    H227759   1.178   5.806   4.812 -0.3893 -0.2502  1.5044
 2090TIP3   OH227760   0.596   5.424   6.528  0.4347  0.2210 -0.3321
 2090TIP3    H127761   0.667   5.475   6.488  0.1596 -0.1676 -1.3555
 2090TIP3    H227762   0.528   5.422   6.460 -0.2060 -0.1346  0.3136
 2091TIP3   OH227763   6.122   4.983   1.218 -0.2659  0.4053 -0.4348
 2091TIP3    H127764   6.161   4.954   1.301 -1.4175  0.1875  0.0478
 2091TIP3    H227765   6.194   5.027   1.173  0.1128  1.5226  1.1622
 2092TIP3   OH227766   2.768   2.383  15.822 -0.1189 -0.0775 -0.0794
 2092TIP3    H127767   2.721   2.398  15.740 -0.7150 -1.5150 -0.0347
 2092TIP3    H227768   2.835   2.318  15.799  2.9296  2.9406 -0.4841
 2093TIP3   OH227769   0.982   2.353  10.672 -0.8312 -0.1040  0.3155
 2093TIP3    H127770   0.916   2.348  10.603 -1.8658  0.1884  1.2452
 2093TIP3    H227771   1.004   2.262  10.691  1.1262 -0.1769 -1.8783
 2094TIP3   OH227772   0.427   5.682  13.286  0.3715 -0.0069 -0.3993
 2094TIP3    H127773   0.432   5.758  13.345 -0.9666  0.7527 -1.2059
 2094TIP3    H227774   0.423   5.720  13.198  0.7727 -1.0658 -0.8885
 2095TIP3   OH227775   6.313   0.626  17.178  0.0637 -0.1053  0.2059
 2095TIP3    H127776   6.222   0.637  17.151  0.0049  0.2804  0.5619
 2095TIP3    H227777   6.340   0.713  17.207  0.4479 -0.2880  0.4012
 2096TIP3   OH227778   5.317   2.534  17.283  0.7439  0.3241 -0.4709
 2096TIP3    H127779   5.242   2.531  17.342 -0.1236 -0.8474 -1.5780
 2096TIP3    H227780   5.321   2.625  17.254  0.5587  0.6833  0.5864
 2097TIP3   OH227781   2.405   6.382  11.905 -0.4060  0.4417 -0.5632
 2097TIP3    H127782   2.458   6.303  11.911  0.6603  1.0236 -1.6745
 2097TIP3    H227783   2.445   6.443  11.967  1.5437  1.5390 -2.7327
 2098TIP3   OH227784   3.788   1.794   3.590  0.0296  0.1737 -0.0816
 2098TIP3    H127785   3.787   1.757   3.502 -2.5897 -2.5306  0.9417
 2098TIP3    H227786   3.722   1.863   3.588 -0.0478  0.0952 -0.2108
 2099TIP3   OH227787   3.736   6.800   1.439  0.3037  0.0068  0.5554
 2099TIP3    H127788   3.702   6.802   1.528  0.7543  4.3942  0.8226
 2099TIP3    H227789   3.829   6.781   1.449  0.4083  0.7812  1.0721
 2100TIP3   OH227790   5.108   1.340  14.123 -0.1963  0.3812  0.0289
 2100TIP3    H127791   5.203   1.351  14.130 -0.0167 -0.9466 -0.1346
 2100TIP3    H227792   5.087   1.269  14.184 -0.7226 -0.9857 -1.6567
 2101TIP3   OH227793   5.021   5.409  13.316  0.1306  0.1839 -0.3489
 2101TIP3    H127794   5.071   5.408  13.234  2.2171  0.5484  0.8254
 2101TIP3    H227795   5.056   5.336  13.367 -0.5348  0.4533  0.5318
 2102TIP3   OH227796   1.758   1.695  15.062  0.1873 -0.3966 -0.0089
 2102TIP3    H127797   1.717   1.610  15.077 -1.2253  0.3027  0.2762
 2102TIP3    H227798   1.849   1.683  15.090  0.6315 -2.4040 -2.0388
 2103TIP3   OH227799   3.138   3.816  16.234 -0.0558  0.7788 -0.0980
 2103TIP3    H127800   3.165   3.861  16.314  0.5128  0.3287 -0.0401
 2103TIP3    H227801   3.168   3.726  16.244  2.0477  1.2182 -1.7806
 2104TIP3   OH227802   1.950   4.890   2.149 -0.0787 -0.0364  0.2245
 2104TIP3    H127803   1.933   4.871   2.057 -0.0938  0.0686  0.2061
 2104TIP3    H227804   1.979   4.981   2.150 -1.4156  0.4001  0.4835
 2105TIP3   OH227805   3.906   4.940   3.723  0.3534 -0.4944 -0.1306
 2105TIP3    H127806   3.844   4.960   3.794  2.8407  0.0975  2.0290
 2105TIP3    H227807   3.958   4.867   3.756 -0.3585 -2.2999 -2.7074
 2106TIP3   OH227808   2.169   5.601   5.527 -0.4668  0.3632  0.1405
 2106TIP3    H127809   2.234   5.531   5.525 -0.9071 -0.0662  0.5416
 2106TIP3    H227810   2.218   5.680   5.510  0.2436  0.1021  0.9147
 2107TIP3   OH227811   5.106   4.070   6.192  0.8243 -0.1158 -0.2212
 2107TIP3    H127812   5.101   3.977   6.211 -1.2980 -0.1227 -0.5836
 2107TIP3    H227813   5.186   4.079   6.140  0.2147 -2.0367 -1.6298
 2108TIP3   OH227814   0.714   4.495   5.765 -0.0931 -0.0761 -0.3863
 2108TIP3    H127815   0.667   4.472   5.845 -0.0909 -1.1190 -0.6730
 2108TIP3    H227816   0.668   4.573   5.732 -0.2610  0.1963  0.4764
 2109TIP3   OH227817   6.080   3.291   2.905 -0.4898 -0.4833 -0.9395
 2109TIP3    H127818   6.034   3.220   2.861 -0.2714 -0.1912 -1.6456
 2109TIP3    H227819   6.051   3.285   2.996 -1.8684 -0.3534 -1.3434
 2110TIP3   OH227820   5.304   3.581  10.648 -0.4817  0.4921 -0.4894
 2110TIP3    H127821   5.334   3.630  10.725 -2.2915 -0.0378  0.6181
 2110TIP3    H227822   5.334   3.632  10.574 -0.9905  2.4951  0.6040
 2111TIP3   OH227823   0.691   6.733  14.811  0.4224  0.2953 -0.9045
 2111TIP3    H127824   0.762   6.740  14.747 -0.4610  0.3279 -1.8957
 2111TIP3    H227825   0.611   6.742  14.760 -0.2955  0.9927  0.3005
 2112TIP3   OH227826   1.652   5.908  12.988 -0.1088  0.1286  0.3622
 2112TIP3    H127827   1.605   5.983  12.949  1.7672  1.7675  1.0846
 2112TIP3    H227828   1.742   5.938  12.995  0.8847 -2.5399 -0.0110
 2113TIP3   OH227829   4.789   3.060  10.942  0.6520  0.0237 -0.2535
 2113TIP3    H127830   4.807   3.127  11.008 -1.8069  1.0101 -0.4726
 2113TIP3    H227831   4.847   3.082  10.869 -0.2449  2.1024 -0.4042
 2114TIP3   OH227832   2.522   2.975   4.626  0.1237 -0.3930 -0.0826
 2114TIP3    H127833   2.498   3.029   4.552  0.9006  0.9713  0.6233
 2114TIP3    H227834   2.439   2.960   4.673 -0.2054 -0.4168 -0.6651
 2115TIP3   OH227835   1.362   4.101  15.924 -0.1420 -1.0251  0.0117
 2115TIP3    H127836   1.432   4.165  15.933 -0.9249 -0.2216  0.5819
 2115TIP3    H227837   1.407   4.017  15.912  0.9467 -0.8086  2.1224
 2116TIP3   OH227838   6.457   4.546   3.139  0.9727  0.0492  0.1023
 2116TIP3    H127839   6.446   4.593   3.222 -3.2036 -3.0617  1.7087
 2116TIP3    H227840   6.406   4.597   3.076 -0.6519 -0.3828  0.9843
 2117TIP3   OH227841   4.563   2.460   0.790  0.2894  0.0927 -0.5919
 2117TIP3    H127842   4.599   2.379   0.754 -3.4582 -1.2525 -1.7208
 2117TIP3    H227843   4.573   2.450   0.885  1.5030 -0.8273 -0.7875
 2118TIP3   OH227844   6.367   2.055   3.652 -0.8806 -0.1105  0.2623
 2118TIP3    H127845   6.376   2.148   3.629  0.1290 -0.1614  0.4201
 2118TIP3    H227846   6.329   2.056   3.740  1.5966  0.2374  1.4030
 2119TIP3   OH227847   3.792   1.103   5.842  0.1972 -0.0819 -0.3312
 2119TIP3    H127848   3.738   1.182   5.840 -1.0153 -0.8931 -1.6377
 2119TIP3    H227849   3.744   1.041   5.896 -0.1034 -0.7469 -1.3388
 2120TIP3   OH227850   5.374   1.399  12.646  0.3513 -0.2548 -0.3967
 2120TIP3    H127851   5.329   1.321  12.614 -0.4908 -0.4613  1.1972
 2120TIP3    H227852   5.467   1.381  12.632  0.1769 -1.5967  0.0414
 2121TIP3   OH227853   4.770   5.364  15.710  0.5391 -1.0005  0.7573
 2121TIP3    H127854   4.767   5.460  15.717  0.8910 -1.0350  1.4607
 2121TIP3    H227855   4.721   5.333  15.785 -0.5962 -1.3774 -0.1186
 2122TIP3   OH227856   3.634   0.600   0.733  0.7641  0.2741 -0.0891
 2122TIP3    H127857   3.636   0.618   0.827 -0.7703  0.4933 -0.0704
 2122TIP3    H227858   3.614   0.506   0.728  0.0190  0.4355 -0.1913
 2123TIP3   OH227859   6.091   4.644  16.712 -1.0742  0.2306 -0.3800
 2123TIP3    H127860   6.164   4.599  16.754 -0.8235  0.0215 -1.0279
 2123TIP3    H227861   6.108   4.635  16.618 -1.7307  0.5089 -0.5316
 2124TIP3   OH227862   3.012   2.242   3.692  0.1521  0.3161 -0.1161
 2124TIP3    H127863   3.059   2.284   3.621 -0.3403 -0.9570 -1.2450
 2124TIP3    H227864   2.949   2.308   3.722 -0.6215  0.4035 -1.8497
 2125TIP3   OH227865   3.972   1.414  15.091 -0.0374 -0.1552 -0.7490
 2125TIP3    H127866   3.896   1.458  15.055 -1.5934  0.2120  2.5488
 2125TIP3    H227867   4.005   1.474  15.158  1.1698 -1.6777  0.0990
 2126TIP3   OH227868   4.812   2.079  13.919 -0.2602  0.1486  0.2933
 2126TIP3    H127869   4.788   2.047  14.006  1.1615  0.0224  0.6614
 2126TIP3    H227870   4.864   2.008  13.881 -2.5940 -0.7280 -1.5462
 2127TIP3   OH227871   0.816   0.024  15.388 -0.0019 -0.2057 -0.3443
 2127TIP3    H127872   0.865   0.007  15.308 -0.8116 -0.4068 -0.8132
 2127TIP3    H227873   0.825   0.119  15.402 -1.0939  0.1065 -1.5309
 2128TIP3   OH227874   6.618   6.551   1.000 -0.8812 -0.3618 -0.0810
 2128TIP3    H127875   6.598   6.559   1.093 -0.2047  1.0390 -0.0274
 2128TIP3    H227876   6.554   6.607   0.957  0.2014  0.8156 -0.2411
 2129TIP3   OH227877   6.166   1.245   0.244  0.5083 -0.2978  0.3749
 2129TIP3    H127878   6.079   1.245   0.203  1.2724 -0.4864 -1.3016
 2129TIP3    H227879   6.223   1.205   0.180  1.4707 -2.3808  2.3715
 2130TIP3   OH227880   6.251   5.862  17.236 -0.5067 -0.1053 -0.1163
 2130TIP3    H127881   6.332   5.898  17.272 -0.7660  0.0060  0.3738
 2130TIP3    H227882   6.182   5.919  17.271 -0.7893 -0.1409 -0.6031
 2131TIP3   OH227883   0.853   5.290   5.293 -0.1224 -0.1066  0.5809
 2131TIP3    H127884   0.783   5.309   5.231  0.0537  0.0931  0.4431
 2131TIP3    H227885   0.815   5.226   5.353  0.7198 -2.9696 -1.6979
 2132TIP3   OH227886   2.495   4.699   3.757  0.3711 -0.0528 -0.3825
 2132TIP3    H127887   2.462   4.609   3.746 -4.5960  1.3824  0.0857
 2132TIP3    H227888   2.502   4.711   3.852  0.2917  0.2564 -0.4143
 2133TIP3   OH227889   0.388   3.607  11.449  0.2089 -0.1781  0.2099
 2133TIP3    H127890   0.436   3.614  11.366  2.4264 -0.8707  1.3578
 2133TIP3    H227891   0.399   3.693  11.490  0.2455 -0.2623  0.3751
 2134TIP3   OH227892   4.425   2.916   3.424 -0.8687  0.3944 -0.4617
 2134TIP3    H127893   4.403   2.828   3.394  0.8973 -0.2369 -0.0304
 2134TIP3    H227894   4.473   2.902   3.506 -2.1694  1.8691  0.6100
 2135TIP3   OH227895   3.100   5.273  12.319 -0.2586 -0.1307  0.0638
 2135TIP3    H127896   3.138   5.192  12.352  0.5519 -0.3728 -1.4186
 2135TIP3    H227897   3.170   5.338  12.327 -0.5766  0.1978  0.2816
 2136TIP3   OH227898   6.319   2.430   2.614  0.2023 -0.2708  0.0144
 2136TIP3    H127899   6.336   2.479   2.534 -0.6174 -0.3755 -0.2315
 2136TIP3    H227900   6.225   2.440   2.629  0.3435 -0.2661  0.9577
 2137TIP3   OH227901   4.865   2.162   0.465  0.7794  0.7539  0.0775
 2137TIP3    H127902   4.869   2.199   0.377 -1.2901 -1.5241 -1.0953
 2137TIP3    H227903   4.933   2.095   0.465  0.8034  0.7796  0.2099
 2138TIP3   OH227904   0.768   4.039  14.445 -0.5761 -0.2863 -0.4456
 2138TIP3    H127905   0.726   3.962  14.408  0.3724 -0.0027 -2.2301
 2138TIP3    H227906   0.706   4.110  14.430 -0.9908 -0.4913  0.2378
 2139TIP3   OH227907   6.079   1.549   5.166 -0.7087  0.6764  0.7208
 2139TIP3    H127908   6.078   1.569   5.073  0.6831  0.4560  0.6358
 2139TIP3    H227909   6.001   1.592   5.201 -1.1960  0.8413 -0.5144
 2140TIP3   OH227910   1.391   2.620   3.708  0.1709  0.0480 -0.1408
 2140TIP3    H127911   1.356   2.668   3.633 -0.5677 -0.7586 -0.3218
 2140TIP3    H227912   1.334   2.646   3.781 -1.5189 -2.0350 -0.6351
 2141TIP3   OH227913   4.739   5.451   0.545 -0.2660 -0.3654 -0.2619
 2141TIP3    H127914   4.789   5.509   0.488  1.8733 -1.3965  0.4487
 2141TIP3    H227915   4.656   5.438   0.500  0.3212  0.9556 -1.8017
 2142TIP3   OH227916   1.778   4.408   0.824 -0.0891 -0.4577 -0.0343
 2142TIP3    H127917   1.864   4.373   0.847 -1.1491 -3.4827 -0.2927
 2142TIP3    H227918   1.796   4.471   0.754  1.8780 -1.2126 -0.2770
 2143TIP3   OH227919   5.810   5.788   5.189 -0.0953 -0.2527  0.2061
 2143TIP3    H127920   5.840   5.717   5.245 -1.0760 -1.3370 -0.6064
 2143TIP3    H227921   5.765   5.848   5.248  2.4482  0.7965  1.2541
 2144TIP3   OH227922   4.369   3.301  14.262 -0.5182  0.3656  0.4462
 2144TIP3    H127923   4.299   3.290  14.326 -0.5617 -0.4644  0.2683
 2144TIP3    H227924   4.420   3.375  14.295 -1.0797  0.5440  0.9386
 2145TIP3   OH227925   1.949   0.960  14.686 -0.0447 -0.1580  0.1345
 2145TIP3    H127926   1.862   0.923  14.671 -0.5925  1.5597 -1.4037
 2145TIP3    H227927   2.002   0.926  14.615 -0.1980  0.8477 -0.4900
 2146TIP3   OH227928   0.429   5.054   4.816  0.0714  0.3425  0.0960
 2146TIP3    H127929   0.487   4.978   4.810 -0.9932 -0.4348 -0.8265
 2146TIP3    H227930   0.447   5.104   4.737 -1.6246 -0.7548 -1.0326
 2147TIP3   OH227931   0.627   3.264   0.186 -0.2731 -0.1417  0.1592
 2147TIP3    H127932   0.653   3.336   0.244 -0.3195  0.5554 -0.6592
 2147TIP3    H227933   0.708   3.239   0.141 -0.1907 -0.8371  0.6785
 2148TIP3   OH227934   1.782   6.172  16.712  0.3660  0.2566 -0.3930
 2148TIP3    H127935   1.820   6.192  16.627 -0.2732 -0.2502 -0.7976
 2148TIP3    H227936   1.691   6.200  16.706  0.4760  0.8226  0.3498
 2149TIP3   OH227937   6.397   5.588   5.113  0.1721  0.0664  0.0355
 2149TIP3    H127938   6.439   5.526   5.173  0.5565 -0.2165 -0.5183
 2149TIP3    H227939   6.401   5.546   5.028  1.7370  1.4358 -0.6312
 2150TIP3   OH227940   5.575   1.423   3.134 -0.2554  0.4148  0.4953
 2150TIP3    H127941   5.661   1.421   3.091 -1.3248 -1.7840 -1.7952
 2150TIP3    H227942   5.568   1.338   3.177 -1.4481  0.3587  0.2332
 2151TIP3   OH227943   1.236   3.788   0.962  0.2385 -0.8368  0.0535
 2151TIP3    H127944   1.155   3.747   0.994 -0.3668  0.4844  0.2965
 2151TIP3    H227945   1.302   3.764   1.027  0.5159 -3.3615 -1.0118
 2152TIP3   OH227946   5.606   1.768   0.283 -0.1189  0.0390  0.0652
 2152TIP3    H127947   5.609   1.701   0.351 -1.6316 -0.7482 -0.6041
 2152TIP3    H227948   5.696   1.774   0.251  0.0522 -1.6310  0.1915
 2153TIP3   OH227949   0.399   1.502  15.019 -0.1094  0.4936 -0.2973
 2153TIP3    H127950   0.451   1.582  15.013 -3.2373  2.8080  0.2779
 2153TIP3    H227951   0.314   1.527  14.983 -1.6550 -2.1826  1.1796
 2154TIP3   OH227952   2.269   4.292  12.290  0.2443 -0.6151  0.0143
 2154TIP3    H127953   2.230   4.218  12.242 -0.9046  0.5912 -0.9702
 2154TIP3    H227954   2.288   4.357  12.223 -1.0647  0.9916  1.1238
 2155TIP3   OH227955   4.773   4.333   3.236 -0.4044  0.5961  0.1078
 2155TIP3    H127956   4.839   4.342   3.305  0.7586  1.9164 -1.1280
 2155TIP3    H227957   4.734   4.420   3.229 -1.4277  0.1350 -0.0274
 2156TIP3   OH227958   3.979   2.385   1.565 -0.0383  0.1343 -0.1625
 2156TIP3    H127959   3.956   2.475   1.540  0.0763  0.0408 -0.6080
 2156TIP3    H227960   3.938   2.330   1.499  0.3895 -0.1065 -0.2367
 2157TIP3   OH227961   5.319   4.161  14.979  0.1666  0.7279  0.0408
 2157TIP3    H127962   5.245   4.221  14.969  0.4582  0.9271 -1.0623
 2157TIP3    H227963   5.394   4.211  14.946  0.5760  0.0834 -0.0033
 2158TIP3   OH227964   4.676   3.492   3.755 -0.2913 -0.0831 -0.2953
 2158TIP3    H127965   4.672   3.545   3.835  0.7090  1.6061 -1.2836
 2158TIP3    H227966   4.617   3.536   3.694  1.6106  0.8337 -1.5961
 2159TIP3   OH227967   0.936   4.712   1.202 -0.0182 -0.4888 -0.1362
 2159TIP3    H127968   0.884   4.645   1.159  1.9998 -1.9650 -0.4065
 2159TIP3    H227969   1.026   4.692   1.178  0.8987  0.6787  2.0468
 2160TIP3   OH227970   5.668   2.033  15.751 -0.2301 -0.0336 -0.1448
 2160TIP3    H127971   5.589   2.032  15.805 -0.0215  0.2760  0.1638
 2160TIP3    H227972   5.739   2.052  15.812  0.3506 -2.1837 -0.0674
 2161TIP3   OH227973   5.456   6.651   4.578  0.3002 -0.2218 -0.5899
 2161TIP3    H127974   5.410   6.718   4.527 -0.3916 -0.5341 -0.3828
 2161TIP3    H227975   5.401   6.637   4.655  1.1322 -0.0495  0.0517
 2162TIP3   OH227976   6.336   4.518   4.832 -0.4468 -0.1222  0.0240
 2162TIP3    H127977   6.383   4.546   4.910  1.6274 -1.5246 -0.6186
 2162TIP3    H227978   6.257   4.476   4.865 -0.9787  1.6608  1.1868
 2163TIP3   OH227979   6.695   5.216   0.968  0.1266 -1.3389 -0.1716
 2163TIP3    H127980   6.660   5.290   1.016  0.2394 -0.5405 -1.2795
 2163TIP3    H227981   6.784   5.204   1.003  0.4289 -0.3821 -0.5777
 2164TIP3   OH227982   4.584   6.093  12.525 -0.2617  0.0040  0.1962
 2164TIP3    H127983   4.620   6.160  12.468 -0.0562  0.8232  1.2685
 2164TIP3    H227984   4.494   6.121  12.541 -0.1712  0.0411  0.6593
 2165TIP3   OH227985   3.187   4.563   3.422 -0.4475  0.2840  0.1003
 2165TIP3    H127986   3.271   4.525   3.400 -1.4838 -1.4516 -1.0514
 2165TIP3    H227987   3.208   4.632   3.486  1.7089 -0.7551  0.5975
 2166TIP3   OH227988   5.923   3.912  16.590  0.0041 -0.0541 -0.0240
 2166TIP3    H127989   5.859   3.842  16.600  0.0201  0.0597  0.9267
 2166TIP3    H227990   6.004   3.877  16.626 -0.8538  1.6703  4.1344
 2167TIP3   OH227991   3.695   6.282   0.466 -0.3297 -0.1586  0.0786
 2167TIP3    H127992   3.616   6.237   0.437 -0.7431 -0.4048  1.4835
 2167TIP3    H227993   3.674   6.375   0.459 -1.4939 -0.1994  2.2064
 2168TIP3   OH227994   4.235   1.753  13.721 -0.0261 -0.2717 -0.1948
 2168TIP3    H127995   4.318   1.748  13.769 -0.3779 -0.9831  0.3616
 2168TIP3    H227996   4.242   1.833  13.669 -0.4843  1.7616  2.6643
 2169TIP3   OH227997   0.606   5.767   2.758  0.4390 -0.2345 -0.2494
 2169TIP3    H127998   0.664   5.720   2.818  0.0559 -0.3498  0.0282
 2169TIP3    H227999   0.644   5.855   2.752 -0.5443  0.3582  1.6077
 2170TIP3   OH228000   6.299   5.739  13.085 -0.4909 -0.0400 -0.0534
 2170TIP3    H128001   6.367   5.750  13.019 -0.1463  0.3137  0.3553
 2170TIP3    H228002   6.223   5.786  13.049 -0.9274 -1.4653 -1.0694
 2171TIP3   OH228003   5.793   3.872   5.250  0.1912 -0.6560  0.4158
 2171TIP3    H128004   5.792   3.841   5.160 -0.4967 -1.3999  0.6642
 2171TIP3    H228005   5.755   3.959   5.246  1.4610 -0.1077 -0.1973
 2172TIP3   OH228006   6.739   1.475  16.362 -0.2815  0.1553 -0.2619
 2172TIP3    H128007   6.791   1.545  16.400 -0.0002 -0.1164 -0.1431
 2172TIP3    H228008   6.724   1.502  16.272 -0.1892  0.3763 -0.2128
 2173TIP3   OH228009   5.178   5.515   4.933  0.0481  0.0299  0.1030
 2173TIP3    H128010   5.239   5.473   4.995 -0.5240  0.0460  0.6839
 2173TIP3    H228011   5.146   5.592   4.979 -0.5391 -0.0656 -0.1378
 2174TIP3   OH228012   6.403   4.708  12.515 -0.4552 -0.2392  0.2039
 2174TIP3    H128013   6.329   4.670  12.468  0.1011 -0.3483 -0.6087
 2174TIP3    H228014   6.411   4.655  12.595 -1.9815  0.5257  0.9001
 2175TIP3   OH228015   1.697   1.498  15.682 -0.3671  0.3542  0.6868
 2175TIP3    H128016   1.761   1.529  15.746  0.8999 -0.5163 -0.1132
 2175TIP3    H228017   1.659   1.578  15.645  1.2906  0.9401  0.1715
 2176TIP3   OH228018   3.865   1.932  11.900 -0.0772 -0.2674  0.3436
 2176TIP3    H128019   3.799   1.960  11.836 -0.6199 -0.4171  0.8245
 2176TIP3    H228020   3.889   2.012  11.947 -0.5920 -0.3589  0.7749
 2177TIP3   OH228021   5.398   5.616  17.042  0.4540  0.6966 -0.6924
 2177TIP3    H128022   5.310   5.606  17.005 -0.6395 -0.4735  1.9927
 2177TIP3    H228023   5.425   5.527  17.065  1.5210  1.2421  0.3167
 2178TIP3   OH228024   1.921   1.761   3.838  0.2700  0.3788 -0.7356
 2178TIP3    H128025   1.878   1.793   3.758  1.0474  0.7759 -1.0141
 2178TIP3    H228026   2.013   1.785   3.826  0.0900  2.4283  1.2417
 2179TIP3   OH228027   0.406   5.852   5.844  0.2004  0.2125 -0.0538
 2179TIP3    H128028   0.335   5.798   5.810 -0.6733  1.0687  0.3436
 2179TIP3    H228029   0.415   5.923   5.780  1.8782 -0.7764 -0.9958
 2180TIP3   OH228030   6.363   4.662   0.189  0.4885  0.6320  0.0494
 2180TIP3    H128031   6.349   4.587   0.131 -1.8845  0.0546  1.2368
 2180TIP3    H228032   6.317   4.734   0.146 -0.0733  0.5516  0.5020
 2181TIP3   OH228033   4.614   4.515  15.566 -0.2088  0.2979  0.2125
 2181TIP3    H128034   4.543   4.579  15.556 -0.2166  0.4206  0.9760
 2181TIP3    H228035   4.574   4.443  15.614 -0.5430 -0.8678 -1.7409
 2182TIP3   OH228036   5.566   4.145  12.138  0.3715 -0.0887  0.4132
 2182TIP3    H128037   5.544   4.190  12.220 -1.1053 -0.3291  0.1648
 2182TIP3    H228038   5.650   4.103  12.156  0.5191  0.6256  1.4978
 2183TIP3   OH228039   5.454   0.704   3.521  0.4550 -0.3340 -0.4152
 2183TIP3    H128040   5.426   0.659   3.600  0.2456  1.2853  0.4630
 2183TIP3    H228041   5.495   0.635   3.468 -0.9685 -1.8085  0.2985
 2184TIP3   OH228042   0.028   4.436  14.892 -0.3167 -0.4910  0.2788
 2184TIP3    H128043   0.022   4.434  14.987  1.1206  0.8574  0.4511
 2184TIP3    H228044   0.111   4.392  14.872  0.7152  1.4836 -0.1002
 2185TIP3   OH228045   3.591   2.596  16.223  0.1114 -0.2709 -0.2250
 2185TIP3    H128046   3.541   2.643  16.290 -0.2909  0.9021 -1.3130
 2185TIP3    H228047   3.549   2.511  16.217 -0.8314  0.1683 -0.0795
 2186TIP3   OH228048   4.421   3.549   4.959 -0.5096 -0.3066  0.1142
 2186TIP3    H128049   4.416   3.462   4.920  0.7925 -0.3735  0.0533
 2186TIP3    H228050   4.333   3.566   4.991 -0.8489 -1.5292 -0.1179
 2187TIP3   OH228051   2.532   0.063  17.226  0.7700  0.1674 -0.5922
 2187TIP3    H128052   2.577  -0.017  17.254  1.0797  0.0813 -1.3117
 2187TIP3    H228053   2.583   0.133  17.266  0.1247  0.0129  0.5780
 2188TIP3   OH228054   6.406   5.579   2.864 -0.1698  0.2497 -0.3165
 2188TIP3    H128055   6.389   5.490   2.832 -0.2125  0.6939 -1.5981
 2188TIP3    H228056   6.350   5.635   2.810  0.5048  1.1301 -0.1314
 2189TIP3   OH228057   5.377   2.520  12.968 -0.1646 -0.7348  0.3698
 2189TIP3    H128058   5.332   2.563  13.040 -0.3661  0.4394 -0.4323
 2189TIP3    H228059   5.446   2.468  13.010  0.2115  0.5243  1.3686
 2190TIP3   OH228060   1.839   0.978  16.804  0.1329  0.2203 -0.7344
 2190TIP3    H128061   1.830   1.072  16.820  0.8595  0.3453 -1.0106
 2190TIP3    H228062   1.804   0.966  16.716 -0.5892  0.1177 -0.4350
 2191TIP3   OH228063   1.557   4.667  12.630 -0.4911  0.0519 -0.1576
 2191TIP3    H128064   1.577   4.751  12.670 -0.4801 -0.7428  1.5748
 2191TIP3    H228065   1.513   4.617  12.699 -0.2751 -1.4618 -1.0681
 2192TIP3   OH228066   1.074   4.987  12.726 -0.3103 -0.3830  0.2938
 2192TIP3    H128067   1.105   5.039  12.652  1.6596 -1.8394  0.0320
 2192TIP3    H228068   1.123   5.021  12.801 -0.5241 -0.5260  0.4996
 2193TIP3   OH228069   2.995   6.607   2.343 -0.4632  0.2470  0.0170
 2193TIP3    H128070   2.997   6.516   2.312  0.1432 -0.0918  1.0125
 2193TIP3    H228071   2.966   6.601   2.434  2.7719  0.6700  1.1945
 2194TIP3   OH228072   4.090   5.563  16.764  0.1251  0.0432 -0.4057
 2194TIP3    H128073   4.039   5.633  16.723 -0.4702 -1.1187 -1.7390
 2194TIP3    H228074   4.136   5.606  16.837 -0.9029  1.6143 -0.6341
 2195TIP3   OH228075   4.229   4.302  12.541 -0.1474  0.3035 -0.0092
 2195TIP3    H128076   4.200   4.213  12.519 -0.4744  0.5861 -0.7293
 2195TIP3    H228077   4.148   4.351  12.554 -0.1528  1.4618 -3.4203
 2196TIP3   OH228078   0.398   4.745   1.418 -0.5863 -0.2672  0.3022
 2196TIP3    H128079   0.489   4.737   1.390 -0.6420 -1.1216  0.3360
 2196TIP3    H228080   0.355   4.791   1.346 -0.1182  0.1824  0.3070
 2197TIP3   OH228081   5.031   1.700   4.470  0.2857  0.1873 -0.4921
 2197TIP3    H128082   5.019   1.766   4.538 -0.7907 -0.6298  0.1388
 2197TIP3    H228083   5.107   1.730   4.420  1.2758  0.6591  1.2368
 2198TIP3   OH228084   3.894   4.669  15.495 -0.0995  0.6510  0.1354
 2198TIP3    H128085   3.817   4.616  15.478 -0.0445  0.2646  1.0716
 2198TIP3    H228086   3.961   4.607  15.523 -0.3087  1.2742  2.1771
 2199TIP3   OH228087   1.059   6.454   5.824  0.6508 -0.0718 -0.2703
 2199TIP3    H128088   1.020   6.374   5.858 -0.3754  1.3491  2.0966
 2199TIP3    H228089   1.149   6.429   5.802 -0.0393 -2.1619 -0.9850
 2200TIP3   OH228090   1.889   1.550   5.517 -0.1429  0.0680 -0.0874
 2200TIP3    H128091   1.856   1.617   5.577  0.0488 -0.3050  0.4471
 2200TIP3    H228092   1.812   1.497   5.496 -0.1913  0.1400 -0.0928
 2201TIP3   OH228093   1.201   5.491   2.753  0.4299  0.1334  0.1343
 2201TIP3    H128094   1.283   5.478   2.802 -0.5481 -0.4535  1.6867
 2201TIP3    H228095   1.175   5.580   2.774  0.2283  0.0250  0.3489
 2202TIP3   OH228096   2.802   2.848   1.242 -0.1403 -0.6828 -0.1359
 2202TIP3    H128097   2.721   2.829   1.195 -0.4248 -0.6445  0.3294
 2202TIP3    H228098   2.835   2.762   1.268 -0.7733 -0.6310  0.8880
 2203TIP3   OH228099   2.499   2.169  14.581  0.4755 -0.1186 -0.1804
 2203TIP3    H128100   2.429   2.170  14.647 -0.6020  0.4927 -1.2814
 2203TIP3    H228101   2.532   2.259  14.581  1.8846 -0.5901  0.9140
 2204TIP3   OH228102   2.999   4.400   5.682 -0.7668 -0.1157 -0.2233
 2204TIP3    H128103   2.911   4.361   5.677 -0.6431 -0.3396 -0.6998
 2204TIP3    H228104   3.058   4.327   5.664 -0.3362 -0.5439  2.4324
 2205TIP3   OH228105   4.568   2.646   5.333 -0.2119  0.0218  0.2593
 2205TIP3    H128106   4.536   2.730   5.364  1.0981  0.2598  1.0672
 2205TIP3    H228107   4.492   2.588   5.338 -1.7507  1.6191 -2.4273
 2206TIP3   OH228108   0.095   1.202   2.888  0.1725 -0.4771  0.7895
 2206TIP3    H128109   0.074   1.253   2.810  2.1351  1.0026  1.1606
 2206TIP3    H228110   0.017   1.149   2.903 -0.8848  0.3902 -1.2156
 2207TIP3   OH228111   0.636   0.539   0.167 -0.2001 -0.1142  0.3375
 2207TIP3    H128112   0.593   0.551   0.252 -0.7428  2.0874 -0.1957
 2207TIP3    H228113   0.705   0.605   0.165  1.0619 -1.3990 -0.2055
 2208TIP3   OH228114   5.001   3.425  13.197 -0.3986 -0.4967 -0.3289
 2208TIP3    H128115   5.091   3.429  13.166 -1.1251  0.6362 -2.4893
 2208TIP3    H228116   4.948   3.418  13.117 -2.3142  0.6814  0.7530
 2209TIP3   OH228117   5.602   2.753   5.669  0.0715 -0.2100 -0.2143
 2209TIP3    H128118   5.555   2.788   5.745 -0.3810 -3.2265  0.9982
 2209TIP3    H228119   5.534   2.716   5.613  0.6885 -1.2635 -0.2924
 2210TIP3   OH228120   1.783   4.427  13.731  0.8163 -0.2092 -0.7757
 2210TIP3    H128121   1.844   4.388  13.792 -0.0159 -0.1447  0.1309
 2210TIP3    H228122   1.788   4.372  13.653  1.1512 -0.9007 -0.2753
 2211TIP3   OH228123   6.783   6.698  13.920 -0.3477 -0.3046  0.4262
 2211TIP3    H128124   6.839   6.621  13.914 -0.6861 -0.5939  0.8973
 2211TIP3    H228125   6.694   6.665  13.908 -0.8524 -0.5612  3.9596
 2212TIP3   OH228126   1.644   3.605   0.483 -0.1801  0.9345 -0.1552
 2212TIP3    H128127   1.633   3.570   0.394 -1.5680  0.8088  0.0401
 2212TIP3    H228128   1.563   3.653   0.499 -0.5894 -0.2315  1.5612
 2213TIP3   OH228129   3.833   5.597  11.084  0.0744 -0.1265  0.0975
 2213TIP3    H128130   3.765   5.604  11.016 -0.1928  4.4076  0.5280
 2213TIP3    H228131   3.915   5.611  11.037  0.0257  1.2861  0.3704
 2214TIP3   OH228132   2.481   4.429   3.799 -0.1028  0.3847  0.6563
 2214TIP3    H128133   2.390   4.402   3.787  0.0175  0.1268  0.3152
 2214TIP3    H228134   2.532   4.367   3.746  0.1157  1.8820 -0.9669
 2215TIP3   OH228135   5.557   2.250   4.808 -0.1698 -0.3385  0.0334
 2215TIP3    H128136   5.633   2.225   4.861 -1.0314 -1.6654  0.7129
 2215TIP3    H228137   5.489   2.271   4.872 -0.5088  0.4466 -0.5652
 2216TIP3   OH228138   3.714   3.155  15.862  0.1808 -0.1209 -0.7860
 2216TIP3    H128139   3.787   3.154  15.925 -0.1813 -0.1303 -0.3589
 2216TIP3    H228140   3.732   3.230  15.806  0.4726 -0.0699 -0.6271
 2217TIP3   OH228141   2.616   4.784   0.540  0.4889  0.3002 -0.5397
 2217TIP3    H128142   2.630   4.789   0.445  1.3659 -0.5446 -0.4802
 2217TIP3    H228143   2.522   4.790   0.551  0.4681  2.0232 -1.3377
 2218TIP3   OH228144   3.122   5.960  14.937  0.0981 -0.2809 -0.3288
 2218TIP3    H128145   3.079   6.030  14.888  0.8982 -0.8939 -2.0001
 2218TIP3    H228146   3.175   5.914  14.872  0.6076 -1.6456  0.9766
 2219TIP3   OH228147   4.620   2.572  11.717  0.0051 -0.2432 -0.5998
 2219TIP3    H128148   4.619   2.667  11.713 -2.5039 -0.0382  1.7183
 2219TIP3    H228149   4.664   2.552  11.800  0.1325 -1.0709 -0.8548
 2220TIP3   OH228150   6.297   0.178   5.503 -0.2834  0.5549 -0.1170
 2220TIP3    H128151   6.203   0.194   5.512 -0.3743 -0.4530  0.8667
 2220TIP3    H228152   6.317   0.113   5.570  1.3953  1.7845  0.6455
 2221TIP3   OH228153   0.719   3.905  16.620 -0.6213 -0.1467 -0.8403
 2221TIP3    H128154   0.800   3.864  16.650  0.7491  1.6774 -1.8641
 2221TIP3    H228155   0.707   3.980  16.678 -1.1569  0.0363 -1.1772
 2222TIP3   OH228156   4.046   2.169  17.003  0.4864 -0.4666 -0.2858
 2222TIP3    H128157   4.022   2.253  17.043  0.7463 -0.8772  0.7705
 2222TIP3    H228158   4.026   2.104  17.070  0.5440 -1.2324 -0.9944
 2223TIP3   OH228159   6.122   6.373   5.140 -0.1691 -0.3728 -0.2425
 2223TIP3    H128160   6.197   6.429   5.159 -0.2865 -0.2826 -0.0514
 2223TIP3    H228161   6.094   6.340   5.225 -0.5504 -0.1497 -0.2822
 2224TIP3   OH228162   1.253   6.390  16.805 -0.0593 -0.2265  0.3625
 2224TIP3    H128163   1.287   6.302  16.820 -1.5445 -0.8758  0.0983
 2224TIP3    H228164   1.158   6.380  16.805 -0.2874  1.5125  1.0876
 2225TIP3   OH228165   4.143   4.760  12.605  0.4707 -0.6907  0.2185
 2225TIP3    H128166   4.079   4.802  12.662 -0.6189  0.7858 -1.9375
 2225TIP3    H228167   4.107   4.770  12.517  2.2880 -2.4280 -0.8102
 2226TIP3   OH228168   2.607   3.276  12.758  0.5519  0.8486 -0.2419
 2226TIP3    H128169   2.674   3.288  12.825 -2.2152  1.0889  2.6998
 2226TIP3    H228170   2.606   3.181  12.742  0.4148  0.6246  1.0161
 2227TIP3   OH228171   0.110   2.270  12.165 -0.5765  0.3032  0.1808
 2227TIP3    H128172   0.111   2.360  12.197  0.1759  1.0027 -1.6650
 2227TIP3    H228173   0.083   2.218  12.240  0.2818  1.9153  1.6800
 2228TIP3   OH228174   4.038   5.581  13.551  0.2013 -0.0803 -0.1095
 2228TIP3    H128175   4.059   5.640  13.623  1.2173 -1.1599  0.5218
 2228TIP3    H228176   4.027   5.638  13.475 -1.6060  1.1539  1.0002
 2229TIP3   OH228177   3.648   3.045   4.279  0.3125  0.3714  0.0218
 2229TIP3    H128178   3.586   3.066   4.349 -0.7154 -0.0218 -0.7477
 2229TIP3    H228179   3.614   3.090   4.202  2.0535  1.7381 -0.0100
 2230TIP3   OH228180   3.560   1.460  16.380  0.2866  0.0342  0.9762
 2230TIP3    H128181   3.498   1.532  16.382  0.8428  0.8393 -2.9977
 2230TIP3    H228182   3.595   1.456  16.470 -2.5714  2.0539  2.3379
 2231TIP3   OH228183   1.621   6.805  13.344  0.2774 -0.1044  0.1814
 2231TIP3    H128184   1.608   6.827  13.251 -0.8752 -2.5812 -0.3221
 2231TIP3    H228185   1.542   6.836  13.387  0.1931 -0.2051  0.0979
 2232TIP3   OH228186   6.478   3.846  15.955 -0.2852  0.6582 -0.0262
 2232TIP3    H128187   6.442   3.910  15.893  0.2876 -0.0741 -1.1296
 2232TIP3    H228188   6.407   3.784  15.968 -0.1134  0.3251 -0.6451
 2233TIP3   OH228189   0.792   2.664   5.880  0.3624  0.3987  0.6690
 2233TIP3    H128190   0.834   2.581   5.901 -0.9965 -0.4440  0.1778
 2233TIP3    H228191   0.751   2.650   5.794  0.2497  1.6261  0.4990
 2234TIP3   OH228192   6.399   5.385  12.646  0.7652  0.5517 -0.1786
 2234TIP3    H128193   6.457   5.309  12.641  0.2136  0.1852 -2.7368
 2234TIP3    H228194   6.449   5.451  12.694  2.8948 -0.1057 -1.3576
 2235TIP3   OH228195   6.604   3.936  13.686  0.0799 -0.1573 -0.0560
 2235TIP3    H128196   6.619   4.023  13.650  0.1954 -0.3487 -0.4649
 2235TIP3    H228197   6.651   3.877  13.629 -0.2858 -0.5270  0.0171
 2236TIP3   OH228198   5.960   0.608  16.164 -0.1060  0.3520 -0.4401
 2236TIP3    H128199   5.868   0.610  16.139 -0.6733  0.7315  1.5027
 2236TIP3    H228200   5.989   0.699  16.157  0.0798  0.2615 -0.8777
 2237TIP3   OH228201   3.580   0.239   3.319 -1.1161 -0.0801  0.4743
 2237TIP3    H128202   3.603   0.316   3.267  0.5072 -0.5023  0.5183
 2237TIP3    H228203   3.592   0.267   3.410  3.3602 -1.3466  0.5150
 2238TIP3   OH228204   6.293   0.026   3.009  0.1252  0.1779  0.4494
 2238TIP3    H128205   6.285   0.026   3.105 -0.0148 -1.3733  0.4522
 2238TIP3    H228206   6.244   0.103   2.982 -0.4223  0.2546  1.5846
 2239TIP3   OH228207   2.009   2.324  15.947  0.5289 -0.3387 -0.0263
 2239TIP3    H128208   2.028   2.408  15.904  1.4477  0.3191  1.5639
 2239TIP3    H228209   1.932   2.291  15.902 -0.4297  1.8155 -0.1029
 2240TIP3   OH228210   6.415   3.251   3.454  0.5648 -0.6229  0.9973
 2240TIP3    H128211   6.485   3.190   3.476  1.7892  0.3145 -0.1214
 2240TIP3    H228212   6.449   3.337   3.481  1.3611  0.3329 -2.4822
 2241TIP3   OH228213   6.187   4.854   4.031  0.0858  0.3155 -0.0111
 2241TIP3    H128214   6.279   4.874   4.017  0.0006  0.9701  0.3218
 2241TIP3    H228215   6.140   4.922   3.983 -0.2125  0.7553  0.8860
 2242TIP3   OH228216   2.627   2.336   5.675  0.2990  0.4691 -0.1067
 2242TIP3    H128217   2.574   2.365   5.601  0.1214 -1.0515 -0.6270
 2242TIP3    H228218   2.575   2.265   5.714  0.5160  1.0610  1.3172
 2243TIP3   OH228219   6.030   0.038   4.981  0.4357 -0.4132 -0.2534
 2243TIP3    H128220   6.109  -0.013   5.001 -1.2285 -2.3565  1.8754
 2243TIP3    H228221   5.969  -0.025   4.945 -0.6431  0.7755 -0.5900
 2244TIP3   OH228222   5.147   6.559   1.822 -0.0520  0.2991  0.3348
 2244TIP3    H128223   5.074   6.614   1.851  0.3670  1.1095 -0.1121
 2244TIP3    H228224   5.113   6.510   1.747 -0.3010  0.2514  0.4782
 2245TIP3   OH228225   5.478   4.296  16.320  0.3370 -0.8834  0.1964
 2245TIP3    H128226   5.526   4.255  16.247 -0.3198 -2.1887  0.4567
 2245TIP3    H228227   5.392   4.254  16.317 -1.0840  1.9049 -0.7124
 2246TIP3   OH228228   6.748   6.474  13.155  0.4669  0.5725 -0.2970
 2246TIP3    H128229   6.704   6.418  13.219 -0.5227  1.3602 -0.2658
 2246TIP3    H228230   6.715   6.562  13.174  0.5121  0.8850 -1.5972
 2247TIP3   OH228231   5.098   1.852  15.597  0.0336  0.5768 -0.5572
 2247TIP3    H128232   5.013   1.809  15.609 -0.2252  1.3226  0.3817
 2247TIP3    H228233   5.110   1.903  15.677  2.0746 -0.6959  0.0159
 2248TIP3   OH228234   5.676   0.872  14.814  0.6393 -0.6793 -0.4577
 2248TIP3    H128235   5.683   0.966  14.794  0.1719 -0.5289  0.0515
 2248TIP3    H228236   5.741   0.857  14.883 -0.2359 -0.4195  0.4569
 2249TIP3   OH228237   3.382   4.036   5.395 -0.5460 -0.2199  0.1423
 2249TIP3    H128238   3.472   4.069   5.395 -1.6959  3.5305  1.4985
 2249TIP3    H228239   3.348   4.059   5.309 -1.4024  2.8842  1.1452
 2250TIP3   OH228240   1.596   3.695   6.127  0.3407  0.2226  0.2770
 2250TIP3    H128241   1.633   3.734   6.206 -0.0225 -1.3380  1.2572
 2250TIP3    H228242   1.646   3.734   6.056 -0.3365  2.8541  1.1202
 2251TIP3   OH228243   3.768   4.574  12.963  0.0976 -0.3008 -0.1261
 2251TIP3    H128244   3.796   4.666  12.962  1.9524 -0.8211  0.3464
 2251TIP3    H228245   3.790   4.543  13.051 -0.6703 -1.1546 -0.2214
 2252TIP3   OH228246   5.752   0.941  16.921 -0.1089 -0.3268 -0.5012
 2252TIP3    H128247   5.671   0.893  16.937 -1.6134  2.1748 -0.1908
 2252TIP3    H228248   5.814   0.874  16.891 -2.6049 -2.1372 -1.9374
 2253TIP3   OH228249   1.350   0.297   6.048  0.0058 -0.2757 -0.4166
 2253TIP3    H128250   1.312   0.384   6.041  0.4672 -0.1202 -1.1255
 2253TIP3    H228251   1.307   0.257   6.124 -1.7732 -0.2264 -1.3444
 2254TIP3   OH228252   4.032   2.352  13.239  0.1163  0.0382  0.3299
 2254TIP3    H128253   3.952   2.298  13.239 -0.3240  0.6651 -0.3830
 2254TIP3    H228254   4.000   2.442  13.230  0.8757  0.3644  0.7859
 2255TIP3   OH228255   4.473   0.816  14.990  0.2272  0.2716 -0.0443
 2255TIP3    H128256   4.527   0.741  15.015  0.5882  0.5290 -0.0535
 2255TIP3    H228257   4.420   0.784  14.917  0.5341  0.0845 -0.1874
 2256TIP3   OH228258   3.969   6.286   0.088 -0.0584 -0.0815  0.7577
 2256TIP3    H128259   4.034   6.354   0.072 -0.2159 -0.3985 -1.5076
 2256TIP3    H228260   3.886   6.334   0.096 -0.1112  0.0656 -0.4561
 2257TIP3   OH228261   2.259   0.384  16.714  0.4353  0.0219 -0.3305
 2257TIP3    H128262   2.288   0.328  16.786 -0.2854 -1.0312 -0.8367
 2257TIP3    H228263   2.323   0.456  16.713  2.3474 -1.5836 -0.6478
 2258TIP3   OH228264   4.552   4.311  16.216 -0.0985 -0.2371  0.1595
 2258TIP3    H128265   4.594   4.295  16.301 -0.5481  0.0518  0.4385
 2258TIP3    H228266   4.474   4.256  16.216 -0.2288 -0.0565  0.0354
 2259TIP3   OH228267   1.375   2.351   4.227  0.4437  0.4453  0.1206
 2259TIP3    H128268   1.280   2.355   4.241  0.3113 -0.6206 -0.3841
 2259TIP3    H228269   1.404   2.441   4.239 -0.6212  0.7729  0.3818
 2260TIP3   OH228270   1.794   2.692  15.911 -0.7411  0.1831  0.0523
 2260TIP3    H128271   1.807   2.638  15.988 -0.3416  0.8601  0.4752
 2260TIP3    H228272   1.772   2.631  15.841 -0.3462 -0.5074  0.5287
 2261TIP3   OH228273   2.479   3.696   6.180  0.4088 -0.2942  0.3887
 2261TIP3    H128274   2.417   3.727   6.246 -0.1172 -0.7617  0.1234
 2261TIP3    H228275   2.564   3.697   6.225 -0.0279 -1.2069  1.2908
 2262TIP3   OH228276   0.935   6.766  16.717  0.0334  0.3537 -0.0726
 2262TIP3    H128277   1.002   6.721  16.767 -1.2197 -0.2915  1.1124
 2262TIP3    H228278   0.890   6.821  16.782  0.2059  1.7499 -1.0850
 2263TIP3   OH228279   5.018   5.188  16.636  0.0069 -0.3560  0.0949
 2263TIP3    H128280   5.093   5.246  16.625 -1.1493  1.0117 -0.9759
 2263TIP3    H228281   4.975   5.220  16.716 -0.6691  0.3445 -0.5324
 2264TIP3   OH228282   3.441   6.094  17.012  0.3372 -0.0219 -0.0511
 2264TIP3    H128283   3.513   6.085  16.950  1.3223 -0.2725  1.0795
 2264TIP3    H228284   3.482   6.081  17.098 -1.4700 -2.9648  0.5196
 2265TIP3   OH228285   4.635   1.847  10.624 -0.4712  0.3982 -0.0863
 2265TIP3    H128286   4.661   1.805  10.706 -0.2130 -1.3027 -0.9895
 2265TIP3    H228287   4.703   1.911  10.606 -0.6587  0.9650  1.1296
 2266TIP3   OH228288   4.325   1.447  11.877 -0.5340 -0.6055  0.0436
 2266TIP3    H128289   4.291   1.536  11.872  0.0730 -0.3154  0.9344
 2266TIP3    H228290   4.248   1.391  11.864 -0.7709  0.0208 -1.5332
 2267TIP3   OH228291   4.467   1.089  15.013  0.6051 -0.5794 -0.6333
 2267TIP3    H128292   4.548   1.111  14.967  0.8560 -0.1027  0.0157
 2267TIP3    H228293   4.470   0.993  15.022  1.0436 -0.5748 -0.7093
 2268TIP3   OH228294   5.593   0.133  15.002  0.1187 -0.1058  0.8631
 2268TIP3    H128295   5.584   0.040  14.982  0.8799  0.1193 -0.6768
 2268TIP3    H228296   5.580   0.139  15.096  3.6328 -2.2818  1.6452
 2269TIP3   OH228297   1.180   0.390  15.587  0.1592  0.2861 -0.2596
 2269TIP3    H128298   1.274   0.408  15.589  0.1020  1.0447 -2.4301
 2269TIP3    H228299   1.139   0.476  15.599 -0.2852 -0.0589  0.8111
 2270TIP3   OH228300   0.096   6.768   1.167 -0.3293  0.1546  0.3264
 2270TIP3    H128301   0.068   6.822   1.241  1.0351 -0.2878  1.2157
 2270TIP3    H228302   0.172   6.720   1.201 -0.2154 -0.7151 -1.1055
 2271TIP3   OH228303   1.224   5.314  13.270 -0.2132  0.5487  0.2159
 2271TIP3    H128304   1.290   5.364  13.221 -0.1575 -0.0775 -0.3595
 2271TIP3    H228305   1.183   5.379  13.327  1.0513  0.9126  0.7591
 2272TIP3   OH228306   4.778   0.280  15.399  0.9343  0.2036  0.7206
 2272TIP3    H128307   4.687   0.303  15.415  0.9307  1.7660 -1.1111
 2272TIP3    H228308   4.785   0.274  15.303  3.1768  2.1627  0.6715
 2273TIP3   OH228309   0.417   1.050   2.993  0.4512  0.0621  0.5305
 2273TIP3    H128310   0.383   1.056   2.904  0.2254  0.1985  0.6254
 2273TIP3    H228311   0.511   1.034   2.982  0.1915 -1.4011  0.2648
 2274TIP3   OH228312   6.512   5.409  14.327 -0.2006  0.5058 -0.5047
 2274TIP3    H128313   6.464   5.465  14.266  0.8996  1.4293 -0.5638
 2274TIP3    H228314   6.466   5.419  14.410 -0.2550  1.1775 -0.6141
 2275TIP3   OH228315   3.731   6.101  15.281 -0.3480 -0.1062 -0.3547
 2275TIP3    H128316   3.770   6.111  15.194  0.9637 -0.7259  0.1230
 2275TIP3    H228317   3.638   6.089  15.265 -0.1810  0.1639 -1.6471
 2276TIP3   OH228318   3.403   4.915   4.207  0.3462 -0.2329  0.0376
 2276TIP3    H128319   3.331   4.944   4.151  0.0950 -0.5279  0.2037
 2276TIP3    H228320   3.360   4.877   4.283  0.6587 -1.2551 -0.2800
 2277TIP3   OH228321   0.720   1.889   5.658 -0.0983  0.3269 -0.0238
 2277TIP3    H128322   0.796   1.915   5.710  0.7793  1.6766 -1.8856
 2277TIP3    H228323   0.659   1.962   5.667 -0.6780 -0.2146  0.4900
 2278TIP3   OH228324   0.716   5.195  15.203 -0.2481  0.3040 -0.4762
 2278TIP3    H128325   0.804   5.159  15.191  0.2271  1.5605 -0.9299
 2278TIP3    H228326   0.661   5.118  15.220  0.7726 -0.6032 -1.0981
 2279TIP3   OH228327   0.527   5.456   5.351 -0.6182  0.2519 -0.5723
 2279TIP3    H128328   0.460   5.396   5.386 -1.3581  0.9121 -0.8138
 2279TIP3    H228329   0.477   5.517   5.297  0.2622  0.4564 -1.1655
 2280TIP3   OH228330   4.794   4.437   3.756  0.3752  0.1832 -0.2839
 2280TIP3    H128331   4.746   4.518   3.746 -1.3715 -0.5597  1.5199
 2280TIP3    H228332   4.871   4.460   3.808 -0.5905  0.5554  1.0164
 2281TIP3   OH228333   6.725   6.564  10.391  0.3970 -0.3556 -0.3760
 2281TIP3    H128334   6.669   6.591  10.464  0.9211 -1.2302  0.3720
 2281TIP3    H228335   6.760   6.479  10.417 -1.1303 -1.7880 -2.6013
 2282TIP3   OH228336   1.795   5.976   0.306 -0.5273  0.3440 -0.3296
 2282TIP3    H128337   1.856   6.049   0.300 -0.2567 -0.0270 -3.0827
 2282TIP3    H228338   1.851   5.899   0.315 -0.6911  0.1996 -0.5412
 2283TIP3   OH228339   5.637   1.140  14.743  0.7867  0.2260  0.6891
 2283TIP3    H128340   5.668   1.228  14.764  2.2591 -0.3861  1.1911
 2283TIP3    H228341   5.644   1.134  14.648 -1.2344  1.3171  0.4322
 2284TIP3   OH228342   5.548   2.566  11.792  0.0611 -0.6229 -0.0585
 2284TIP3    H128343   5.599   2.643  11.817  0.5601 -0.3104 -1.8731
 2284TIP3    H228344   5.493   2.596  11.720 -1.5706 -1.3701  0.8093
 2285TIP3   OH228345   3.684   4.986   0.730  0.2247 -0.1297 -0.1423
 2285TIP3    H128346   3.595   4.950   0.739  0.0824  0.1462 -0.3917
 2285TIP3    H228347   3.722   4.979   0.817 -0.1490  0.0134  0.0390
 2286TIP3   OH228348   6.537   1.943   4.631 -0.0222  0.0923  0.1343
 2286TIP3    H128349   6.602   1.872   4.639  0.4497  0.4930 -0.0874
 2286TIP3    H228350   6.511   1.961   4.721  1.5833  1.2063  0.4185
 2287TIP3   OH228351   3.297   6.639  12.022  0.2102  0.3299 -0.1243
 2287TIP3    H128352   3.225   6.700  12.007 -2.2432 -2.3446 -0.1575
 2287TIP3    H228353   3.340   6.631  11.937  0.0806  1.3981 -0.2999
 2288TIP3   OH228354   2.503   0.847  15.130  0.6110 -0.4205  0.4249
 2288TIP3    H128355   2.477   0.936  15.152  0.2464 -0.3878 -0.1090
 2288TIP3    H228356   2.541   0.853  15.043 -0.2367 -0.9169  0.0085
 2289TIP3   OH228357   1.338   5.086   3.982  0.1366 -0.5752  0.4696
 2289TIP3    H128358   1.327   5.147   3.910  1.8053 -0.8992 -0.0907
 2289TIP3    H228359   1.400   5.021   3.949  1.1831 -0.5601  2.2891
 2290TIP3   OH228360   6.028   2.958   5.116  0.1112  0.1532  0.1110
 2290TIP3    H128361   5.995   3.036   5.071 -0.4822 -1.7610 -3.0467
 2290TIP3    H228362   6.118   2.950   5.087  0.6062  0.3184  1.5013
 2291TIP3   OH228363   4.913   4.219   4.345 -0.0503 -0.2834  0.1531
 2291TIP3    H128364   4.979   4.179   4.402 -0.5006 -0.8687  0.2751
 2291TIP3    H228365   4.956   4.225   4.260  0.3465 -0.1543  0.3572
 2292TIP3   OH228366   3.053   3.462  13.224 -0.2327 -0.1107  0.5527
 2292TIP3    H128367   3.016   3.374  13.223 -0.6344  0.0503  0.8699
 2292TIP3    H228368   3.118   3.461  13.154  0.3913 -0.9153  1.1248
 2293TIP3   OH228369   2.392   3.223  13.246  0.1426  0.1659  0.6520
 2293TIP3    H128370   2.427   3.291  13.303  1.1225 -0.9539  1.4205
 2293TIP3    H228371   2.468   3.171  13.221 -0.3442  0.2747 -1.2466
 2294TIP3   OH228372   5.723   3.546   5.052  0.0207 -0.3022 -0.2648
 2294TIP3    H128373   5.668   3.536   5.130  0.2559 -0.0509 -0.0657
 2294TIP3    H228374   5.772   3.626   5.067  0.7626 -0.7483 -0.2371
 2295TIP3   OH228375   5.346   3.496  16.729  0.2789  0.0256  0.2644
 2295TIP3    H128376   5.328   3.422  16.671  2.7135 -0.3219 -0.1167
 2295TIP3    H228377   5.270   3.498  16.787  0.7077 -3.6560  1.2164
 2296TIP3   OH228378   6.348   0.141  12.178 -0.3168 -0.4855 -0.1743
 2296TIP3    H128379   6.394   0.073  12.228 -0.4442 -0.1890  0.3471
 2296TIP3    H228380   6.306   0.093  12.107 -0.8712 -1.0365  0.5094
 2297TIP3   OH228381   5.879   6.346   3.248  0.4507 -0.0580 -0.2014
 2297TIP3    H128382   5.785   6.338   3.238  0.6234 -2.6168 -0.6013
 2297TIP3    H228383   5.915   6.288   3.179  2.2217 -0.8747  1.3189
 2298TIP3   OH228384   0.417   5.490  15.653 -0.1910  0.2124  0.2365
 2298TIP3    H128385   0.356   5.479  15.725 -1.3635  0.8060 -0.6317
 2298TIP3    H228386   0.386   5.429  15.586 -0.7350  1.5606 -0.7703
 2299TIP3   OH228387   2.337   4.538   5.063 -0.3304  0.1888 -0.1746
 2299TIP3    H128388   2.280   4.569   5.133  0.6013  0.2417  0.5720
 2299TIP3    H228389   2.303   4.451   5.042  0.4839 -0.6114  1.6326
 2300TIP3   OH228390   4.763   3.470  13.382  0.3040  0.2514 -0.2154
 2300TIP3    H128391   4.831   3.451  13.318 -0.0581  1.7626 -1.0918
 2300TIP3    H228392   4.716   3.387  13.393  0.7060 -0.1582 -1.5004
 2301TIP3   OH228393   4.899   0.595   5.883 -0.2865 -0.0485 -0.5365
 2301TIP3    H128394   4.817   0.643   5.879 -1.0805 -1.1981  0.9841
 2301TIP3    H228395   4.951   0.630   5.811 -2.4208  0.1196 -2.0668
 2302TIP3   OH228396   3.221   4.060  16.528 -0.2944  0.1879 -0.3087
 2302TIP3    H128397   3.164   4.108  16.588  1.0208 -1.2597  2.2565
 2302TIP3    H228398   3.194   3.969  16.537  1.8172 -0.4247  0.3431
 2303TIP3   OH228399   5.558   0.294  12.631  0.2641 -0.2005 -0.0411
 2303TIP3    H128400   5.609   0.240  12.692 -2.1396 -2.7694 -0.1125
 2303TIP3    H228401   5.492   0.336  12.686  0.5958  0.7998 -0.3685
 2304TIP3   OH228402   0.458   3.283   0.461  0.1322  0.2202  0.0742
 2304TIP3    H128403   0.462   3.366   0.413 -0.2820 -1.4219 -3.0956
 2304TIP3    H228404   0.364   3.264   0.466  0.1418  0.5376  2.0198
 2305TIP3   OH228405   1.535   5.394   0.232  0.5136  0.1044 -0.3009
 2305TIP3    H128406   1.594   5.386   0.157  1.4260 -0.2143  0.4411
 2305TIP3    H228407   1.510   5.304   0.252  0.1560  0.2005 -0.3092
 2306TIP3   OH228408   6.011   1.398  13.283 -0.1258  0.0681  0.5434
 2306TIP3    H128409   5.920   1.404  13.313 -0.3684 -1.1834  0.0988
 2306TIP3    H228410   6.029   1.485  13.245 -2.1615 -0.5128 -2.1158
 2307TIP3   OH228411   0.501   2.735  14.290  0.0431  0.8211  0.1560
 2307TIP3    H128412   0.416   2.739  14.246 -1.0565  0.6041  2.1311
 2307TIP3    H228413   0.524   2.826  14.306 -0.3319  0.8519  0.5321
 2308TIP3   OH228414   6.228   2.023   5.211  0.1567  0.1326 -0.0432
 2308TIP3    H128415   6.170   2.056   5.279  1.0324 -0.2323  0.9133
 2308TIP3    H228416   6.269   1.946   5.250  1.6710  0.6804 -0.4644
 2309TIP3   OH228417   5.550   4.673  12.708  0.2260  0.3055  0.2655
 2309TIP3    H128418   5.613   4.619  12.756  0.3151  0.1290 -0.0483
 2309TIP3    H228419   5.564   4.762  12.741  2.1828  0.6772 -1.3501
 2310TIP3   OH228420   5.124   0.498  16.459 -0.9296  0.0791  0.5810
 2310TIP3    H128421   5.096   0.589  16.465 -0.2153  0.3674 -0.1577
 2310TIP3    H228422   5.130   0.481  16.365  0.0851 -0.3543  0.7088
 2311TIP3   OH228423   2.101   1.526   2.968 -0.0621 -0.0379 -0.2576
 2311TIP3    H128424   2.016   1.504   3.006 -1.4175 -0.1039 -3.0964
 2311TIP3    H228425   2.147   1.443   2.962 -1.1373 -0.5590 -1.6934
 2312TIP3   OH228426   1.553   2.766  12.364 -0.2425  0.3302  0.0612
 2312TIP3    H128427   1.486   2.747  12.298  0.3219 -0.1318 -0.3935
 2312TIP3    H228428   1.628   2.798  12.313 -0.5721  2.2025  0.6740
 2313TIP3   OH228429   5.708   0.349  11.965 -0.1150 -0.2156  0.2885
 2313TIP3    H128430   5.748   0.302  12.038  2.4150 -1.5623 -1.8010
 2313TIP3    H228431   5.744   0.438  11.971  0.3446 -0.4136  0.5069
 2314TIP3   OH228432   5.770   4.601   2.457 -0.4230 -0.0038 -0.5315
 2314TIP3    H128433   5.814   4.518   2.473 -0.4577 -0.1625 -1.2285
 2314TIP3    H228434   5.828   4.648   2.397 -0.5155  0.3753 -0.3254
 2315TIP3   OH228435   1.231   6.668  16.854 -0.4420  0.0667  0.1564
 2315TIP3    H128436   1.230   6.577  16.884  0.8910  0.8061  2.7236
 2315TIP3    H228437   1.160   6.710  16.903  1.0764  1.0647  1.6239
 2316TIP3   OH228438   1.602   1.697  12.953 -0.2496  0.0433 -0.5329
 2316TIP3    H128439   1.672   1.761  12.940  0.9842 -1.3545 -1.0014
 2316TIP3    H228440   1.521   1.749  12.952  0.7417  1.6467 -0.3102
 2317TIP3   OH228441   5.896   2.235   0.983 -0.3144  0.3724 -0.1221
 2317TIP3    H128442   5.866   2.289   0.910  0.8874  0.9015 -0.2403
 2317TIP3    H228443   5.943   2.163   0.942  0.3646  0.6699  0.1158
 2318TIP3   OH228444   5.839   4.536   3.606 -0.1767 -0.3002 -0.2723
 2318TIP3    H128445   5.754   4.537   3.562  0.1472  0.2004 -0.9048
 2318TIP3    H228446   5.898   4.579   3.544  0.7974 -1.6942 -0.3734
 2319TIP3   OH228447   1.186   2.222   4.042 -0.8623 -0.2906 -0.4758
 2319TIP3    H128448   1.105   2.273   4.039  0.8171  2.7869  1.5345
 2319TIP3    H228449   1.175   2.164   4.118 -1.5195 -0.6459 -0.8263
 2320TIP3   OH228450   3.879   6.628  12.617 -0.2093 -0.0864 -0.4198
 2320TIP3    H128451   3.852   6.539  12.640  0.1264 -0.4218 -1.3005
 2320TIP3    H228452   3.872   6.632  12.522 -1.2558  1.1686 -0.3265
 2321TIP3   OH228453   4.158   4.381  13.226  0.4252  0.1435  0.0045
 2321TIP3    H128454   4.252   4.396  13.238  0.3968 -0.7737  1.6868
 2321TIP3    H228455   4.116   4.456  13.268  0.3522  1.4503 -2.2162
 2322TIP3   OH228456   0.558   2.924   3.780  0.1685  0.3921 -0.4718
 2322TIP3    H128457   0.571   3.017   3.797  1.3454 -0.0346  1.2420
 2322TIP3    H228458   0.474   2.903   3.821 -0.2645  0.7516 -1.1610
 2323TIP3   OH228459   5.526   5.093  13.129 -0.0682  0.1202  0.0037
 2323TIP3    H128460   5.451   5.151  13.118 -0.3757 -0.4313 -0.9539
 2323TIP3    H228461   5.602   5.151  13.120 -0.3309  0.1444 -2.9290
 2324TIP3   OH228462   0.689   4.371   1.471 -0.5726  0.5203  0.3480
 2324TIP3    H128463   0.742   4.436   1.517 -0.1787 -0.2628  1.0392
 2324TIP3    H228464   0.752   4.310   1.433 -0.9431 -0.5300  1.3341
 2325TIP3   OH228465   6.584   3.006   2.494  0.6904 -0.2791 -0.6939
 2325TIP3    H128466   6.587   3.096   2.526  0.0306 -0.1149 -1.0600
 2325TIP3    H228467   6.667   2.994   2.448  0.5593  0.3322 -1.1081
 2326TIP3   OH228468   5.248   3.247   1.343  0.1016 -0.6933  0.0277
 2326TIP3    H128469   5.276   3.157   1.359 -0.2531 -0.7326  0.4435
 2326TIP3    H228470   5.261   3.260   1.249  2.6838 -0.3134  0.3621
 2327TIP3   OH228471   2.438   4.668  17.258  0.2292  0.4542 -0.1435
 2327TIP3    H128472   2.451   4.680  17.353 -2.5309  0.6949  0.2819
 2327TIP3    H228473   2.392   4.584  17.251 -0.3990  0.8686 -1.1655
 2328TIP3   OH228474   2.284   6.710   2.085 -0.1014 -0.2112 -0.2834
 2328TIP3    H128475   2.251   6.620   2.078 -0.7903  0.1237 -1.7737
 2328TIP3    H228476   2.358   6.714   2.024 -0.7907  0.5151 -1.1049
 2329TIP3   OH228477   1.992   3.537   6.681  0.3878 -0.2616  0.5158
 2329TIP3    H128478   1.992   3.612   6.621 -2.2954  0.3409  1.1409
 2329TIP3    H228479   1.975   3.462   6.624  1.4686 -0.2331  0.1096
 2330TIP3   OH228480   4.429   5.298  15.111  0.1456  0.0799 -0.1130
 2330TIP3    H128481   4.482   5.364  15.155  0.7392 -0.6911  0.3504
 2330TIP3    H228482   4.490   5.253  15.053 -0.2295 -0.1378 -0.3450
 2331TIP3   OH228483   2.929   5.738   4.945  0.4780  0.1470  0.1879
 2331TIP3    H128484   2.989   5.689   4.888 -0.4522  0.0359 -0.7421
 2331TIP3    H228485   2.848   5.744   4.894  0.0013  1.1142  1.0223
 2332TIP3   OH228486   3.980   1.245  16.258  0.6781  0.0329  0.1289
 2332TIP3    H128487   4.008   1.191  16.184  0.4429  0.4229 -0.2531
 2332TIP3    H228488   3.900   1.289  16.227  3.6582  5.0057 -1.7418
 2333TIP3   OH228489   1.526   2.118   2.359 -0.2433 -0.4610  0.7055
 2333TIP3    H128490   1.605   2.170   2.374 -0.2969 -0.4577  0.9759
 2333TIP3    H228491   1.467   2.142   2.431  0.0585 -1.5318  1.3406
 2334TIP3   OH228492   2.082   1.872  15.546 -1.0305  0.2025 -0.2791
 2334TIP3    H128493   2.139   1.811  15.591  0.0150  0.6079 -1.0239
 2334TIP3    H228494   1.994   1.835  15.557 -0.7567 -0.0018  1.5680
 2335TIP3   OH228495   4.165   2.891  13.609  0.1013 -0.4347 -0.0943
 2335TIP3    H128496   4.181   2.843  13.691 -1.0104 -1.3601 -0.3944
 2335TIP3    H228497   4.089   2.946  13.628  1.7669  1.8145  0.4585
 2336TIP3   OH228498   5.287   2.002  16.947 -0.4375  0.0846  0.1178
 2336TIP3    H128499   5.243   2.032  17.026 -1.5376 -2.2979  0.4854
 2336TIP3    H228500   5.348   1.935  16.977  1.8339  1.6519 -0.6840
 2337TIP3   OH228501   0.448   2.502   3.649 -0.3230 -0.1112  0.1632
 2337TIP3    H128502   0.535   2.465   3.636 -0.1234  0.1666  0.6686
 2337TIP3    H228503   0.394   2.427   3.674 -0.2028 -0.2631 -0.0286
 2338TIP3   OH228504   3.534   0.413   4.388  0.0549 -0.3790 -0.0802
 2338TIP3    H128505   3.448   0.430   4.425 -0.1640  1.3252 -1.2738
 2338TIP3    H228506   3.594   0.464   4.442  0.2070 -0.7798  0.1376
 2339TIP3   OH228507   0.980   3.995   1.870  0.2312  0.6015 -0.5244
 2339TIP3    H128508   0.952   4.084   1.891 -0.1658  1.2177 -3.3230
 2339TIP3    H228509   0.956   3.983   1.779  1.4873 -1.9226 -0.6038
 2340TIP3   OH228510   0.815   2.524  11.005  0.3710 -0.0913 -0.5746
 2340TIP3    H128511   0.726   2.555  10.986  0.3888 -0.6848 -1.7911
 2340TIP3    H228512   0.802   2.438  11.045  0.3835 -0.4975 -1.4079
 2341TIP3   OH228513   1.610   4.319   5.893  0.2029 -0.2347 -0.0572
 2341TIP3    H128514   1.641   4.273   5.816  0.5044 -0.6370  0.3041
 2341TIP3    H228515   1.612   4.412   5.868 -1.1376 -0.4460 -1.0526
 2342TIP3   OH228516   1.231   3.998   2.547  0.1467  0.5778  0.2768
 2342TIP3    H128517   1.178   4.056   2.601  1.7685  1.8796  0.5544
 2342TIP3    H228518   1.289   4.056   2.498 -0.0084 -0.6839 -1.4945
 2343TIP3   OH228519   0.661   3.983  15.203 -0.5940  0.5398 -0.1566
 2343TIP3    H128520   0.729   4.044  15.176  0.1505 -0.6862 -1.1320
 2343TIP3    H228521   0.644   3.930  15.126 -0.6377 -1.0212  0.8815
 2344TIP3   OH228522   0.594   3.718  12.923  0.1542  0.0359  0.3297
 2344TIP3    H128523   0.669   3.776  12.907  1.1925 -1.8049 -2.3487
 2344TIP3    H228524   0.628   3.650  12.981 -0.3183  0.7352  1.4379
 2345TIP3   OH228525   2.739   5.760  11.847 -0.5291  0.1801  0.4097
 2345TIP3    H128526   2.691   5.684  11.817 -0.5961 -1.1614  3.5353
 2345TIP3    H228527   2.791   5.787  11.772 -1.7867 -1.8809 -1.3065
 2346TIP3   OH228528   4.128   6.787  12.582  0.1286 -0.5894  0.0451
 2346TIP3    H128529   4.042   6.745  12.586  0.7332 -1.9049 -0.1081
 2346TIP3    H228530   4.148   6.809  12.673 -0.6356  0.3248  0.0068
 2347TIP3   OH228531   0.362   4.724  13.629  0.4053  0.4159  0.6926
 2347TIP3    H128532   0.329   4.801  13.676  1.4090  0.1326  1.9106
 2347TIP3    H228533   0.310   4.651  13.663  0.7338  0.2941  0.9382
 2348TIP3   OH228534   1.449   3.350   6.021  0.1073  0.0785  0.1123
 2348TIP3    H128535   1.409   3.312   5.942 -0.3526  0.9041 -0.0612
 2348TIP3    H228536   1.440   3.444   6.009 -1.2633  0.2007  1.8072
 2349TIP3   OH228537   4.330   4.976  12.301  0.2382 -0.3608  0.4871
 2349TIP3    H128538   4.295   5.057  12.339  0.5431 -0.1892  0.4016
 2349TIP3    H228539   4.405   5.004  12.249 -0.6962 -0.4818 -0.9893
 2350TIP3   OH228540   0.931   6.576   0.102 -0.5451 -0.0498 -0.4521
 2350TIP3    H128541   0.928   6.541   0.191  1.5189  0.8454  0.0155
 2350TIP3    H228542   0.990   6.518   0.055  0.7678  1.1930 -0.3938
 2351TIP3   OH228543   2.999   4.353   0.108 -0.3091  0.4861 -0.1081
 2351TIP3    H128544   2.974   4.438   0.145 -0.7163 -0.5685  2.1734
 2351TIP3    H228545   3.066   4.320   0.168 -1.4590 -1.6078  0.0841
 2352TIP3   OH228546   3.698   5.336  11.169 -0.0076 -1.0184 -0.0763
 2352TIP3    H128547   3.612   5.304  11.196  0.5138 -1.6071  0.9221
 2352TIP3    H228548   3.694   5.336  11.073 -2.0608  1.5695 -0.1062
 2353TIP3   OH228549   6.236   1.479   1.075  0.0082  0.0804  0.0432
 2353TIP3    H128550   6.167   1.417   1.098 -0.3161  0.4226  0.0055
 2353TIP3    H228551   6.260   1.519   1.159  1.0905 -0.9698  0.2667
 2354TIP3   OH228552   2.554   0.083  12.621 -0.2381 -0.5888 -0.1495
 2354TIP3    H128553   2.632   0.044  12.580 -0.4403 -1.6493  0.4237
 2354TIP3    H228554   2.487   0.078  12.554 -0.3616 -1.6111  0.0330
 2355TIP3   OH228555   6.586   4.378   1.070 -0.3649 -0.0997  0.1112
 2355TIP3    H128556   6.625   4.290   1.069  0.6683  0.3292 -1.8492
 2355TIP3    H228557   6.532   4.379   1.149  1.7522 -1.5410  1.7050
 2356TIP3   OH228558   0.496   1.577  16.119 -0.3850 -0.1765  0.0645
 2356TIP3    H128559   0.569   1.620  16.075  0.6723  0.4316  2.2755
 2356TIP3    H228560   0.521   1.485  16.123  0.1237 -0.0232  0.5159
 2357TIP3   OH228561   2.773   4.508  11.297  0.0753  0.1098 -0.0762
 2357TIP3    H128562   2.863   4.480  11.280 -0.5145 -2.1421  0.2276
 2357TIP3    H228563   2.720   4.460  11.233 -1.0044  0.8250  0.2447
 2358TIP3   OH228564   6.049   4.868   5.132 -0.2980 -0.0187  0.1887
 2358TIP3    H128565   6.035   4.790   5.186 -2.1724 -0.2916 -0.5888
 2358TIP3    H228566   6.005   4.938   5.180  0.3297  0.3004  0.2987
 2359TIP3   OH228567   1.793   4.594   0.607  0.4641 -0.0365  0.0036
 2359TIP3    H128568   1.798   4.675   0.658 -0.3238  0.3697 -0.5440
 2359TIP3    H228569   1.732   4.614   0.536  1.6945 -0.5096 -1.2438
 2360TIP3   OH228570   3.438   4.868   0.817 -0.3047 -0.2422  0.1964
 2360TIP3    H128571   3.360   4.921   0.834 -0.2599 -0.5487  1.4424
 2360TIP3    H228572   3.427   4.791   0.874 -0.7075 -1.9380 -2.0306
 2361TIP3   OH228573   4.733   0.888   4.838  0.5023 -0.1761 -0.2302
 2361TIP3    H128574   4.700   0.935   4.762  0.2616  1.7231  1.0014
 2361TIP3    H228575   4.751   0.799   4.805 -2.2827 -0.2584 -1.8184
 2362TIP3   OH228576   0.606   2.635   6.078 -0.0557 -0.4088  0.1986
 2362TIP3    H128577   0.575   2.560   6.027 -0.2485 -0.1809 -0.0236
 2362TIP3    H228578   0.670   2.678   6.021  0.4666 -0.7127  0.5427
 2363TIP3   OH228579   2.476   5.938   4.546  0.5062 -0.0944 -0.4753
 2363TIP3    H128580   2.407   5.931   4.613 -0.0473  1.4647 -0.8212
 2363TIP3    H228581   2.519   5.853   4.546 -1.3913 -1.1066 -0.1939
 2364TIP3   OH228582   2.538   1.423  15.556  0.4699  0.4595 -0.3020
 2364TIP3    H128583   2.484   1.344  15.558  2.2196 -0.7856  0.8797
 2364TIP3    H228584   2.511   1.473  15.633  1.8137 -0.8124  1.0724
 2365TIP3   OH228585   2.779   4.390   2.216 -0.1007  0.0121 -0.1791
 2365TIP3    H128586   2.699   4.436   2.191 -0.0949  0.1232  0.0050
 2365TIP3    H228587   2.753   4.331   2.286 -0.1174 -0.3038 -0.4478
 2366TIP3   OH228588   2.415   3.067  12.037  0.0106  0.3031  0.1173
 2366TIP3    H128589   2.411   3.060  11.941 -2.4529  1.1794  0.0878
 2366TIP3    H228590   2.343   3.012  12.068  0.7607  0.0493  1.4908
 2367TIP3   OH228591   0.402   1.145  16.189 -0.0782  0.1753  0.1630
 2367TIP3    H128592   0.406   1.101  16.274  0.1543  0.3539  0.2447
 2367TIP3    H228593   0.308   1.152  16.171 -0.1152 -0.3415  0.1535
 2368TIP3   OH228594   2.622   6.249  12.847  0.1627  0.3406  0.2306
 2368TIP3    H128595   2.562   6.177  12.830 -0.0336  0.7616 -0.9691
 2368TIP3    H228596   2.635   6.248  12.942 -1.9266  0.3846  0.5673
 2369TIP3   OH228597   1.618   0.759   0.381 -0.0169  0.0078 -0.1691
 2369TIP3    H128598   1.683   0.778   0.313  0.5341 -1.8188 -0.2170
 2369TIP3    H228599   1.576   0.677   0.352 -0.7650 -0.0424  0.9852
 2370TIP3   OH228600   3.637   2.141   3.825  1.0497  0.8404 -0.3380
 2370TIP3    H128601   3.693   2.113   3.898  0.9032 -0.8505 -0.8272
 2370TIP3    H228602   3.559   2.087   3.832  0.3618  1.7346 -0.8691
 2371TIP3   OH228603   5.570   5.513   2.790  0.2891 -0.4925  0.1543
 2371TIP3    H128604   5.641   5.578   2.792  0.1212 -0.2887 -0.3083
 2371TIP3    H228605   5.544   5.509   2.698 -0.9903  0.2040  0.4446
 2372TIP3   OH228606   4.420   5.610   0.109  0.1298 -0.2471 -0.1595
 2372TIP3    H128607   4.504   5.566   0.098 -0.2572 -1.0293 -0.0382
 2372TIP3    H228608   4.443   5.702   0.124  0.9190 -0.2833 -1.0524
 2373TIP3   OH228609   1.542   1.923  11.979 -0.0659  0.2801  0.0111
 2373TIP3    H128610   1.602   1.870  12.032 -0.3320 -1.6160 -1.4575
 2373TIP3    H228611   1.590   1.940  11.898 -1.1220 -0.4415 -0.7922
 2374TIP3   OH228612   2.148   0.992  15.141  0.1227 -0.2074  0.3648
 2374TIP3    H128613   2.240   1.007  15.123  0.2141  0.0407  1.0453
 2374TIP3    H228614   2.102   1.040  15.071  0.5160 -1.4855 -0.8203
 2375TIP3   OH228615   5.602   3.719  14.735 -0.2792 -0.4442 -0.0570
 2375TIP3    H128616   5.506   3.717  14.733 -0.2780 -0.6762 -1.7898
 2375TIP3    H228617   5.628   3.627  14.732 -0.0081 -0.3609 -0.3137
 2376TIP3   OH228618   3.825   1.750  12.629  0.5749  0.0574 -0.3996
 2376TIP3    H128619   3.891   1.721  12.566  0.6875  0.3675 -0.4234
 2376TIP3    H228620   3.844   1.843  12.643  0.6463 -0.0374  0.1973
 2377TIP3   OH228621   6.292   1.303   1.418 -0.1354  0.1952 -0.6282
 2377TIP3    H128622   6.386   1.287   1.421 -0.3272 -1.2155 -1.2619
 2377TIP3    H228623   6.282   1.373   1.354  0.4659  0.1331 -0.7996
 2378TIP3   OH228624   3.110   6.727  15.900 -0.3548 -0.9232 -0.5045
 2378TIP3    H128625   3.113   6.771  15.985 -0.2379  0.1176 -1.0334
 2378TIP3    H228626   3.054   6.783  15.846  0.2176 -1.1553 -1.3494
 2379TIP3   OH228627   5.509   6.359   3.606 -0.6251  0.1875  0.0816
 2379TIP3    H128628   5.478   6.271   3.585 -1.3373  0.2479  0.8680
 2379TIP3    H228629   5.430   6.408   3.630 -0.2238  1.0150 -0.2340
 2380TIP3   OH228630   5.050   0.404  11.405 -0.0861  0.7293 -0.3443
 2380TIP3    H128631   4.988   0.437  11.471 -1.1050 -0.2789 -0.7576
 2380TIP3    H228632   5.101   0.481  11.379  2.5261  0.7056  3.8026
 2381TIP3   OH228633   0.606   5.586   0.214 -0.1531 -0.1931  0.2580
 2381TIP3    H128634   0.569   5.672   0.196  0.5420  0.3406  1.2945
 2381TIP3    H228635   0.540   5.524   0.182 -0.5473  0.7117 -0.7235
 2382TIP3   OH228636   0.479   4.735  16.605  0.4698  0.0626 -0.0986
 2382TIP3    H128637   0.440   4.656  16.568  0.8314 -0.0300 -0.2906
 2382TIP3    H228638   0.565   4.742  16.562  0.0429  1.1077 -0.8138
 2383TIP3   OH228639   5.168   2.655  12.064 -0.1113 -0.2336  0.2896
 2383TIP3    H128640   5.237   2.710  12.028 -0.4670  1.7886  2.4655
 2383TIP3    H228641   5.194   2.566  12.042  0.4152  0.6969 -3.5153
 2384TIP3   OH228642   1.654   2.459  12.066 -0.2585  0.4863 -0.1386
 2384TIP3    H128643   1.575   2.421  12.105  0.1163  1.6398  1.9061
 2384TIP3    H228644   1.638   2.553  12.066 -0.1694  0.5947 -2.8187
 2385TIP3   OH228645   5.125   5.106  15.207  0.0559  0.3937  0.3953
 2385TIP3    H128646   5.096   5.116  15.116  1.1764  0.0887 -0.0198
 2385TIP3    H228647   5.070   5.165  15.257 -1.5905 -0.5150 -0.2732
 2386TIP3   OH228648   3.799   4.529  13.244  0.1401  0.3426  0.8212
 2386TIP3    H128649   3.751   4.459  13.289 -0.1897 -0.7981 -1.1687
 2386TIP3    H228650   3.737   4.601  13.237  0.5423  0.9767  3.0650
 2387TIP3   OH228651   2.870   1.207   0.106  0.5977  0.4197 -0.6737
 2387TIP3    H128652   2.945   1.230   0.160  1.2141  0.3191 -1.4637
 2387TIP3    H228653   2.887   1.248   0.021 -1.3496  2.3433 -0.2316
 2388TIP3   OH228654   4.794   3.019   5.789 -0.1813 -0.6348  0.3884
 2388TIP3    H128655   4.747   2.990   5.711 -0.3346  1.2897 -0.2759
 2388TIP3    H228656   4.869   2.959   5.796 -1.1149 -1.8964 -0.2228
 2389TIP3   OH228657   2.464   4.607  13.789  0.2537 -0.1047 -0.0294
 2389TIP3    H128658   2.382   4.610  13.839 -0.4748 -1.6407 -1.0391
 2389TIP3    H228659   2.487   4.514  13.788  1.1885  0.1254 -1.0536
 2390TIP3   OH228660   5.349   3.022   2.564 -0.2708  0.1246 -0.1626
 2390TIP3    H128661   5.330   2.955   2.629 -2.9708 -0.1071 -1.0696
 2390TIP3    H228662   5.359   2.974   2.482  1.9990  0.5121 -0.1655
 2391TIP3   OH228663   6.401   5.380  16.240 -0.3649  0.1661  0.4473
 2391TIP3    H128664   6.455   5.409  16.314 -0.9060  1.6116  0.2962
 2391TIP3    H228665   6.392   5.457  16.185  1.3182 -1.2310 -1.9865
 2392TIP3   OH228666   4.832   3.555   5.118  0.4352 -0.1893  0.5981
 2392TIP3    H128667   4.842   3.478   5.174 -3.6697 -0.6190  1.0710
 2392TIP3    H228668   4.776   3.526   5.046  0.9278  1.7689 -0.6842
 2393TIP3   OH228669   2.108   5.797   6.099 -0.1021  0.4874 -0.0256
 2393TIP3    H128670   2.181   5.764   6.151  1.3279  0.7327 -1.8005
 2393TIP3    H228671   2.092   5.885   6.133  0.3257  0.3833  0.4550
 2394TIP3   OH228672   3.752   3.662  13.738 -0.1362  0.2183  0.3198
 2394TIP3    H128673   3.768   3.627  13.651  0.7705  0.3002  0.4423
 2394TIP3    H228674   3.789   3.750  13.736 -0.9533  0.5844  0.5089
 2395TIP3   OH228675   1.835   5.515  16.846 -0.2334 -0.7422 -0.1899
 2395TIP3    H128676   1.929   5.503  16.831  0.1711  1.7369 -0.0727
 2395TIP3    H228677   1.819   5.478  16.932 -0.0419 -3.8319 -1.3490
 2396TIP3   OH228678   3.037   4.374   6.178 -0.1202  0.2368  0.1070
 2396TIP3    H128679   2.985   4.419   6.111  0.3562 -0.1293 -0.5256
 2396TIP3    H228680   3.021   4.424   6.258 -2.4845 -0.6231  0.2643
 2397TIP3   OH228681   2.847   0.238  14.932  0.2369 -0.0677  1.1257
 2397TIP3    H128682   2.793   0.291  14.991 -0.5542 -0.5019  0.8206
 2397TIP3    H228683   2.867   0.295  14.859  0.9723  0.3819  1.6637
 2398TIP3   OH228684   4.211   1.718  12.823 -0.0582  0.0302 -0.1936
 2398TIP3    H128685   4.237   1.673  12.903  1.3556 -0.0174 -0.6607
 2398TIP3    H228686   4.225   1.811  12.842 -0.4915  0.0870 -0.1267
 2399TIP3   OH228687   1.105   4.982   5.736 -0.0172  0.2711 -0.2891
 2399TIP3    H128688   1.101   5.040   5.812 -3.2279 -0.3051  0.1523
 2399TIP3    H228689   1.132   5.039   5.664 -0.1743  1.6345  0.6879
 2400TIP3   OH228690   0.246   1.889  15.986 -0.2075  0.5797 -0.4902
 2400TIP3    H128691   0.171   1.949  15.982 -0.8595 -0.2916 -1.6410
 2400TIP3    H228692   0.318   1.939  15.948 -0.6520  0.7846 -1.0759
 2401TIP3   OH228693   3.073   3.666   0.071  0.4133 -0.3705 -0.4235
 2401TIP3    H128694   3.111   3.581   0.093  2.2919  0.5052 -0.1339
 2401TIP3    H228695   3.066   3.665  -0.024  0.9226 -0.6444 -0.4609
 2402TIP3   OH228696   6.591   5.479   0.076  0.0955  0.7094 -0.1192
 2402TIP3    H128697   6.637   5.480  -0.008  0.2795  1.5931 -0.0126
 2402TIP3    H228698   6.515   5.423   0.060  0.5192  0.2739 -0.6600
 2403TIP3   OH228699   5.451   5.490   4.828  0.2680 -0.1671 -0.1785
 2403TIP3    H128700   5.358   5.506   4.843  0.3908  0.7100 -0.2689
 2403TIP3    H228701   5.495   5.567   4.866  0.9374 -0.4751 -0.3083
 2404TIP3   OH228702   6.542   3.204   3.775  0.6627  0.2267  0.4623
 2404TIP3    H128703   6.544   3.298   3.763  0.4250  0.1976  0.1981
 2404TIP3    H228704   6.518   3.192   3.867 -1.8926  0.4070 -0.1246
 2405TIP3   OH228705   6.339   4.788  14.207 -0.2531  0.0663  0.1664
 2405TIP3    H128706   6.314   4.809  14.297 -0.6229 -0.3993  0.1730
 2405TIP3    H228707   6.261   4.808  14.155 -0.7792 -1.7193  0.2302
 2406TIP3   OH228708   2.356   4.879   6.201 -0.4733 -0.8272 -0.0502
 2406TIP3    H128709   2.371   4.786   6.188  0.3362 -0.5835 -0.9807
 2406TIP3    H228710   2.436   4.921   6.169 -0.6006  0.1559  0.8630
 2407TIP3   OH228711   1.161   4.370  13.600  0.0788  0.0087  0.3166
 2407TIP3    H128712   1.204   4.294  13.561  0.0352 -0.4476  1.1334
 2407TIP3    H228713   1.115   4.335  13.676 -2.0172  0.4058 -0.6718
 2408TIP3   OH228714   1.449   6.119   1.328  0.3704 -0.0666  0.1819
 2408TIP3    H128715   1.403   6.039   1.351  1.0048 -0.2229  0.9736
 2408TIP3    H228716   1.541   6.093   1.324  0.6413  0.7130  0.9572
 2409TIP3   OH228717   0.504   2.682  16.911 -0.1481 -0.4029  0.1476
 2409TIP3    H128718   0.598   2.692  16.897 -0.2161  1.0381  0.6232
 2409TIP3    H228719   0.480   2.756  16.967 -1.4202 -1.2157  0.7125
 2410TIP3   OH228720   4.913   3.232   0.563  0.9059  0.4067  0.6488
 2410TIP3    H128721   4.900   3.139   0.577 -2.4729  0.7884  0.9919
 2410TIP3    H228722   5.003   3.240   0.533  1.7366 -2.7728  1.9430
 2411TIP3   OH228723   4.431   1.751   4.542 -0.6603  0.0481 -0.3747
 2411TIP3    H128724   4.474   1.675   4.502  0.4412 -0.0877  0.9768
 2411TIP3    H228725   4.470   1.826   4.497  0.7733 -0.0910  0.5650
 2412TIP3   OH228726   1.809   2.566  13.740  0.3222 -0.0264  0.0350
 2412TIP3    H128727   1.852   2.639  13.695  0.5491  0.1223  0.4920
 2412TIP3    H228728   1.716   2.579  13.722  0.5270 -1.1476 -2.1744
 2413TIP3   OH228729   0.916   0.396  12.432 -0.0522  0.2093  0.0639
 2413TIP3    H128730   1.008   0.412  12.411 -0.3523  2.8064  0.4361
 2413TIP3    H228731   0.899   0.307  12.402  1.8301  0.6586 -2.5803
 2414TIP3   OH228732   4.908   3.460  13.636  0.2854 -0.0869  0.5693
 2414TIP3    H128733   4.822   3.418  13.631 -0.3002  0.9345  1.4410
 2414TIP3    H228734   4.924   3.493  13.548  0.6862 -1.9411 -0.0907
 2415TIP3   OH228735   1.229   4.105   5.647  0.0731  0.3180  0.0325
 2415TIP3    H128736   1.137   4.126   5.628 -0.0516  0.4106  0.6896
 2415TIP3    H228737   1.247   4.026   5.596 -0.5017  0.0618  0.2130
 2416TIP3   OH228738   6.690   4.734   5.821 -0.3843 -0.0914  0.0001
 2416TIP3    H128739   6.662   4.653   5.780  0.2102 -0.3952  0.1748
 2416TIP3    H228740   6.640   4.739   5.903 -2.7608  1.3133 -1.4265
 2417TIP3   OH228741   5.976   1.414  12.977 -0.3464 -0.3590 -0.0860
 2417TIP3    H128742   5.977   1.502  13.015  0.7010 -0.6830  0.6755
 2417TIP3    H228743   5.891   1.378  13.002 -0.4522  0.1422  0.2951
 2418TIP3   OH228744   1.955   4.639  13.505 -0.4901  0.4430  0.2954
 2418TIP3    H128745   2.026   4.578  13.486 -0.2107  0.4023  1.4334
 2418TIP3    H228746   1.927   4.670  13.419  0.9966  0.5718 -0.1675
 2419TIP3   OH228747   5.788   0.162  15.625  0.1545 -0.1914  0.2082
 2419TIP3    H128748   5.829   0.145  15.540  0.9462 -0.1598  0.5756
 2419TIP3    H228749   5.718   0.096  15.632  0.4527 -0.5579 -0.2166
 2420TIP3   OH228750   3.743   4.318   4.375 -0.0592 -0.0053 -0.1929
 2420TIP3    H128751   3.817   4.276   4.419  1.1619  2.1773 -0.0560
 2420TIP3    H228752   3.729   4.399   4.423 -2.7045 -0.4170 -0.1101
 2421TIP3   OH228753   4.967   6.655  16.384  0.4068 -0.2434  0.2829
 2421TIP3    H128754   5.045   6.700  16.417  1.0523 -0.7325 -0.5213
 2421TIP3    H228755   4.963   6.573  16.435  2.7706 -2.1488 -2.2714
 2422TIP3   OH228756   1.918   1.434   4.639 -0.1565  0.2699  0.1141
 2422TIP3    H128757   1.993   1.414   4.583  0.6497  0.0881  1.2190
 2422TIP3    H228758   1.936   1.386   4.720 -0.5468  1.6850  1.0759
 2423TIP3   OH228759   5.401   2.802  11.629  0.0666 -0.1425 -0.1129
 2423TIP3    H128760   5.364   2.890  11.622 -0.5467 -0.4636 -1.0550
 2423TIP3    H228761   5.465   2.797  11.557  1.4870  0.1633  1.0699
 2424TIP3   OH228762   2.682   6.222  14.834 -0.0709 -0.0956 -0.4637
 2424TIP3    H128763   2.730   6.247  14.914  0.7139  0.0196 -0.9576
 2424TIP3    H228764   2.601   6.272  14.838  0.5743  0.9790 -0.4087
 2425TIP3   OH228765   3.369   6.505   0.149  0.0668 -0.5389  0.1069
 2425TIP3    H128766   3.389   6.464   0.233 -0.8459 -0.6382  0.2845
 2425TIP3    H228767   3.285   6.549   0.163 -0.5253 -1.2795 -0.9899
 2426TIP3   OH228768   5.806   0.470   0.413  0.3039  0.4743 -0.6213
 2426TIP3    H128769   5.742   0.411   0.453  1.0443 -1.3070 -1.9453
 2426TIP3    H228770   5.880   0.470   0.474 -1.0005  2.9405  1.1773
 2427TIP3   OH228771   6.407   4.666  13.137 -0.2678 -0.0285  0.1060
 2427TIP3    H128772   6.381   4.628  13.053 -1.0890 -0.3354  0.4871
 2427TIP3    H228773   6.325   4.676  13.185  0.1785  0.2746  0.8222
 2428TIP3   OH228774   2.311   3.841   4.938 -0.5768  0.2539  0.1687
 2428TIP3    H128775   2.217   3.848   4.955 -0.8940 -1.0046 -0.9432
 2428TIP3    H228776   2.321   3.865   4.845  0.2437  0.6087  0.3315
 2429TIP3   OH228777   3.226   2.508  17.157 -0.0916  0.0964  0.1871
 2429TIP3    H128778   3.248   2.550  17.240  1.1277  0.2661 -0.2118
 2429TIP3    H228779   3.307   2.508  17.107 -0.4644 -1.2386 -0.4774
 2430TIP3   OH228780   5.011   1.568   0.815 -0.0896 -0.3546 -0.3589
 2430TIP3    H128781   4.943   1.628   0.847 -0.0537  0.1449 -1.1797
 2430TIP3    H228782   5.089   1.591   0.865 -0.3669 -0.5280  0.1662
 2431TIP3   OH228783   5.199   3.556   6.414 -0.2430 -0.1870  0.4012
 2431TIP3    H128784   5.117   3.593   6.449  0.7205  2.8513 -0.2583
 2431TIP3    H228785   5.215   3.479   6.468 -0.6203  2.3011  4.4789
 2432TIP3   OH228786   4.397   2.802   2.247 -0.4853  0.0122  0.2118
 2432TIP3    H128787   4.409   2.897   2.243 -0.7998  0.0446  0.0378
 2432TIP3    H228788   4.430   2.770   2.162 -0.4922 -0.0240  0.2228
 2433TIP3   OH228789   1.784   0.605  12.744  0.9643  0.1141 -0.8671
 2433TIP3    H128790   1.793   0.658  12.665 -1.3311 -0.6742 -1.7506
 2433TIP3    H228791   1.753   0.520  12.713  0.8715 -0.5164  0.8221
 2434TIP3   OH228792   1.158   3.045  11.809 -0.0686  0.3826 -0.0511
 2434TIP3    H128793   1.153   3.066  11.716 -0.5491  3.4105  0.5570
 2434TIP3    H228794   1.069   3.015  11.831 -0.8646  2.5875 -0.0256
 2435TIP3   OH228795   1.402   3.623   3.374  0.2506  0.3697  0.2833
 2435TIP3    H128796   1.345   3.685   3.419  0.4251  0.6446  0.1231
 2435TIP3    H228797   1.356   3.603   3.293  0.3307  0.5065  0.2046
 2436TIP3   OH228798   6.787   5.614   1.368  0.8189  0.6270  0.2557
 2436TIP3    H128799   6.817   5.686   1.313  3.1640  0.6036  1.3708
 2436TIP3    H228800   6.776   5.653   1.455  3.1809 -0.4820  1.1284
 2437TIP3   OH228801   2.112   5.337   4.826  0.4338 -0.1492  0.1451
 2437TIP3    H128802   2.030   5.385   4.839 -1.1599 -2.3121 -1.1952
 2437TIP3    H228803   2.102   5.296   4.740  2.9575 -0.4853 -0.0538
 2438TIP3   OH228804   4.026   0.408   1.747  0.5695 -0.3520 -0.1336
 2438TIP3    H128805   4.050   0.410   1.840  1.0023 -2.8104 -0.1193
 2438TIP3    H228806   4.061   0.489   1.711  1.5280  0.0555  1.6064
 2439TIP3   OH228807   4.665   3.706  14.506  0.0249  0.0705 -0.7745
 2439TIP3    H128808   4.606   3.652  14.558 -0.3016 -0.5393 -1.7487
 2439TIP3    H228809   4.608   3.773  14.468  0.4358  1.1820  0.4790
 2440TIP3   OH228810   4.579   6.177   5.740 -0.3333 -0.5686  0.1730
 2440TIP3    H128811   4.645   6.160   5.672 -0.2706  1.2357 -0.2708
 2440TIP3    H228812   4.624   6.232   5.804 -1.0844 -0.2513  0.4429
 2441TIP3   OH228813   2.003   5.180   5.706  0.1878 -0.1303  0.5014
 2441TIP3    H128814   1.916   5.169   5.666 -0.0707 -0.4135  1.1326
 2441TIP3    H228815   1.999   5.128   5.786  0.3967  1.1308  1.3547
 2442TIP3   OH228816   5.032   2.188   2.992 -0.3365  0.5702  0.2685
 2442TIP3    H128817   5.080   2.183   3.075 -0.5587 -2.9311  0.3278
 2442TIP3    H228818   5.078   2.126   2.935 -2.2127  0.3417 -1.0807
 2443TIP3   OH228819   2.022   4.739  16.882  0.7011 -0.0228  0.2574
 2443TIP3    H128820   2.074   4.662  16.902 -0.3351 -0.5883  0.9041
 2443TIP3    H228821   2.084   4.811  16.880  1.4362 -0.6069  1.4259
 2444TIP3   OH228822   5.326   1.319  13.594  0.2259 -0.0844 -0.5002
 2444TIP3    H128823   5.280   1.237  13.610 -0.4845  0.0307 -1.8233
 2444TIP3    H228824   5.265   1.371  13.542 -0.2387  2.1791  2.0579
 2445TIP3   OH228825   6.715   0.460  15.462  0.2188  0.0247 -0.5063
 2445TIP3    H128826   6.687   0.411  15.385  1.8294 -0.1354 -1.0225
 2445TIP3    H228827   6.784   0.518  15.429  3.5323 -2.5119  1.3506
 2446TIP3   OH228828   0.138   1.077   1.135 -0.3275 -0.1893  0.2150
 2446TIP3    H128829   0.058   1.124   1.114 -1.0024 -0.4515  1.9608
 2446TIP3    H228830   0.135   0.997   1.082 -0.9350  0.0746 -0.1490
 2447TIP3   OH228831   5.854   3.824   2.427  0.6025  0.0404 -0.6058
 2447TIP3    H128832   5.845   3.804   2.334 -1.6819 -0.8077 -0.2787
 2447TIP3    H228833   5.768   3.802   2.464  1.5283  0.1191  1.7424
 2448TIP3   OH228834   1.434   5.980   0.466 -0.1911 -0.8480 -0.3630
 2448TIP3    H128835   1.486   5.899   0.472 -0.0349 -0.6385  1.5907
 2448TIP3    H228836   1.492   6.042   0.422  0.4599 -1.2168 -0.0394
 2449TIP3   OH228837   6.383   1.408  11.464  0.2195  0.1883 -0.0441
 2449TIP3    H128838   6.390   1.383  11.373  0.7792 -0.0463  0.0616
 2449TIP3    H228839   6.441   1.348  11.511  0.4178  0.7017  0.3884
 2450TIP3   OH228840   2.588   0.932   6.444  0.6488 -0.3060  0.1546
 2450TIP3    H128841   2.558   0.981   6.521  1.5875  1.8220 -0.7351
 2450TIP3    H228842   2.578   0.840   6.468 -2.4117  0.2457  1.4933
 2451TIP3   OH228843   5.896   4.934  11.308 -0.3989 -0.0260  0.2688
 2451TIP3    H128844   5.822   4.919  11.249 -0.5412  2.8954 -0.4671
 2451TIP3    H228845   5.856   4.957  11.392 -0.2378 -0.9593  0.6183
 2452TIP3   OH228846   5.814   2.735  11.200 -0.0871  0.3282 -0.1347
 2452TIP3    H128847   5.771   2.699  11.123  0.5271 -0.5579 -0.0848
 2452TIP3    H228848   5.782   2.825  11.206  1.2491  1.0481 -2.4864
 2453TIP3   OH228849   5.207   3.575  12.698 -0.2108  0.0261 -0.0947
 2453TIP3    H128850   5.167   3.506  12.644  0.3993 -1.0673  0.8201
 2453TIP3    H228851   5.205   3.540  12.787  2.7955 -0.0965  0.0067
 2454TIP3   OH228852   4.873   1.593  11.487 -0.6520  0.0675  0.1764
 2454TIP3    H128853   4.868   1.609  11.393 -0.8312 -0.3777  0.1073
 2454TIP3    H228854   4.883   1.498  11.495  0.5006  0.2165  0.5742
 2455TIP3   OH228855   1.151   4.873  15.126  0.4660 -0.7456  0.6554
 2455TIP3    H128856   1.200   4.856  15.045  0.6688  0.0731  0.6057
 2455TIP3    H228857   1.218   4.894  15.191  0.3006 -1.3976  1.0419
 2456TIP3   OH228858   5.688   6.178   4.609  0.3019  0.3514 -0.5562
 2456TIP3    H128859   5.657   6.155   4.522 -1.4993  2.0060 -0.4229
 2456TIP3    H228860   5.754   6.245   4.594  0.5158  0.1180 -0.6669
 2457TIP3   OH228861   3.893   3.446   1.256  0.0205  0.2505 -0.0302
 2457TIP3    H128862   3.808   3.401   1.261 -0.4245  1.2101  1.8484
 2457TIP3    H228863   3.893   3.487   1.170 -1.5608  0.4653  0.0396
 2458TIP3   OH228864   3.579   0.877  11.478 -0.3456 -0.0610 -0.4363
 2458TIP3    H128865   3.594   0.898  11.570 -3.3038  0.7136 -0.0187
 2458TIP3    H228866   3.565   0.782  11.476  1.0040 -0.2741 -0.3326
 2459TIP3   OH228867   1.514   3.950   0.234 -0.5473 -0.1656  0.0540
 2459TIP3    H128868   1.472   3.887   0.292 -0.7268  1.3079  1.6014
 2459TIP3    H228869   1.604   3.957   0.267 -0.1097 -0.6140 -0.9837
 2460TIP3   OH228870   5.236   5.093  13.023 -0.2739 -0.0336  0.1048
 2460TIP3    H128871   5.170   5.100  12.955  1.1213  0.2784 -1.2845
 2460TIP3    H228872   5.272   5.005  13.014 -0.8304 -0.3885  1.1874
 2461TIP3   OH228873   4.501   1.184  15.724  0.9115  0.2117 -0.0557
 2461TIP3    H128874   4.529   1.106  15.772  2.6339  2.0278  2.0891
 2461TIP3    H228875   4.505   1.254  15.789  1.3400  2.4517 -2.3770
 2462TIP3   OH228876   3.591   6.601   0.018 -0.7770 -0.9255 -0.2948
 2462TIP3    H128877   3.656   6.570   0.081 -0.6864 -0.7312 -0.2929
 2462TIP3    H228878   3.507   6.588   0.062 -0.6505  0.4618  0.4257
 2463TIP3   OH228879   0.930   6.638   2.914 -0.3321 -0.4969  0.0649
 2463TIP3    H128880   1.008   6.622   2.861 -0.8609  0.7459 -1.1879
 2463TIP3    H228881   0.942   6.585   2.993  1.6726 -0.4798 -0.1796
 2464TIP3   OH228882   2.754   2.444   2.102  0.2089  0.2439 -0.5450
 2464TIP3    H128883   2.781   2.373   2.160 -2.2715 -2.1216 -2.0449
 2464TIP3    H228884   2.688   2.492   2.152  0.3696  0.2060 -0.2919
 2465TIP3   OH228885   0.336   6.773  16.209  0.4409 -0.1487 -0.2921
 2465TIP3    H128886   0.302   6.756  16.121  0.8059  0.6900 -0.6104
 2465TIP3    H228887   0.300   6.703  16.263 -1.3636  0.3786 -0.7218
 2466TIP3   OH228888   0.319   1.021  10.954  0.4458 -0.2905 -0.2280
 2466TIP3    H128889   0.295   1.113  10.963 -0.2781 -0.4196 -0.7099
 2466TIP3    H228890   0.374   1.018  10.876 -0.9903 -0.4978 -1.2775
 2467TIP3   OH228891   2.747   4.695   4.974  0.2164  0.3815  0.2138
 2467TIP3    H128892   2.840   4.706   4.996 -0.1140  0.9932  1.4018
 2467TIP3    H228893   2.719   4.622   5.029  0.3641 -0.9191 -1.3698
 2468TIP3   OH228894   6.808   0.977  15.877 -0.2864 -0.2101 -0.4107
 2468TIP3    H128895   6.740   0.973  15.945  2.6153  0.2504  2.8046
 2468TIP3    H228896   6.820   1.071  15.862  1.5806 -0.1039  1.3448
 2469TIP3   OH228897   3.683   2.436  17.261 -0.4224 -0.5490 -0.2209
 2469TIP3    H128898   3.765   2.409  17.301  0.8135  1.1655 -1.4078
 2469TIP3    H228899   3.664   2.522  17.301 -1.4219 -0.7380 -0.2598
 2470TIP3   OH228900   0.940   2.872   3.012  0.6180 -0.6028 -0.0325
 2470TIP3    H128901   1.008   2.926   2.972  0.8776 -0.4560  0.5909
 2470TIP3    H228902   0.865   2.881   2.953  1.2851 -1.1767 -1.0006
 2471TIP3   OH228903   3.088   2.859   1.310  0.0872 -0.2938  0.0523
 2471TIP3    H128904   2.997   2.888   1.298  0.4292  0.9404  0.3519
 2471TIP3    H228905   3.103   2.800   1.236 -0.8207 -0.1588 -0.2602
 2472TIP3   OH228906   4.168   6.379   5.273 -0.2304 -0.3889 -0.2439
 2472TIP3    H128907   4.167   6.308   5.338 -0.5806  0.3659  0.6024
 2472TIP3    H228908   4.126   6.341   5.196  2.4216 -2.1144 -0.9682
 2473TIP3   OH228909   2.363   3.113   0.336 -0.0301 -0.1030 -0.1493
 2473TIP3    H128910   2.442   3.068   0.367  0.0059  0.2611  0.3044
 2473TIP3    H228911   2.393   3.165   0.262  0.5210  1.2544  0.9591
 2474TIP3   OH228912   1.567   5.780  12.576  0.2194 -0.3270  0.3378
 2474TIP3    H128913   1.505   5.716  12.612 -0.3810  0.2938  0.4268
 2474TIP3    H228914   1.516   5.861  12.568  1.3536  0.5520  1.6086
 2475TIP3   OH228915   1.659   0.339  14.851 -0.0113 -0.5738 -0.3909
 2475TIP3    H128916   1.708   0.358  14.772  0.5292  1.2734  0.3322
 2475TIP3    H228917   1.623   0.251  14.837  3.5070 -2.0683 -0.9526
 2476TIP3   OH228918   2.359   0.163  12.796  0.2963 -0.1513 -0.6196
 2476TIP3    H128919   2.361   0.258  12.794  0.6479 -0.1446 -3.1264
 2476TIP3    H228920   2.419   0.136  12.727  0.3064 -2.2053  0.1182
 2477TIP3   OH228921   1.365   3.759  15.829  0.2820  0.3420 -0.0044
 2477TIP3    H128922   1.337   3.744  15.919  0.6555  1.2831  0.2830
 2477TIP3    H228923   1.285   3.752  15.777  0.0811 -0.3155  0.3759
 2478TIP3   OH228924   4.231   1.798  14.526 -0.3886 -0.1555  0.1535
 2478TIP3    H128925   4.318   1.836  14.537  0.3098 -1.6440  0.0383
 2478TIP3    H228926   4.181   1.866  14.480  1.1873  0.1292 -1.2538
 2479TIP3   OH228927   3.451   2.917   6.379  0.3216  0.4564  0.4300
 2479TIP3    H128928   3.531   2.969   6.386  0.7342 -0.3816  3.4207
 2479TIP3    H228929   3.473   2.833   6.419 -1.1378 -1.0852 -1.7624
 2480TIP3   OH228930   0.175   4.513  13.689  0.0430 -0.6360  0.4350
 2480TIP3    H128931   0.083   4.515  13.663  0.3277 -0.5177 -0.6298
 2480TIP3    H228932   0.221   4.482  13.611  0.7769 -2.0445  1.3782
 2481TIP3   OH228933   5.499   5.128  17.158 -0.0517  0.3196 -0.0288
 2481TIP3    H128934   5.535   5.093  17.076 -0.1464  0.7144 -0.2402
 2481TIP3    H228935   5.417   5.080  17.170  0.7980 -1.0063  0.7595
 2482TIP3   OH228936   3.152   6.429   1.116 -0.2546  0.0925 -0.3125
 2482TIP3    H128937   3.165   6.376   1.037 -0.2288 -3.5021  1.9182
 2482TIP3    H228938   3.222   6.401   1.175 -1.3500  1.3371  1.6538
 2483TIP3   OH228939   2.832   0.281   2.518 -0.6309 -0.3147 -0.4188
 2483TIP3    H128940   2.775   0.206   2.536  1.5791 -1.9601  0.0894
 2483TIP3    H228941   2.839   0.326   2.602  0.4292 -1.3205  0.0600
 2484TIP3   OH228942   4.986   3.251   3.769 -0.6957 -0.2386 -0.1331
 2484TIP3    H128943   4.927   3.204   3.829  0.4439 -1.5624  0.0032
 2484TIP3    H228944   4.944   3.243   3.684 -1.7114  0.5907  0.2681
 2485TIP3   OH228945   4.257   2.620   4.238 -0.3978 -0.6870 -0.3647
 2485TIP3    H128946   4.288   2.710   4.226 -1.1049 -0.2396  0.8932
 2485TIP3    H228947   4.223   2.619   4.328 -4.1794 -1.0193 -1.5950
 2486TIP3   OH228948   3.129   6.728  14.428  0.5659 -0.0797  0.0279
 2486TIP3    H128949   3.188   6.711  14.355 -0.3767  1.3865 -1.1514
 2486TIP3    H228950   3.046   6.751  14.387 -0.6299 -1.2843  1.6179
 2487TIP3   OH228951   0.018   3.133  14.701  0.2539 -0.1534  0.0824
 2487TIP3    H128952   0.031   3.059  14.760 -0.0000  0.0384  0.3849
 2487TIP3    H228953   0.010   3.094  14.614  3.6002 -0.2668 -0.2895
 2488TIP3   OH228954   1.460   3.619   5.072  0.1798  0.3123 -0.5431
 2488TIP3    H128955   1.402   3.547   5.096 -1.1848  1.7623  0.6671
 2488TIP3    H228956   1.540   3.603   5.122 -0.5865  0.2984  0.7182
 2489TIP3   OH228957   0.614   1.731   5.911 -0.1639 -0.3540 -0.5058
 2489TIP3    H128958   0.554   1.790   5.865 -0.7437 -0.4844  0.0635
 2489TIP3    H228959   0.639   1.779   5.990  3.0576  1.0700 -2.2037
 2490TIP3   OH228960   4.708   0.189   3.827 -0.2437  0.4223  0.3459
 2490TIP3    H128961   4.785   0.138   3.852 -0.2811  0.6667  0.9910
 2490TIP3    H228962   4.659   0.131   3.769 -1.0862 -0.9301  2.2983
 2491TIP3   OH228963   3.074   3.572   3.337 -0.1594 -0.2550 -0.3232
 2491TIP3    H128964   3.052   3.664   3.347  1.0696  0.1777 -1.4397
 2491TIP3    H228965   3.087   3.559   3.243 -1.1034 -1.7618 -0.2833
 2492TIP3   OH228966   1.973   5.158   0.065  0.0869  0.2679 -0.4501
 2492TIP3    H128967   1.996   5.075   0.106  0.0650 -0.1381 -1.2347
 2492TIP3    H228968   1.994   5.145  -0.028  1.6085  1.6885 -0.3408
 2493TIP3   OH228969   5.646   5.981   0.491 -0.5189  0.0376 -0.6605
 2493TIP3    H128970   5.719   6.042   0.494 -0.0670 -0.4281 -1.7709
 2493TIP3    H228971   5.587   6.016   0.424 -2.5150  1.6621  1.7467
 2494TIP3   OH228972   3.551   1.856   3.258 -0.0378 -0.1118  0.2272
 2494TIP3    H128973   3.556   1.923   3.190 -0.0560 -0.9519 -0.6240
 2494TIP3    H228974   3.511   1.781   3.214  1.1157 -1.1015  0.8356
 2495TIP3   OH228975   6.240   2.439   5.241 -0.0688  0.8544 -0.8026
 2495TIP3    H128976   6.331   2.412   5.227 -0.1689  0.4821 -0.7416
 2495TIP3    H228977   6.202   2.437   5.153 -0.3068 -0.0635 -0.6923
 2496TIP3   OH228978   0.456   5.600  15.008  0.1709 -0.0894  0.1190
 2496TIP3    H128979   0.418   5.655  14.939 -1.3257  0.3384  1.2357
 2496TIP3    H228980   0.413   5.516  14.997  1.2493 -0.5822 -0.5467
 2497TIP3   OH228981   1.168   1.637   5.609  0.3371  0.3921  0.9434
 2497TIP3    H128982   1.115   1.712   5.582 -0.6924 -0.1208  1.4834
 2497TIP3    H228983   1.108   1.581   5.657  0.8393 -1.2666 -0.2685
 2498TIP3   OH228984   3.501   2.979  12.812 -0.4232 -0.6775 -0.5539
 2498TIP3    H128985   3.453   2.923  12.750  0.4946 -0.1682 -1.7867
 2498TIP3    H228986   3.441   2.991  12.885 -0.9569 -2.6010 -0.6065
 2499TIP3   OH228987   6.493   2.466   4.374 -0.2814 -0.2537 -0.3518
 2499TIP3    H128988   6.520   2.503   4.458 -0.5751 -2.3811  0.7571
 2499TIP3    H228989   6.447   2.538   4.330  0.7887  1.2287  0.8358
 2500TIP3   OH228990   4.376   2.684  12.486  0.1771  0.0967 -0.6544
 2500TIP3    H128991   4.466   2.706  12.463  0.3358 -0.7452 -0.8563
 2500TIP3    H228992   4.324   2.756  12.449  0.8176  0.9873  0.1148
 2501TIP3   OH228993   0.958   5.995  11.922  0.3191 -0.3183 -0.0015
 2501TIP3    H128994   1.036   5.950  11.889 -0.6453 -1.2421 -1.1297
 2501TIP3    H228995   0.944   5.957  12.009  2.2038  1.2731  1.0786
 2502TIP3   OH228996   6.136   4.496  13.254 -0.1666 -0.1588  0.0110
 2502TIP3    H128997   6.058   4.541  13.286 -0.4313 -0.9763  0.5515
 2502TIP3    H228998   6.200   4.504  13.325  0.3892  0.8546 -0.5913
 2503TIP3   OH228999   1.028   2.741  11.664  0.2328  0.2356 -0.1657
 2503TIP3    H129000   0.950   2.761  11.715 -0.1456 -1.4728 -0.0144
 2503TIP3    H229001   1.024   2.800  11.589 -1.6821 -0.4250 -0.6193
 2504TIP3   OH229002   4.067   2.345   3.326 -0.3368 -0.3682 -0.1559
 2504TIP3    H129003   4.017   2.338   3.407 -0.6454 -0.3585 -0.3413
 2504TIP3    H229004   4.158   2.343   3.353 -0.4313 -1.1549  0.1345
 2505TIP3   OH229005   6.452   3.792   1.808  0.4182  0.9656  0.5056
 2505TIP3    H129006   6.402   3.844   1.745  1.1129  0.8057 -0.1989
 2505TIP3    H229007   6.450   3.843   1.888 -2.4914  0.1118  1.1266
 2506TIP3   OH229008   0.593   3.738   3.840 -0.5438  0.4495  0.4643
 2506TIP3    H129009   0.622   3.705   3.756 -1.4345  0.0887  0.2896
 2506TIP3    H229010   0.585   3.661   3.896 -0.5178  0.6191  0.7082
 2507TIP3   OH229011   6.521   5.093  12.756  0.1946  0.9154 -0.6756
 2507TIP3    H129012   6.583   5.135  12.696  3.0114 -3.0677 -0.9251
 2507TIP3    H229013   6.557   5.110  12.843 -0.0242  1.0180 -0.6050
 2508TIP3   OH229014   2.436   3.849  11.591 -0.3616  0.0277  0.3289
 2508TIP3    H129015   2.404   3.768  11.629 -1.0146 -0.2618 -0.7915
 2508TIP3    H229016   2.410   3.844  11.499 -0.9493  1.7643  0.3626
 2509TIP3   OH229017   5.410   5.828  11.256  0.4546  0.6033  0.3057
 2509TIP3    H129018   5.495   5.784  11.246  0.3541  0.6100 -0.6433
 2509TIP3    H229019   5.353   5.782  11.195  0.1122  1.4687 -0.0310
 2510TIP3   OH229020   5.850   0.808  15.448  0.4130  0.1292  0.0485
 2510TIP3    H129021   5.879   0.810  15.540  0.7825 -2.9799  0.1393
 2510TIP3    H229022   5.756   0.825  15.452 -0.0168 -2.0498  1.3687
 2511TIP3   OH229023   1.393   0.297  12.507  0.7394 -0.3682 -0.2975
 2511TIP3    H129024   1.454   0.291  12.433 -0.0970  0.8366 -1.1296
 2511TIP3    H229025   1.318   0.345  12.472  0.0659 -0.2858  1.1894
 2512TIP3   OH229026   5.469   6.737  10.803 -0.1969 -0.3786 -0.1626
 2512TIP3    H129027   5.444   6.816  10.755 -0.8348  1.1200  2.4544
 2512TIP3    H229028   5.404   6.672  10.777  0.3906 -0.1547 -2.4382
 2513TIP3   OH229029   2.093   4.252   5.960  0.0588  0.1760 -0.0607
 2513TIP3    H129030   2.028   4.316   5.989 -1.2232 -1.1128  0.0638
 2513TIP3    H229031   2.137   4.224   6.041  0.4517  0.6993 -0.0871
 2514TIP3   OH229032   4.171   1.877   6.321  0.0018 -0.1143 -0.8180
 2514TIP3    H129033   4.149   1.836   6.405  1.9751 -1.2058 -0.7749
 2514TIP3    H229034   4.121   1.827   6.256  0.3403 -0.8842 -0.5013
 2515TIP3   OH229035   0.521   2.574  16.054 -0.5415  0.2333  0.2369
 2515TIP3    H129036   0.566   2.640  16.106 -1.3180  0.8912  0.0963
 2515TIP3    H229037   0.470   2.624  15.990  0.6607 -0.5530 -1.4202
 2516TIP3   OH229038   1.380   4.621  11.787  0.2906  0.1498 -0.0172
 2516TIP3    H129039   1.376   4.532  11.752  0.4492  0.4072 -0.7129
 2516TIP3    H229040   1.437   4.615  11.864  3.3068  0.2685 -2.0704
 2517TIP3   OH229041   1.753   5.176   5.585  0.6344  0.0450  0.7157
 2517TIP3    H129042   1.715   5.146   5.503  2.5574 -1.1612  0.2259
 2517TIP3    H229043   1.677   5.198   5.639 -0.7148 -0.7942 -0.7529
 2518TIP3   OH229044   6.143   3.495  15.616 -0.3145  0.2132  0.1738
 2518TIP3    H129045   6.174   3.418  15.665 -2.0914  0.4021  1.6987
 2518TIP3    H229046   6.047   3.485  15.614 -0.4091 -0.0519 -3.7972
 2519TIP3   OH229047   3.421   3.816  13.515  0.0578 -0.1933 -0.5737
 2519TIP3    H129048   3.411   3.728  13.550 -0.5468 -0.9853 -2.6612
 2519TIP3    H229049   3.471   3.805  13.434 -0.2436  1.3482 -1.0001
 2520TIP3   OH229050   0.513   0.928  12.519  0.6944 -0.2675  0.3270
 2520TIP3    H129051   0.509   0.928  12.615 -1.0627  1.7542  0.3492
 2520TIP3    H229052   0.426   0.897  12.492  0.7648  0.2857 -0.5728
 2521TIP3   OH229053   2.524   1.410  16.531 -0.7777 -0.3063  0.0632
 2521TIP3    H129054   2.470   1.408  16.610  0.1882  0.7833  0.7904
 2521TIP3    H229055   2.524   1.502  16.504  0.4233 -0.3427 -0.1117
 2522TIP3   OH229056   6.673   1.130  11.337 -0.1061  0.6934 -0.1565
 2522TIP3    H129057   6.687   1.046  11.294  0.1087 -0.3495  1.8043
 2522TIP3    H229058   6.624   1.182  11.274 -1.4564 -1.4030 -0.9502
 2523TIP3   OH229059   5.557   3.557  16.509  0.2035  0.8523  0.3997
 2523TIP3    H129060   5.511   3.515  16.582  0.9897  1.0520  1.0240
 2523TIP3    H229061   5.488   3.575  16.444 -0.0293 -2.5066 -0.4747
 2524TIP3   OH229062   2.617   5.348   0.801  0.0298  0.3613 -0.2372
 2524TIP3    H129063   2.621   5.430   0.850 -2.0453  0.7630 -0.6744
 2524TIP3    H229064   2.644   5.281   0.865  1.0400  1.2766  0.3267
 2525TIP3   OH229065   1.854   1.224  14.693 -0.6256 -0.1801  0.3501
 2525TIP3    H129066   1.874   1.137  14.658 -1.5100 -0.4948  0.6034
 2525TIP3    H229067   1.806   1.268  14.622  2.2342  1.1778 -0.9169
 2526TIP3   OH229068   6.547   4.963  14.676 -0.4699  0.2735 -0.4167
 2526TIP3    H129069   6.568   4.994  14.588 -2.0506  0.0246 -0.9243
 2526TIP3    H229070   6.586   5.027  14.734  1.3670 -0.0260 -1.2426
 2527TIP3   OH229071   5.350   3.939   3.305 -0.1746  0.1426  0.0944
 2527TIP3    H129072   5.347   4.021   3.354  2.8711  1.5482 -1.8029
 2527TIP3    H229073   5.298   3.956   3.227 -1.6677 -0.6951  0.8683
 2528TIP3   OH229074   5.235   6.412  14.232  0.2325 -0.7405  0.3426
 2528TIP3    H129075   5.292   6.408  14.155  1.2739 -0.8147  1.0979
 2528TIP3    H229076   5.273   6.482  14.286  0.4993 -1.7633  1.5262
 2529TIP3   OH229077   3.457   0.523  14.102 -0.6258  0.1698  0.2753
 2529TIP3    H129078   3.448   0.433  14.133  0.7366 -0.6010 -1.3593
 2529TIP3    H229079   3.545   0.549  14.129 -0.0897  0.1058 -1.2750
 2530TIP3   OH229080   2.253   4.708   0.748  0.4659 -0.0616  0.2656
 2530TIP3    H129081   2.186   4.679   0.687  2.5794 -1.4509 -1.5554
 2530TIP3    H229082   2.287   4.790   0.711 -0.2850  0.7378  1.2771
 2531TIP3   OH229083   5.762   5.361   5.092  0.0891  0.1235  0.1864
 2531TIP3    H129084   5.714   5.352   5.175  0.4247 -1.1219  0.2630
 2531TIP3    H229085   5.745   5.279   5.046  0.3622  0.5807 -0.7386
 2532TIP3   OH229086   4.707   3.590   2.930  0.3427  0.4742  0.3220
 2532TIP3    H129087   4.625   3.608   2.976 -1.0456 -1.5627 -1.1777
 2532TIP3    H229088   4.756   3.533   2.989  0.8376  1.8929  1.3265
 2533TIP3   OH229089   4.125   5.404  14.466  0.1511 -0.1880 -0.4804
 2533TIP3    H129090   4.163   5.451  14.540 -1.5030  0.5147 -0.0274
 2533TIP3    H229091   4.145   5.312  14.483 -0.5160 -0.0713  1.0585
 2534TIP3   OH229092   0.615   1.308   5.953  0.5280 -0.1108  0.1030
 2534TIP3    H129093   0.621   1.382   6.013 -0.4939  1.3361 -1.5109
 2534TIP3    H229094   0.532   1.320   5.907  1.2435 -1.1805 -1.5659
 2535TIP3   OH229095   6.130   1.345  11.565 -0.2120  0.3822 -0.5091
 2535TIP3    H129096   6.181   1.390  11.497  1.7347  0.1585  0.7284
 2535TIP3    H229097   6.181   1.267  11.585 -1.6879 -0.4993 -0.0319
 2536TIP3   OH229098   1.922   0.646   6.231  0.0817  0.3007  0.2588
 2536TIP3    H129099   2.005   0.690   6.247  1.1459 -1.1481 -0.9682
 2536TIP3    H229100   1.939   0.554   6.251 -0.1251 -0.6533 -3.1872
 2537TIP3   OH229101   1.974   3.950   1.699  0.5131  0.0713  0.5483
 2537TIP3    H129102   1.999   3.864   1.731 -2.2497 -0.8584  0.4713
 2537TIP3    H229103   1.882   3.959   1.724  0.7861  3.1562  0.8292
 2538TIP3   OH229104   4.791   5.177  11.535  0.1139  0.4747  0.1185
 2538TIP3    H129105   4.829   5.262  11.511 -0.2773  1.2741  2.0939
 2538TIP3    H229106   4.750   5.193  11.620 -0.4372 -1.5844  0.2860
 2539TIP3   OH229107   5.003   2.779   5.314 -0.3309  0.4939 -0.2780
 2539TIP3    H129108   5.026   2.816   5.399 -1.8752  2.1603 -0.5302
 2539TIP3    H229109   4.979   2.688   5.333 -0.1507  0.6908  0.9808
 2540TIP3   OH229110   0.046   4.235   3.108 -0.2875 -0.4216  0.3182
 2540TIP3    H129111   0.099   4.259   3.185 -0.7669  1.1259  0.2037
 2540TIP3    H229112   0.044   4.139   3.109  0.4401 -0.4496  1.7360
 2541TIP3   OH229113   1.842   4.431  12.529 -0.3579 -0.6159  0.0088
 2541TIP3    H129114   1.759   4.413  12.574  0.6804 -1.7791  1.5562
 2541TIP3    H229115   1.854   4.525  12.539 -0.5519 -0.7237  1.5268
 2542TIP3   OH229116   5.651   2.172  13.813 -0.4240 -0.6604  0.1266
 2542TIP3    H129117   5.699   2.110  13.868  0.3954  0.5441  0.8307
 2542TIP3    H229118   5.719   2.219  13.765 -1.1536 -2.4872 -2.9232
 2543TIP3   OH229119   2.515   6.367  13.318 -0.8137 -0.0215  0.1556
 2543TIP3    H129120   2.461   6.446  13.320  0.8934  1.2453 -1.4143
 2543TIP3    H229121   2.560   6.366  13.402  0.3644  1.5967 -0.4266
 2544TIP3   OH229122   4.713   2.625   2.383  0.4019 -0.4321  0.2202
 2544TIP3    H129123   4.768   2.555   2.418  2.1639 -0.1381 -1.7426
 2544TIP3    H229124   4.649   2.581   2.328 -1.3359 -0.7618  2.3729
 2545TIP3   OH229125   6.558   4.062   2.397 -0.0497  0.3594  0.2477
 2545TIP3    H129126   6.478   4.115   2.405 -1.1641 -0.5995 -2.8179
 2545TIP3    H229127   6.591   4.082   2.309  0.8150 -2.1562 -0.0955
 2546TIP3   OH229128   0.363   0.767   3.445 -0.5358 -0.2899 -0.2689
 2546TIP3    H129129   0.347   0.798   3.356 -0.9287  3.0704  0.7902
 2546TIP3    H229130   0.305   0.692   3.455  0.8972 -2.0022 -3.3474
 2547TIP3   OH229131   4.938   5.461  12.968 -0.1317 -0.0643  0.2140
 2547TIP3    H129132   4.940   5.534  12.906  0.4754 -1.3326 -1.3207
 2547TIP3    H229133   5.018   5.412  12.949  0.1526 -0.4111  2.1356
 2548TIP3   OH229134   1.713   4.426   3.864  0.1401  1.1267  0.0844
 2548TIP3    H129135   1.794   4.449   3.909  0.7448 -0.8179  0.0895
 2548TIP3    H229136   1.651   4.495   3.889  1.3717  1.8510  1.2653
 2549TIP3   OH229137   6.217   2.019  14.929 -0.1421 -0.6533  0.0065
 2549TIP3    H129138   6.146   1.957  14.917 -1.7351  1.1687 -0.4952
 2549TIP3    H229139   6.176   2.095  14.971  1.0673  1.1677 -1.8885
 2550TIP3   OH229140   0.689   0.952   2.987  0.1770  0.1696  0.1984
 2550TIP3    H129141   0.767   0.995   2.952  0.3679  1.5383  2.1556
 2550TIP3    H229142   0.710   0.935   3.079 -1.1430 -1.1863  0.2810
 2551TIP3   OH229143   0.693   0.228  13.899 -0.1131  0.0881  0.2438
 2551TIP3    H129144   0.683   0.323  13.909  0.4148  0.2602 -0.7413
 2551TIP3    H229145   0.669   0.211  13.808  1.4182 -0.4850 -0.0685
 2552TIP3   OH229146   5.730   3.155   1.351  0.3494  0.2613 -0.1854
 2552TIP3    H129147   5.715   3.177   1.443 -0.6182 -0.7620 -0.0654
 2552TIP3    H229148   5.765   3.066   1.354 -0.9798 -0.3176 -0.8360
 2553TIP3   OH229149   4.859   0.822  15.591 -0.0464 -0.4345 -0.1380
 2553TIP3    H129150   4.830   0.908  15.625  1.9623  0.3056 -0.1636
 2553TIP3    H229151   4.781   0.767  15.598 -0.9168  0.8773  1.6425
 2554TIP3   OH229152   3.437   1.480  12.112 -0.3530  0.2929  0.1400
 2554TIP3    H129153   3.472   1.393  12.090 -2.2525 -0.2492 -0.9703
 2554TIP3    H229154   3.352   1.462  12.153 -1.1120  1.6232 -0.7763
 2555TIP3   OH229155   4.813   1.755   4.795 -0.1823 -0.2708  0.3266
 2555TIP3    H129156   4.850   1.674   4.760  1.3609 -0.1073  1.4549
 2555TIP3    H229157   4.838   1.823   4.732 -0.4199 -0.4852  0.0012
 2556TIP3   OH229158   3.930   2.020   5.172  0.1185  0.3083  0.0049
 2556TIP3    H129159   3.846   2.051   5.205 -0.0160  1.3879 -1.2642
 2556TIP3    H229160   3.908   1.967   5.096  0.6013  1.9674 -1.3660
 2557TIP3   OH229161   5.746   2.020  13.608 -0.3287 -1.0034  0.4996
 2557TIP3    H129162   5.791   1.940  13.636  1.2238 -0.6813 -0.9099
 2557TIP3    H229163   5.656   2.008  13.638 -0.6648 -4.1862 -1.3086
 2558TIP3   OH229164   1.301   3.006   5.456  0.6189  0.6107 -0.2550
 2558TIP3    H129165   1.331   3.085   5.501  0.9548  1.1432 -1.3785
 2558TIP3    H229166   1.354   3.001   5.377  1.3822 -1.3790  0.3299
 2559TIP3   OH229167   0.236   5.880   4.081  0.4237 -0.3338  0.1726
 2559TIP3    H129168   0.141   5.886   4.065  0.2142  2.2850  1.8049
 2559TIP3    H229169   0.275   5.895   3.995 -0.5828 -1.2920 -0.5012
 2560TIP3   OH229170   0.666   4.616  13.417  0.0448  0.6905 -0.0460
 2560TIP3    H129171   0.644   4.708  13.405  1.5229  0.9423 -1.1881
 2560TIP3    H229172   0.761   4.612  13.401  0.3918 -0.6970  2.0657
 2561TIP3   OH229173   1.872   3.036   0.215 -0.2809 -0.3931 -0.3944
 2561TIP3    H129174   1.879   3.008   0.124 -0.9874  1.5524 -1.1014
 2561TIP3    H229175   1.950   3.088   0.230 -0.1133 -0.7936  0.1720
 2562TIP3   OH229176   5.599   1.654  15.027 -0.2980 -0.0118 -0.0677
 2562TIP3    H129177   5.653   1.719  15.073  1.5087 -2.2618  1.1768
 2562TIP3    H229178   5.513   1.664  15.068  0.1915  0.9227  0.8129
 2563TIP3   OH229179   5.530   5.239  16.205 -0.2508  0.0400 -0.2284
 2563TIP3    H129180   5.580   5.297  16.148 -0.0528 -0.8214 -0.9691
 2563TIP3    H229181   5.439   5.253  16.180 -0.4305  1.7009  1.2092
 2564TIP3   OH229182   5.308   1.946   3.095  0.5529 -0.4485 -0.2040
 2564TIP3    H129183   5.226   1.926   3.050 -0.5107  0.9854  0.9814
 2564TIP3    H229184   5.374   1.952   3.025 -0.6996  0.0767 -1.3789
 2565TIP3   OH229185   2.618   3.806  16.418  0.6370 -0.0822 -0.1337
 2565TIP3    H129186   2.558   3.804  16.493  1.1598 -0.5639  0.2800
 2565TIP3    H229187   2.576   3.865  16.356 -0.3597 -0.5381  0.0759
 2566TIP3   OH229188   2.771   1.162  16.208 -0.2910  0.1675 -0.6696
 2566TIP3    H129189   2.703   1.095  16.216  0.8306 -1.2321 -2.1534
 2566TIP3    H229190   2.831   1.128  16.142  1.9089  1.3117  0.6072
 2567TIP3   OH229191   2.664   4.252  16.757 -0.3825  0.0753  0.2201
 2567TIP3    H129192   2.739   4.287  16.805  1.1028  0.9549 -2.4722
 2567TIP3    H229193   2.703   4.212  16.679 -2.6620 -0.4891 -0.6995
 2568TIP3   OH229194   6.568   1.611  11.338  0.6815 -0.0416  0.1490
 2568TIP3    H129195   6.601   1.578  11.422 -0.1485 -2.2566 -0.3354
 2568TIP3    H229196   6.580   1.539  11.277 -1.9889  0.1972 -0.8043
 2569TIP3   OH229197   4.586   3.964  14.247  0.0935  0.2944 -0.0842
 2569TIP3    H129198   4.526   4.038  14.245 -0.9528 -0.5347 -1.3281
 2569TIP3    H229199   4.529   3.887  14.237  1.3589 -0.5176 -1.4147
 2570TIP3   OH229200   1.383   0.130   6.642  0.4924  0.3473  0.1359
 2570TIP3    H129201   1.468   0.103   6.676  0.4782  0.6830  0.4462
 2570TIP3    H229202   1.371   0.078   6.563 -0.4516 -2.0821  1.7764
 2571TIP3   OH229203   4.447   5.365  16.837  0.4044  0.5016  0.0879
 2571TIP3    H129204   4.420   5.391  16.925 -0.4192  0.1645 -0.0536
 2571TIP3    H229205   4.378   5.305  16.808 -0.2640  1.9627 -1.4748
 2572TIP3   OH229206   0.285   4.532  12.459 -0.8472 -0.5671  0.0485
 2572TIP3    H129207   0.253   4.469  12.524  0.1058  1.0880  2.2261
 2572TIP3    H229208   0.373   4.502  12.437 -1.1580 -1.1112 -0.4693
 2573TIP3   OH229209   5.177   4.719  16.563  0.0767 -0.0284 -0.0928
 2573TIP3    H129210   5.249   4.689  16.506 -1.7627 -0.2025 -2.4749
 2573TIP3    H229211   5.169   4.812  16.545 -0.9806 -0.2218 -0.7126
 2574TIP3   OH229212   0.001   2.052  14.901  0.4798  0.2777 -0.0357
 2574TIP3    H129213   0.095   2.035  14.901  0.1992 -1.5663  1.4076
 2574TIP3    H229214  -0.027   2.030  14.812  1.2696 -0.0540 -0.2077
 2575TIP3   OH229215   4.194   4.418   1.299  0.0131  0.1175  0.4613
 2575TIP3    H129216   4.105   4.443   1.322 -0.3515  0.9860 -1.5963
 2575TIP3    H229217   4.185   4.330   1.261 -0.1438  0.5185 -0.4807
 2576TIP3   OH229218   6.297   6.706   0.329  0.1736 -0.3854 -0.8907
 2576TIP3    H129219   6.392   6.714   0.318  0.4931  1.9628  2.2360
 2576TIP3    H229220   6.285   6.680   0.420 -2.1686  1.5280 -0.5411
 2577TIP3   OH229221   6.815   4.249  12.445 -0.2624 -0.2343  0.0551
 2577TIP3    H129222   6.869   4.219  12.371  1.0379  0.7288  0.5588
 2577TIP3    H229223   6.850   4.201  12.520  0.0825  0.5763  0.4251
 2578TIP3   OH229224   2.909   2.846  15.222 -0.2375 -0.8329 -0.6757
 2578TIP3    H129225   2.891   2.939  15.207  0.8807 -0.5981 -0.6815
 2578TIP3    H229226   2.848   2.820  15.290 -0.8714 -0.2142 -0.9945
 2579TIP3   OH229227   1.209   6.286  14.468  0.1307  0.0272  0.3212
 2579TIP3    H129228   1.166   6.241  14.396 -0.1439  0.6739  0.0809
 2579TIP3    H229229   1.293   6.240  14.479 -0.0450 -0.3869 -0.0734
 2580TIP3   OH229230   5.411   1.839  14.761 -0.0069  0.0810 -0.3672
 2580TIP3    H129231   5.345   1.789  14.808  2.0203 -0.7692  1.7738
 2580TIP3    H229232   5.425   1.917  14.815 -0.0487  0.8442 -1.4189
 2581TIP3   OH229233   5.925   3.163  14.260 -0.0451  0.1197  0.1341
 2581TIP3    H129234   5.854   3.125  14.311 -1.3530  2.0303 -0.1555
 2581TIP3    H229235   5.953   3.239  14.311  0.7146  0.2847 -0.5132
 2582TIP3   OH229236   5.680   5.181  12.456 -0.2772  0.0901  0.0834
 2582TIP3    H129237   5.711   5.264  12.493  0.3839 -0.0499 -0.1347
 2582TIP3    H229238   5.738   5.115  12.495 -1.4631 -0.4047  1.0805
 2583TIP3   OH229239   6.714   5.370  12.806  0.0422  0.6587  0.3803
 2583TIP3    H129240   6.697   5.378  12.899 -1.2773  0.3555  0.1832
 2583TIP3    H229241   6.752   5.282  12.796 -0.4371  0.4294  0.5525
 2584TIP3   OH229242   4.993   0.368   5.952  0.3187  0.9959  0.1387
 2584TIP3    H129243   4.969   0.456   5.922  0.8960  1.1277  0.0646
 2584TIP3    H229244   4.924   0.346   6.015 -1.3600  0.4054 -1.7937
 2585TIP3   OH229245   2.271   5.345   2.155 -0.1960 -0.6265 -0.1063
 2585TIP3    H129246   2.349   5.290   2.146 -0.1181 -0.4951 -0.2454
 2585TIP3    H229247   2.303   5.435   2.146 -0.2591 -0.5319  0.5657
 2586TIP3   OH229248   2.387   6.165  13.669  0.4369  0.0365 -0.5552
 2586TIP3    H129249   2.402   6.106  13.744 -0.5738  0.7507  0.2315
 2586TIP3    H229250   2.295   6.190  13.677  1.2597  3.1590  0.1895
 2587TIP3   OH229251   3.694   2.036   5.293  0.0182  0.0512  0.0664
 2587TIP3    H129252   3.650   2.068   5.371  0.7330 -0.9488  0.9097
 2587TIP3    H229253   3.630   1.980   5.250  0.1203 -0.6120  0.7609
 2588TIP3   OH229254   4.301   2.412   5.014 -0.5649  0.4315 -0.2148
 2588TIP3    H129255   4.375   2.434   5.070 -1.8568  0.3138  1.6347
 2588TIP3    H229256   4.252   2.494   5.005 -0.8928  0.2283 -0.3291
 2589TIP3   OH229257   5.158   4.421   0.551  0.1036  0.6347 -0.5423
 2589TIP3    H129258   5.205   4.449   0.630  1.0188 -0.9684 -0.4736
 2589TIP3    H229259   5.216   4.445   0.479  0.4236 -0.1036 -0.5446
 2590TIP3   OH229260   5.409   3.251   4.572  0.4656  0.4744  0.5960
 2590TIP3    H129261   5.421   3.332   4.523 -0.7684 -0.1010 -0.7119
 2590TIP3    H229262   5.315   3.246   4.588  0.3214 -1.3568 -0.5690
 2591TIP3   OH229263   5.575   4.291  11.329 -0.2048 -0.4319  0.2960
 2591TIP3    H129264   5.649   4.276  11.271 -0.1158 -0.7918  0.5031
 2591TIP3    H229265   5.558   4.206  11.370 -1.1542 -0.5192 -0.2433
 2592TIP3   OH229266   6.673   6.764  16.394  0.6535  0.5178 -0.2103
 2592TIP3    H129267   6.604   6.771  16.460  0.9987 -1.1364  0.3768
 2592TIP3    H229268   6.727   6.842  16.408  0.2820  0.5878  0.9698
 2593TIP3   OH229269   1.182   1.848   2.558 -0.2721  0.6062 -0.2055
 2593TIP3    H129270   1.136   1.853   2.475  1.2520 -1.1839 -1.2219
 2593TIP3    H229271   1.154   1.766   2.597 -1.4174  1.6849  1.3956
 2594TIP3   OH229272   3.132   2.487  11.953  0.0349  0.2831  0.3608
 2594TIP3    H129273   3.146   2.457  11.863 -1.6909  1.0309 -0.2025
 2594TIP3    H229274   3.219   2.512  11.984  0.8611 -1.2290 -0.6205
 2595TIP3   OH229275   1.180   5.610  13.656 -0.7328  0.3366  0.1342
 2595TIP3    H129276   1.150   5.529  13.614 -0.0933 -0.8509  1.8314
 2595TIP3    H229277   1.167   5.678  13.590 -2.5665 -0.9140 -0.8673
 2596TIP3   OH229278   1.929   5.469   6.080 -0.8032  0.2009 -0.0969
 2596TIP3    H129279   1.904   5.380   6.055  0.9431  0.0347 -1.4565
 2596TIP3    H229280   1.910   5.474   6.173  0.6948 -2.2331  0.4311
 2597TIP3   OH229281   4.160   3.001   2.877  0.4001  0.1912 -0.4418
 2597TIP3    H129282   4.086   3.043   2.833 -0.1613  0.6453  0.8522
 2597TIP3    H229283   4.130   2.989   2.967  1.3923 -0.9454 -0.2339
 2598TIP3   OH229284   4.998   2.270  14.455 -0.1124  0.7199 -0.1878
 2598TIP3    H129285   4.978   2.353  14.411  1.8913  2.2869  1.6832
 2598TIP3    H229286   5.036   2.296  14.539 -0.1838 -2.1341  0.8101
 2599TIP3   OH229287   6.703   5.399  16.161  0.1441  0.2084 -0.0929
 2599TIP3    H129288   6.633   5.348  16.201  0.1587 -1.5756 -2.1011
 2599TIP3    H229289   6.776   5.336  16.153  0.8467  1.0972 -0.9104
 2600TIP3   OH229290   2.690   1.293  13.748 -0.0741 -0.5262 -0.3003
 2600TIP3    H129291   2.730   1.378  13.726 -1.0967  0.0371 -0.0096
 2600TIP3    H229292   2.765   1.234  13.755  0.5325 -0.1632 -2.7037
 2601TIP3   OH229293   2.993   5.482  15.254 -0.3028 -0.1923  0.1173
 2601TIP3    H129294   2.943   5.546  15.305 -2.1857 -0.4030 -1.3643
 2601TIP3    H229295   3.032   5.425  15.320 -3.6171 -1.1799  1.4202
 2602TIP3   OH229296   4.732   3.463   1.384 -0.1509  0.7060  0.2739
 2602TIP3    H129297   4.815   3.440   1.425 -1.6409 -3.6715  1.3500
 2602TIP3    H229298   4.744   3.444   1.291  0.4477  1.5336  0.1753
 2603TIP3   OH229299   5.648   3.846   3.865  0.5382 -0.3572  0.3164
 2603TIP3    H129300   5.713   3.811   3.805 -0.3324  0.4379 -1.1326
 2603TIP3    H229301   5.595   3.771   3.890  0.4890 -0.5886 -0.4615
 2604TIP3   OH229302   2.643   0.794  12.394  0.5459 -0.4555  0.3408
 2604TIP3    H129303   2.598   0.877  12.405 -1.3152 -1.4499  0.7138
 2604TIP3    H229304   2.703   0.789  12.468 -0.4354 -0.0945  1.1873
 2605TIP3   OH229305   4.404   4.888   4.518  0.5472  0.6424 -0.3700
 2605TIP3    H129306   4.419   4.901   4.424  1.9022 -2.0631 -0.6204
 2605TIP3    H229307   4.326   4.832   4.522 -0.3978  1.9430  0.2425
 2606TIP3   OH229308   4.760   4.738  15.477  0.2181 -0.4812 -0.1932
 2606TIP3    H129309   4.821   4.715  15.407 -0.8773  0.7640 -1.6464
 2606TIP3    H229310   4.691   4.672  15.471 -0.2501  0.0476 -0.8225
 2607TIP3   OH229311   0.693   3.156  17.158  0.5235  0.3841 -0.2678
 2607TIP3    H129312   0.715   3.065  17.181  0.7287  0.2128 -1.1110
 2607TIP3    H229313   0.738   3.209  17.225  0.1540 -0.1403  0.4077
 2608TIP3   OH229314   4.080   5.065  17.015 -0.0174  0.0206 -0.0734
 2608TIP3    H129315   3.994   5.104  16.999  0.2266  1.0260  0.9473
 2608TIP3    H229316   4.064   4.971  17.015 -0.6985  0.0864 -2.1796
 2609TIP3   OH229317   6.231   0.362   2.290  0.2705 -0.7753  0.4015
 2609TIP3    H129318   6.154   0.413   2.266 -0.1222 -1.7555 -0.4830
 2609TIP3    H229319   6.305   0.418   2.267 -0.1538 -0.5631 -0.4818
 2610TIP3   OH229320   6.702   3.629   5.796 -0.3203  0.1599 -0.0026
 2610TIP3    H129321   6.623   3.677   5.820 -1.0897 -0.0408 -1.9398
 2610TIP3    H229322   6.700   3.625   5.701  2.8866  1.5395 -0.2812
 2611TIP3   OH229323   2.770   2.784  16.111 -0.3217 -0.0657  0.4974
 2611TIP3    H129324   2.769   2.742  16.025  2.3878  0.6346  0.0277
 2611TIP3    H229325   2.819   2.724  16.167 -0.0424  0.5596  0.9380
 2612TIP3   OH229326   1.150   2.731   3.153  0.0774 -0.4663 -0.0619
 2612TIP3    H129327   1.094   2.741   3.077 -0.5959 -0.1550  0.4643
 2612TIP3    H229328   1.143   2.815   3.200  1.0147 -0.4033 -0.0063
 2613TIP3   OH229329   4.561   2.534   5.070 -0.1771 -0.1818  1.1208
 2613TIP3    H129330   4.612   2.455   5.090 -1.5959 -0.8346  2.3618
 2613TIP3    H229331   4.586   2.597   5.138 -0.8485 -0.4321  1.6082
 2614TIP3   OH229332   6.173   5.879   4.592  0.1424  0.1237  0.2485
 2614TIP3    H129333   6.140   5.820   4.659  2.9485 -0.4380  1.2540
 2614TIP3    H229334   6.188   5.822   4.516  0.0911  0.1365  0.2285
 2615TIP3   OH229335   1.964   1.824  13.693  0.7264 -0.1141  0.2927
 2615TIP3    H129336   1.958   1.806  13.600  2.9919  0.6145 -0.0706
 2615TIP3    H229337   1.894   1.887  13.711 -0.2036 -0.8296 -0.7234
 2616TIP3   OH229338   4.116   4.251  16.724 -0.4903  0.8611  0.7533
 2616TIP3    H129339   4.131   4.341  16.695  1.0508 -0.1882 -2.0086
 2616TIP3    H229340   4.202   4.218  16.750 -0.5390 -0.5821 -0.7585
 2617TIP3   OH229341   3.060   2.643   1.148 -0.3513  0.5609  0.4043
 2617TIP3    H129342   2.975   2.602   1.167 -0.3458  1.0080  1.4350
 2617TIP3    H229343   3.044   2.695   1.069 -0.9684  0.4448  0.4457
 2618TIP3   OH229344   4.602   5.640  17.027  0.2887  0.0387 -0.3812
 2618TIP3    H129345   4.548   5.637  16.948 -1.5156  0.7048  0.7802
 2618TIP3    H229346   4.574   5.718  17.073 -1.3037 -2.1244  2.6651
 2619TIP3   OH229347   5.944   5.179  14.264  1.0248  0.0252  0.4917
 2619TIP3    H129348   6.013   5.113  14.267  0.2054 -0.8510  0.8052
 2619TIP3    H229349   5.990   5.262  14.264  2.0754 -0.5345  1.0480
 2620TIP3   OH229350   3.610   3.742  13.326  0.0978  0.0889 -0.4899
 2620TIP3    H129351   3.617   3.770  13.234  1.6886 -2.5523 -1.2793
 2620TIP3    H229352   3.664   3.805  13.374  1.1150  0.2026 -1.7114
 2621TIP3   OH229353   5.021   5.294   3.498  0.3425 -0.1641  0.0502
 2621TIP3    H129354   5.115   5.290   3.511  0.2928 -3.2216  0.1025
 2621TIP3    H229355   4.985   5.309   3.586  0.7114 -3.0029  0.7789
 2622TIP3   OH229356   6.376   3.269  17.130  0.2896 -0.6125  0.4629
 2622TIP3    H129357   6.458   3.280  17.082  0.0643  0.2881  0.2667
 2622TIP3    H229358   6.392   3.307  17.216 -1.0030  3.1958 -0.7572
 2623TIP3   OH229359   0.505   2.298   6.332  0.1685  0.1187 -0.1545
 2623TIP3    H129360   0.447   2.350   6.387  0.5752 -0.2038  0.6005
 2623TIP3    H229361   0.475   2.208   6.344  2.0685 -0.3354  1.9219
 2624TIP3   OH229362   0.579   1.147  14.142 -0.2771 -0.3116 -0.6414
 2624TIP3    H129363   0.494   1.149  14.099 -0.8579  1.3515  0.4643
 2624TIP3    H229364   0.622   1.228  14.112  0.1723 -0.2391  0.1817
 2625TIP3   OH229365   4.317   5.122   3.007 -0.7082  0.0597  0.1374
 2625TIP3    H129366   4.362   5.088   3.084  0.4198  0.8918 -0.1325
 2625TIP3    H229367   4.381   5.116   2.937 -0.4535  2.5700  0.0422
 2626TIP3   OH229368   1.044   6.058   4.065 -0.7053 -0.1779 -0.7259
 2626TIP3    H129369   1.096   6.100   4.133 -1.4822 -0.4596  0.0468
 2626TIP3    H229370   0.954   6.083   4.084 -0.7898  1.2733 -2.7209
 2627TIP3   OH229371   3.207   4.906   1.872 -0.1549  0.2185  0.6225
 2627TIP3    H129372   3.285   4.941   1.830  1.4179 -1.3873  2.0413
 2627TIP3    H229373   3.181   4.832   1.816 -0.6699  0.7345  0.1666
 2628TIP3   OH229374   6.487   0.199  13.986  0.1579 -0.1065 -0.8945
 2628TIP3    H129375   6.462   0.240  14.068 -0.9448 -1.0733 -0.7216
 2628TIP3    H229376   6.504   0.272  13.927 -0.0624  0.5964 -0.1117
 2629TIP3   OH229377   2.101   5.460  16.662 -0.1351  0.4445  0.6315
 2629TIP3    H129378   2.094   5.551  16.690 -0.2568  0.1095  1.7634
 2629TIP3    H229379   2.103   5.464  16.567 -0.2176  1.6229  0.6630
 2630TIP3   OH229380   6.527   6.099  15.242 -0.3322 -0.2880  0.3759
 2630TIP3    H129381   6.582   6.177  15.236  0.0523 -0.6403 -1.1916
 2630TIP3    H229382   6.445   6.124  15.199  0.3571 -1.1702 -1.5781
 2631TIP3   OH229383   4.741   0.212  17.031  0.1704 -0.2488  0.2500
 2631TIP3    H129384   4.667   0.238  16.976  0.1727  1.5877  1.0563
 2631TIP3    H229385   4.758   0.121  17.005 -0.6429  0.1225 -1.8426
 2632TIP3   OH229386   2.304   0.192  17.167 -0.1228  0.1133 -0.1763
 2632TIP3    H129387   2.290   0.258  17.235  0.0739  0.4917 -0.4991
 2632TIP3    H229388   2.367   0.131  17.206 -1.6127 -0.8776  0.7862
 2633TIP3   OH229389   2.589   6.436   2.448 -0.4232  0.3026 -0.1980
 2633TIP3    H129390   2.585   6.365   2.513  0.5814 -0.6837 -1.1814
 2633TIP3    H229391   2.628   6.396   2.371  1.1191  2.1917 -0.4582
 2634TIP3   OH229392   6.570   5.324   4.347 -0.1138 -0.0558  0.1359
 2634TIP3    H129393   6.622   5.250   4.317  1.4585  1.0306  0.0850
 2634TIP3    H229394   6.622   5.364   4.417 -2.2503 -0.6689  2.2035
 2635TIP3   OH229395   2.112   4.532  12.938  0.1005 -0.3838  0.2140
 2635TIP3    H129396   2.017   4.518  12.934  0.1466 -0.4419 -1.1942
 2635TIP3    H229397   2.146   4.485  12.862  1.6889 -3.2668  2.5156
 2636TIP3   OH229398   6.356   0.090   3.965  0.0102 -0.1034 -0.0268
 2636TIP3    H129399   6.398   0.133   3.891  0.9107  1.2440  1.1944
 2636TIP3    H229400   6.392   0.001   3.966  1.0853  0.3190 -0.3537
 2637TIP3   OH229401   4.841   1.104   5.507  0.8941 -0.7076 -0.5074
 2637TIP3    H129402   4.771   1.145   5.456  0.6095 -0.1231  0.3270
 2637TIP3    H229403   4.810   1.109   5.598  1.3703 -1.7588 -0.2764
 2638TIP3   OH229404   2.052   1.882   5.143  0.4407 -0.1531 -0.5266
 2638TIP3    H129405   2.014   1.970   5.141  1.3196  0.2515 -0.1396
 2638TIP3    H229406   2.039   1.853   5.234  2.2939  0.5865  0.0358
 2639TIP3   OH229407   4.449   1.053   0.130  0.1020  0.4021  0.2503
 2639TIP3    H129408   4.467   1.007   0.048  0.0382 -0.1281  0.5259
 2639TIP3    H229409   4.354   1.062   0.132  0.0720  0.0858  0.4319
 2640TIP3   OH229410   2.777   3.279   2.724  0.0380  0.4189 -0.1497
 2640TIP3    H129411   2.722   3.219   2.674  0.1446 -0.5538  0.8443
 2640TIP3    H229412   2.797   3.351   2.664 -3.1595  1.3669 -0.2481
 2641TIP3   OH229413   2.724   4.523  12.534 -0.4358  0.0510  0.2536
 2641TIP3    H129414   2.660   4.462  12.497 -0.3760  0.4555 -0.5365
 2641TIP3    H229415   2.702   4.608  12.495  1.4126 -0.0474 -1.1702
 2642TIP3   OH229416   5.005   5.082   2.517 -0.0777  0.2451  0.0201
 2642TIP3    H129417   5.042   5.006   2.472  0.7551  1.1417 -0.8883
 2642TIP3    H229418   5.062   5.154   2.492 -1.0677  1.2460  0.5412
 2643TIP3   OH229419   0.636   5.679  16.923 -0.3161  0.2472 -0.1342
 2643TIP3    H129420   0.696   5.637  16.862  1.1378  0.9034  0.8013
 2643TIP3    H229421   0.576   5.730  16.868  0.2288 -0.0960 -1.0589
 2644TIP3   OH229422   2.728   1.384   4.450 -0.0799 -0.4378  0.1516
 2644TIP3    H129423   2.681   1.304   4.474  0.0306 -1.0867 -1.6294
 2644TIP3    H229424   2.709   1.396   4.357  1.4551  0.5462 -0.0721
 2645TIP3   OH229425   6.507   2.429  13.569 -0.8045  0.1743 -0.0969
 2645TIP3    H129426   6.438   2.412  13.505 -2.8171  0.2250  1.9252
 2645TIP3    H229427   6.486   2.516  13.604 -0.7663 -0.5066  1.7499
 2646TIP3   OH229428   3.084   3.211  12.396 -0.3082 -0.8320 -0.0993
 2646TIP3    H129429   3.137   3.150  12.343  0.7667  0.5831 -0.7480
 2646TIP3    H229430   3.074   3.167  12.480  1.0235 -1.6348 -0.3150
 2647TIP3   OH229431   3.692   4.768   3.185 -0.0726 -0.4862 -0.1350
 2647TIP3    H129432   3.689   4.688   3.239  1.5546 -0.8283 -0.5099
 2647TIP3    H229433   3.622   4.756   3.121  1.5631 -2.6962 -1.6226
 2648TIP3   OH229434   4.052   6.286  10.201 -0.1081  0.1365 -0.2910
 2648TIP3    H129435   4.022   6.198  10.180  1.5958 -0.6612  0.4171
 2648TIP3    H229436   3.980   6.325  10.250 -0.1085 -1.6398  1.2402
 2649TIP3   OH229437   1.120   0.734  14.482  0.0539 -0.0878  0.1464
 2649TIP3    H129438   1.191   0.677  14.510  1.8395  2.0088  0.1111
 2649TIP3    H229439   1.163   0.805  14.434 -2.1905  0.5830 -1.0275
 2650TIP3   OH229440   5.680   6.269  11.377 -0.3503  0.0971  0.2440
 2650TIP3    H129441   5.713   6.223  11.454 -0.7131  0.0054  0.3453
 2650TIP3    H229442   5.588   6.287  11.397 -0.0489  1.5062  0.5209
 2651TIP3   OH229443   2.485   5.290  11.328  0.1796  0.3226  0.0258
 2651TIP3    H129444   2.502   5.285  11.423 -0.2453 -1.8399  0.0448
 2651TIP3    H229445   2.394   5.317  11.322  0.3180  0.8522  0.2080
 2652TIP3   OH229446   5.314   2.797  17.263 -0.2298  0.0369  0.2798
 2652TIP3    H129447   5.359   2.880  17.247 -2.9620  1.7578  0.9403
 2652TIP3    H229448   5.235   2.802  17.210 -0.5868 -2.0843  0.5190
 2653TIP3   OH229449   1.451   1.660   2.083  0.2841  0.1466  0.0914
 2653TIP3    H129450   1.412   1.737   2.125 -2.2969 -1.9444  1.8290
 2653TIP3    H229451   1.477   1.604   2.156  0.7556 -1.3004 -1.1399
 2654TIP3   OH229452   1.948   5.474  11.851 -0.1424  0.2011 -0.3607
 2654TIP3    H129453   1.998   5.554  11.835  1.0724 -0.8856 -2.5947
 2654TIP3    H229454   1.892   5.465  11.774  0.0410 -1.2775 -0.3559
 2655TIP3   OH229455   5.787   2.256  17.044 -0.5147  0.0880  0.1556
 2655TIP3    H129456   5.839   2.179  17.021  0.1852  0.7493 -0.5529
 2655TIP3    H229457   5.710   2.221  17.090  1.2217 -0.8544  2.5819
 2656TIP3   OH229458   0.769   5.059   3.898  0.4102 -0.6188 -0.1138
 2656TIP3    H129459   0.832   5.130   3.896  1.7782 -1.7815 -0.4818
 2656TIP3    H229460   0.761   5.032   3.806 -0.4471 -0.6282 -0.0406
 2657TIP3   OH229461   0.429   5.828   4.528 -0.2179 -0.0635 -0.1588
 2657TIP3    H129462   0.429   5.832   4.432 -0.7775 -0.4993 -0.1849
 2657TIP3    H229463   0.463   5.741   4.548 -2.5352 -1.0332 -0.0559
 2658TIP3   OH229464   4.681   6.774   0.600 -0.2981  0.1507 -0.5391
 2658TIP3    H129465   4.727   6.783   0.684 -1.7491  2.6818  0.1228
 2658TIP3    H229466   4.751   6.770   0.535  0.8695  0.3325  0.6445
 2659TIP3   OH229467   5.530   6.499  13.013  0.8503  0.3662  0.3510
 2659TIP3    H129468   5.474   6.506  13.090  0.3286  0.9179 -0.0753
 2659TIP3    H229469   5.551   6.406  13.007 -0.1157  0.1317  0.4523
 2660TIP3   OH229470   5.760   1.387   3.520 -0.1879 -0.1647 -0.1080
 2660TIP3    H129471   5.809   1.398   3.602  1.1834 -0.6072 -0.8255
 2660TIP3    H229472   5.826   1.357   3.457 -0.9154  1.5340 -1.7512
 2661TIP3   OH229473   4.544   1.516  16.390  0.3086  0.4196  0.4233
 2661TIP3    H129474   4.451   1.517  16.415 -0.1325 -0.4921 -1.0392
 2661TIP3    H229475   4.553   1.588  16.328  0.8016  1.0538  1.2119
 2662TIP3   OH229476   0.909   0.784  12.588 -0.5651 -0.0266 -0.1652
 2662TIP3    H129477   0.931   0.692  12.606  0.6198  0.3884  0.6150
 2662TIP3    H229478   0.871   0.782  12.501 -1.4481 -1.3901  0.2139
 2663TIP3   OH229479   4.249   0.820  12.376 -0.2091  0.2216 -0.6942
 2663TIP3    H129480   4.184   0.818  12.446 -0.9962  1.4161 -1.3630
 2663TIP3    H229481   4.262   0.913  12.358  0.7924 -0.0388 -1.3992
 2664TIP3   OH229482   3.060   0.775   4.472 -0.1048  0.2551  0.3579
 2664TIP3    H129483   2.993   0.840   4.489  0.1640 -0.1059  3.3084
 2664TIP3    H229484   3.125   0.789   4.541  0.0611 -2.9520  0.9998
 2665TIP3   OH229485   0.836   1.284   6.168  0.6470 -0.1268  0.1347
 2665TIP3    H129486   0.761   1.278   6.108  0.2916 -0.0309  0.5617
 2665TIP3    H229487   0.825   1.210   6.228  0.5345  0.2579  0.5984
 2666TIP3   OH229488   1.886   6.057  14.187 -0.0659  0.3860  0.1091
 2666TIP3    H129489   1.887   5.964  14.165  1.5220  0.4676 -0.2773
 2666TIP3    H229490   1.894   6.102  14.103 -0.5914  0.8869  0.3133
 2667TIP3   OH229491   6.165   1.108   1.079  0.0693  0.1635 -0.4324
 2667TIP3    H129492   6.218   1.144   1.007  1.7175  2.4616  1.7732
 2667TIP3    H229493   6.098   1.174   1.094  0.7880  0.5670  1.2022
 2668TIP3   OH229494   4.746   6.118   0.646  0.0327 -0.4792  1.1879
 2668TIP3    H129495   4.828   6.087   0.684 -0.0129 -0.7565  1.0642
 2668TIP3    H229496   4.771   6.150   0.559 -0.1342 -1.3868  0.8016
 2669TIP3   OH229497   4.599   4.512  11.646 -0.3028 -0.1070  0.4328
 2669TIP3    H129498   4.514   4.555  11.655 -0.4336  0.2709 -1.9754
 2669TIP3    H229499   4.663   4.583  11.655 -0.4348  0.2886 -1.3710
 2670TIP3   OH229500   5.052   3.720   4.370 -0.3530 -0.0393  0.0427
 2670TIP3    H129501   5.124   3.715   4.433  0.5840 -0.9175 -1.0658
 2670TIP3    H229502   5.010   3.805   4.389  1.1147  0.6075  0.5392
 2671TIP3   OH229503   3.898   5.014   2.123 -0.3290 -0.4079  0.1102
 2671TIP3    H129504   3.888   4.956   2.048  1.4995 -0.4095 -0.1801
 2671TIP3    H229505   3.823   4.995   2.179 -0.3518 -2.2513 -0.4943
 2672TIP3   OH229506   5.165   5.329  11.710  0.2193  0.4880 -0.2291
 2672TIP3    H129507   5.257   5.306  11.697 -0.1495 -0.6739 -0.8461
 2672TIP3    H229508   5.165   5.425  11.710  1.4189  0.5106 -0.2368
 2673TIP3   OH229509   5.426   6.145   1.462 -0.0556  0.3567 -0.8871
 2673TIP3    H129510   5.348   6.145   1.517  0.4350  1.5801 -0.1360
 2673TIP3    H229511   5.413   6.218   1.402  0.5431  0.6406 -0.6829
 2674TIP3   OH229512   1.146   2.443  12.168 -0.2576  0.3739  0.1538
 2674TIP3    H129513   1.135   2.516  12.107  1.5990  0.7087  0.1607
 2674TIP3    H229514   1.057   2.424  12.198 -0.8206  2.6513  0.1835
 2675TIP3   OH229515   3.516   3.297   0.092 -0.1196  0.1578 -0.0306
 2675TIP3    H129516   3.608   3.272   0.090 -0.4854 -1.3862  0.7156
 2675TIP3    H229517   3.471   3.231   0.039 -0.8416  0.6665 -0.0723
 2676TIP3   OH229518   2.206   1.781   5.680  0.0862 -0.1620 -0.3908
 2676TIP3    H129519   2.133   1.724   5.707  0.7561  0.0288  2.0185
 2676TIP3    H229520   2.276   1.720   5.656 -0.2033 -0.3266 -0.8531
 2677TIP3   OH229521   0.613   2.206   3.498  0.0899  0.0020  0.2425
 2677TIP3    H129522   0.646   2.200   3.588 -1.6290 -0.2500  0.8925
 2677TIP3    H229523   0.619   2.116   3.465 -0.3972 -0.1472  0.5417
 2678TIP3   OH229524   1.400   6.000  16.600 -0.3559 -0.1352  0.0399
 2678TIP3    H129525   1.367   5.912  16.616 -2.1107  0.7167  1.6065
 2678TIP3    H229526   1.363   6.025  16.515 -1.7041 -0.1590  0.5901
 2679TIP3   OH229527   0.463   0.946   5.772  0.2332 -0.0273  0.1683
 2679TIP3    H129528   0.494   0.990   5.694  2.0880  0.6815  1.2402
 2679TIP3    H229529   0.542   0.919   5.818 -0.8180 -2.4458  0.7293
 2680TIP3   OH229530   4.106   4.711   5.558  0.5041 -0.8900 -0.0883
 2680TIP3    H129531   4.109   4.691   5.652 -0.4555  0.0890  0.1616
 2680TIP3    H229532   4.169   4.782   5.547  0.0986 -0.5257 -0.0599
 2681TIP3   OH229533   4.497   2.634  17.137  0.0168 -0.0701 -0.2804
 2681TIP3    H129534   4.536   2.676  17.214  1.4674  0.4087 -1.2380
 2681TIP3    H229535   4.442   2.703  17.098  0.7320  0.2817 -0.6809
 2682TIP3   OH229536   4.353   4.545  13.492  0.0584  0.5329  0.2451
 2682TIP3    H129537   4.348   4.528  13.586  3.7877  1.2467  0.7394
 2682TIP3    H229538   4.307   4.627  13.479 -1.6645 -0.2510  1.1691
 2683TIP3   OH229539   1.949   4.051   5.678  0.2742  0.2474  0.3070
 2683TIP3    H129540   2.021   4.028   5.737 -0.1530  1.2273  1.2335
 2683TIP3    H229541   1.872   4.054   5.734 -0.2299  0.6978 -0.3993
 2684TIP3   OH229542   5.803   1.267   2.320  0.4993 -0.3801  0.1240
 2684TIP3    H129543   5.730   1.281   2.259  1.5272  0.3188 -0.9958
 2684TIP3    H229544   5.835   1.354   2.338  1.9524 -0.7500 -0.5485
 2685TIP3   OH229545   5.695   5.108   3.151  0.0425  0.1707 -0.5998
 2685TIP3    H129546   5.609   5.134   3.118 -0.9280 -1.5428  0.4220
 2685TIP3    H229547   5.744   5.082   3.072 -0.7188  0.2310 -1.1011
 2686TIP3   OH229548   5.755   1.284   0.591 -0.1405 -0.1579 -0.0866
 2686TIP3    H129549   5.804   1.217   0.638 -1.3034 -1.0962 -0.1763
 2686TIP3    H229550   5.810   1.305   0.515  0.8494 -0.0177  0.6455
 2687TIP3   OH229551   4.867   5.072   4.967 -0.0454  0.1122 -0.1489
 2687TIP3    H129552   4.961   5.052   4.961  0.1531  0.8203  0.4672
 2687TIP3    H229553   4.861   5.166   4.952 -0.7465 -0.0423 -0.9185
 2688TIP3   OH229554   4.120   5.607   2.581  0.1904 -0.1746  0.0722
 2688TIP3    H129555   4.093   5.523   2.618 -2.4751 -0.7600 -2.7692
 2688TIP3    H229556   4.044   5.664   2.591  1.1058  1.1592 -0.1617
 2689TIP3   OH229557   0.881   2.343   5.347 -0.2763  0.3119 -0.3271
 2689TIP3    H129558   0.899   2.437   5.340 -2.2109  0.6534 -1.3862
 2689TIP3    H229559   0.804   2.338   5.404 -1.3890 -0.4564 -1.8378
 2690TIP3   OH229560   1.044   4.272  16.911  0.0947  0.1839  0.4551
 2690TIP3    H129561   1.052   4.186  16.869  0.1065 -0.3502  1.5319
 2690TIP3    H229562   0.984   4.258  16.984 -1.4432  1.5218 -0.4688
 2691TIP3   OH229563   3.325   6.189   3.574 -0.2745  0.2056  0.2489
 2691TIP3    H129564   3.265   6.139   3.630 -1.9328 -0.3179 -1.8670
 2691TIP3    H229565   3.370   6.123   3.522  1.2158  0.6894  0.8738
 2692TIP3   OH229566   2.174   5.856  15.823 -0.4755  0.7273 -0.0078
 2692TIP3    H129567   2.267   5.854  15.845 -0.9034 -0.4554  2.0233
 2692TIP3    H229568   2.171   5.866  15.728  1.7322  0.2174 -0.1769
 2693TIP3   OH229569   1.423   4.810   1.187 -0.1320 -0.5507  1.0031
 2693TIP3    H129570   1.463   4.843   1.107 -4.4199  2.3013 -0.3271
 2693TIP3    H229571   1.470   4.856   1.258 -1.0181  2.8734 -0.4397
 2694TIP3   OH229572   4.444   4.945  13.315  0.6053 -0.4871  0.2885
 2694TIP3    H129573   4.526   4.903  13.289  0.6693  0.2818 -0.8181
 2694TIP3    H229574   4.445   5.029  13.269 -0.0837  0.2098  1.4917
 2695TIP3   OH229575   0.530   0.862   6.244 -0.2992 -0.4205 -0.3237
 2695TIP3    H129576   0.535   0.891   6.336  0.1353 -0.3411 -0.3697
 2695TIP3    H229577   0.444   0.891   6.215  0.3201  1.3366 -0.5281
 2696TIP3   OH229578   0.063   6.618  12.847 -0.0140  0.2379  0.2898
 2696TIP3    H129579   0.052   6.698  12.898  0.0502  0.3429  0.1396
 2696TIP3    H229580  -0.008   6.621  12.783  0.1897  0.3415  0.0676
 2697TIP3   OH229581   0.431   1.718   6.288 -0.2093  0.5315 -0.3151
 2697TIP3    H129582   0.348   1.693   6.330  0.0350  1.0634  0.4963
 2697TIP3    H229583   0.444   1.651   6.221  1.2206 -2.5482  2.7444
 2698TIP3   OH229584   5.864   5.391  10.963  0.0375  0.0791 -0.0796
 2698TIP3    H129585   5.836   5.366  10.875 -1.0557  0.3562  0.1751
 2698TIP3    H229586   5.959   5.386  10.960  0.0718  0.9855 -1.5655
 2699TIP3   OH229587   6.526   5.905   5.796 -0.2260 -0.1906  0.0073
 2699TIP3    H129588   6.550   5.839   5.861 -0.3980 -0.8604 -0.6016
 2699TIP3    H229589   6.586   5.978   5.812 -0.1207 -0.4393  0.7682
 2700TIP3   OH229590   5.631   0.726  14.315 -0.2281  0.3603 -0.1576
 2700TIP3    H129591   5.572   0.800  14.301 -1.2845 -0.5791 -0.9052
 2700TIP3    H229592   5.633   0.714  14.410 -1.9963 -0.1228 -0.1351
 2701TIP3   OH229593   4.794   6.415  10.494 -0.0103 -0.0546 -0.0824
 2701TIP3    H129594   4.882   6.390  10.465  0.2987  0.6949  0.1809
 2701TIP3    H229595   4.735   6.372  10.432  0.6013  0.6190 -1.1662
 2702TIP3   OH229596   2.250   1.295   2.580 -0.7894  0.0916 -0.1743
 2702TIP3    H129597   2.291   1.373   2.542 -0.9330  0.4821  0.4502
 2702TIP3    H229598   2.159   1.300   2.551 -0.8209  0.2062 -0.0551
 2703TIP3   OH229599   3.149   6.259  16.931 -0.2153  0.0402  0.1608
 2703TIP3    H129600   3.147   6.354  16.918 -0.2442 -0.0433 -0.4896
 2703TIP3    H229601   3.174   6.224  16.846 -0.5538 -0.5573  0.3002
 2704TIP3   OH229602   4.136   2.095  16.746  0.0806 -0.3007  0.3354
 2704TIP3    H129603   4.117   2.126  16.835  1.2892 -0.3881  0.6401
 2704TIP3    H229604   4.066   2.033  16.727  0.8462 -1.7583  1.9940
 2705TIP3   OH229605   5.968   2.049   6.015 -0.1385  0.3992 -0.0186
 2705TIP3    H129606   5.927   2.111   6.075 -2.8290 -0.8585 -0.3893
 2705TIP3    H229607   5.914   1.970   6.022 -1.4140  0.5096 -4.8774
 2706TIP3   OH229608   1.320   6.791   6.074  0.3141  0.5823 -0.3954
 2706TIP3    H129609   1.402   6.830   6.103  0.3768  0.5891 -0.5768
 2706TIP3    H229610   1.334   6.696   6.084  0.3999  0.5756 -0.5629
 2707TIP3   OH229611   3.196   0.308   1.874  0.1656 -0.2391 -0.0165
 2707TIP3    H129612   3.242   0.391   1.862 -1.1932  0.7580  1.3269
 2707TIP3    H229613   3.214   0.282   1.964 -0.1549 -0.9578 -0.1472
 2708TIP3   OH229614   0.077   4.947  11.463 -0.0892  0.1593  0.1047
 2708TIP3    H129615   0.081   4.868  11.409  0.5996 -0.3305  0.8378
 2708TIP3    H229616   0.106   4.917  11.550  1.1318  1.4146  0.1654
 2709TIP3   OH229617   6.220   5.789  10.988  0.1704  0.1064  0.1029
 2709TIP3    H129618   6.149   5.769  11.048 -0.3139  0.9158 -0.1938
 2709TIP3    H229619   6.300   5.769  11.038 -0.2534 -1.9135  0.0483
 2710TIP3   OH229620   3.072   5.229  14.982 -0.0818 -0.2314  0.3650
 2710TIP3    H129621   3.127   5.155  14.955  0.4030  0.2147  0.1289
 2710TIP3    H229622   3.066   5.284  14.903  0.0764  0.2982  0.7180
 2711TIP3   OH229623   4.593   0.266  16.206  0.2476  0.1002  0.0831
 2711TIP3    H129624   4.684   0.291  16.226 -0.0958 -0.3299  2.5295
 2711TIP3    H229625   4.601   0.187  16.152  1.3102  0.5077 -0.3872
 2712TIP3   OH229626   3.051   2.731   2.854  0.2823 -0.3136 -0.4067
 2712TIP3    H129627   3.025   2.809   2.805 -0.9802 -0.9012 -0.7167
 2712TIP3    H229628   3.138   2.751   2.887  0.7342  0.5014 -2.0270
 2713TIP3   OH229629   6.647   0.318   2.151 -0.2959  0.5809 -0.1101
 2713TIP3    H129630   6.704   0.371   2.096 -2.6616  3.3493 -0.1144
 2713TIP3    H229631   6.591   0.272   2.089 -0.8361  1.1945 -0.0891
 2714TIP3   OH229632   2.822   1.503   1.369 -0.0807 -0.8067 -0.1174
 2714TIP3    H129633   2.866   1.512   1.454 -2.0584 -1.1475  1.0160
 2714TIP3    H229634   2.887   1.461   1.313  2.6353  2.7466  0.0417
 2715TIP3   OH229635   0.945   0.662  14.268 -0.5125  0.0521  0.1128
 2715TIP3    H129636   0.889   0.694  14.339 -0.8744 -3.1838  1.4632
 2715TIP3    H229637   1.031   0.650  14.308 -0.7605 -1.9697  0.1187
 2716TIP3   OH229638   2.506   4.068   3.061 -0.1171 -0.3018  0.2145
 2716TIP3    H129639   2.490   4.051   2.968 -1.9773  0.9931  0.2516
 2716TIP3    H229640   2.538   3.984   3.095 -0.8870 -1.2457 -1.2711
 2717TIP3   OH229641   1.834   3.426  16.327  0.3111 -0.5332 -0.2942
 2717TIP3    H129642   1.924   3.396  16.314  0.5082 -0.9453  1.6843
 2717TIP3    H229643   1.780   3.350  16.303  0.5746 -0.8215  0.0158
 2718TIP3   OH229644   1.391   4.027  14.913  0.0455  0.0056 -0.2379
 2718TIP3    H129645   1.369   4.034  15.006 -0.4241 -0.0040 -0.3423
 2718TIP3    H229646   1.364   3.938  14.889  0.2121 -0.0096 -0.3699
 2719TIP3   OH229647   3.124   5.412  17.154 -0.5135  0.0856  0.0797
 2719TIP3    H129648   3.171   5.403  17.071 -2.4798  0.5078 -1.1477
 2719TIP3    H229649   3.095   5.503  17.156 -0.6766  0.0200  1.1216
 2720TIP3   OH229650   6.087   5.485  15.689  0.0507  0.2516  0.2452
 2720TIP3    H129651   6.159   5.532  15.648  0.6954  0.9003  2.0324
 2720TIP3    H229652   6.029   5.553  15.723 -0.9503 -0.2647 -0.3580
 2721TIP3   OH229653   3.514   3.993  14.184 -0.3207 -0.4035  0.1055
 2721TIP3    H129654   3.551   3.934  14.249  0.8615 -0.5935 -0.7219
 2721TIP3    H229655   3.529   3.950  14.100 -0.8165  0.3630 -0.3939
 2722TIP3   OH229656   3.739   5.372  14.921  0.2349 -0.0598 -0.1760
 2722TIP3    H129657   3.710   5.363  14.830  1.3209 -1.8676 -0.3817
 2722TIP3    H229658   3.820   5.322  14.926  0.3803  0.2885  1.7151
 2723TIP3   OH229659   0.336   4.004  12.451 -0.1770 -0.0551 -0.0323
 2723TIP3    H129660   0.329   4.041  12.539  0.3968 -0.2340  0.0950
 2723TIP3    H229661   0.431   3.998  12.435 -0.2766 -0.0877 -0.6327
 2724TIP3   OH229662   3.614   2.193   2.022  0.3829  0.4342 -0.6346
 2724TIP3    H129663   3.568   2.151   2.094  1.4846 -0.1182 -0.2309
 2724TIP3    H229664   3.571   2.278   2.012  1.1990  1.1843  1.6984
 2725TIP3   OH229665   5.345   2.396  14.390 -0.3337 -0.2525 -0.3184
 2725TIP3    H129666   5.261   2.438  14.411 -0.3439  0.4278 -1.6042
 2725TIP3    H229667   5.328   2.303  14.398 -1.2667 -0.1253 -0.6658
 2726TIP3   OH229668   4.673   2.343  11.175 -0.1966 -0.2761 -0.1299
 2726TIP3    H129669   4.709   2.304  11.254  1.3490  0.2450 -0.5429
 2726TIP3    H229670   4.679   2.274  11.109 -3.3158 -1.3986  0.5940
 2727TIP3   OH229671   1.820   2.920  11.398 -0.2563 -0.0723  0.0109
 2727TIP3    H129672   1.812   2.969  11.481 -0.6919 -0.0669 -0.0306
 2727TIP3    H229673   1.830   2.829  11.425 -0.0505 -0.0319  0.0758
 2728TIP3   OH229674   4.362   4.679   3.831 -0.2721  0.2575 -0.2190
 2728TIP3    H129675   4.269   4.657   3.822 -0.2648 -0.9883  1.9607
 2728TIP3    H229676   4.363   4.768   3.867 -0.5327  1.0275 -2.0446
 2729TIP3   OH229677   0.683   0.100   1.873 -0.1443 -0.3494 -0.2644
 2729TIP3    H129678   0.689   0.004   1.871 -0.6788 -0.4038  0.3675
 2729TIP3    H229679   0.755   0.129   1.818  1.0112 -1.0999  0.7706
 2730TIP3   OH229680   6.700   1.994  11.413  0.3120 -0.5521 -0.1411
 2730TIP3    H129681   6.734   2.053  11.346  0.1296 -1.3926 -0.9846
 2730TIP3    H229682   6.617   1.962  11.379 -0.4985  0.1038  1.1279
 2731TIP3   OH229683   1.873   1.336  15.085  0.2274 -0.4104 -0.0344
 2731TIP3    H129684   1.928   1.365  15.158 -0.8031 -1.2617  1.1394
 2731TIP3    H229685   1.864   1.242  15.098 -0.2891 -0.5136 -1.0584
 2732TIP3   OH229686   3.132   2.349   1.515  0.1450  0.1185 -0.5207
 2732TIP3    H129687   3.138   2.270   1.462 -2.0682 -0.6420  0.2492
 2732TIP3    H229688   3.158   2.420   1.457  2.6976 -1.1575 -1.0891
 2733TIP3   OH229689   3.889   3.618   1.908 -0.3138  0.1347 -0.2792
 2733TIP3    H129690   3.966   3.673   1.893 -0.9614  0.4581 -2.6751
 2733TIP3    H229691   3.843   3.661   1.980  0.4149  1.3688 -0.5179
 2734TIP3   OH229692   6.092   4.496   5.171 -0.0444  0.1291 -0.0432
 2734TIP3    H129693   6.034   4.546   5.228  1.0600  0.5708  0.7253
 2734TIP3    H229694   6.062   4.405   5.180 -0.9825  0.4213 -0.1240
 2735TIP3   OH229695   2.947   0.624  15.345  0.7718  0.0379  0.1195
 2735TIP3    H129696   2.985   0.582  15.422 -0.9508 -3.5393 -0.7585
 2735TIP3    H229697   2.853   0.622  15.360  0.4785  0.4285 -1.4990
 2736TIP3   OH229698   0.574   6.687   2.531 -0.5039 -0.1452 -0.0884
 2736TIP3    H129699   0.665   6.660   2.546 -0.4033  0.7130  0.9760
 2736TIP3    H229700   0.522   6.611   2.559 -0.1091 -1.2132 -2.1008
 2737TIP3   OH229701   5.832   3.556   3.947 -0.2136 -0.8458 -0.8690
 2737TIP3    H129702   5.886   3.541   4.024 -3.1915  0.5194  1.7028
 2737TIP3    H229703   5.784   3.474   3.934 -1.1187 -0.4599 -0.0250
 2738TIP3   OH229704   5.039   5.961  16.008 -0.5357  0.2805  0.0066
 2738TIP3    H129705   5.075   6.028  15.949 -1.9695 -0.3619 -1.6862
 2738TIP3    H229706   4.977   6.009  16.063 -1.6874  0.3532 -1.3128
 2739TIP3   OH229707   0.040   1.360  14.802 -0.3622  0.6042 -0.0942
 2739TIP3    H129708   0.058   1.319  14.887 -0.0586  0.5184 -0.1967
 2739TIP3    H229709   0.054   1.454  14.817 -1.6626  0.7563  0.2975
 2740TIP3   OH229710   0.973   3.115   1.510 -0.5208 -0.7842  0.3520
 2740TIP3    H129711   0.908   3.185   1.500  1.6605  1.3994  0.4455
 2740TIP3    H229712   1.000   3.095   1.420 -1.4982 -1.9405  0.2889
 2741TIP3   OH229713   2.015   2.625  12.860  0.2271 -0.3506 -0.3394
 2741TIP3    H129714   2.088   2.604  12.918  0.1942 -0.3967 -0.3151
 2741TIP3    H229715   1.944   2.652  12.919  0.2501 -0.2290 -0.3675
 2742TIP3   OH229716   3.810   4.327  15.327  0.1210  0.1409 -0.3857
 2742TIP3    H129717   3.827   4.416  15.357  2.0029  0.2550 -1.6472
 2742TIP3    H229718   3.715   4.321  15.323 -0.0456  2.0643 -0.2248
 2743TIP3   OH229719   5.331   3.961   4.498  0.0551  0.1254 -0.3976
 2743TIP3    H129720   5.307   3.979   4.588  2.1488  0.4889  0.1530
 2743TIP3    H229721   5.325   3.866   4.489  1.1668 -0.0651  0.5909
 2744TIP3   OH229722   1.526   5.609   4.157  0.2360 -0.3692  0.3918
 2744TIP3    H129723   1.445   5.661   4.154  0.4046 -0.1444 -1.2050
 2744TIP3    H229724   1.554   5.603   4.066  1.6945 -0.9854  0.8484
 2745TIP3   OH229725   3.973   6.802  13.903  0.4570  0.3814 -0.3573
 2745TIP3    H129726   3.893   6.757  13.932  1.2212 -1.1989 -0.6081
 2745TIP3    H229727   3.949   6.894  13.902 -1.0791  0.0305  0.5073
 2746TIP3   OH229728   0.036   5.813   5.243  0.7831 -0.4433 -0.3884
 2746TIP3    H129729   0.033   5.907   5.256  0.5221 -0.2681 -1.6073
 2746TIP3    H229730   0.128   5.789   5.256  1.0514  0.1505 -1.1309
 2747TIP3   OH229731   0.106   0.661  17.194  0.0459 -0.8572 -0.1554
 2747TIP3    H129732   0.137   0.580  17.234  2.0470 -0.0894 -0.0121
 2747TIP3    H229733   0.154   0.668  17.112 -0.5599 -0.1137 -0.4614
 2748TIP3   OH229734   5.286   0.807   0.173  0.1540 -0.6543  0.1885
 2748TIP3    H129735   5.359   0.773   0.224  0.3400 -0.7609 -0.1491
 2748TIP3    H229736   5.303   0.779   0.083 -1.1909 -2.1934  0.3731
 2749TIP3   OH229737   0.449   4.281  16.184  0.0696  0.4691 -0.3445
 2749TIP3    H129738   0.395   4.233  16.121 -0.4088 -1.5672  1.4807
 2749TIP3    H229739   0.494   4.212  16.234  0.3712  1.9622  1.5601
 2750TIP3   OH229740   0.496   1.775   3.162 -0.7971  0.3174 -0.2899
 2750TIP3    H129741   0.478   1.685   3.136  2.1369 -0.3557 -0.3082
 2750TIP3    H229742   0.564   1.804   3.102 -0.3728  1.9213  0.9058
 2751TIP3   OH229743   1.105   4.858   2.386  0.1585  0.4701 -0.4182
 2751TIP3    H129744   1.045   4.826   2.319  1.5778 -0.2054 -1.4078
 2751TIP3    H229745   1.096   4.795   2.458 -1.0051  0.9230 -0.1342
 2752TIP3   OH229746   4.899   3.615  12.769 -0.1204 -0.4651  0.5471
 2752TIP3    H129747   4.933   3.580  12.686 -0.4970 -0.6129  0.4550
 2752TIP3    H229748   4.904   3.710  12.758  2.2786 -0.4331  1.3571
 2753TIP3   OH229749   5.373   0.789  15.665  0.0397  0.0126 -0.1047
 2753TIP3    H129750   5.399   0.864  15.718 -0.5871 -0.3258  0.7030
 2753TIP3    H229751   5.292   0.816  15.623 -1.4708 -0.9920  2.0130
 2754TIP3   OH229752   1.029   2.260  17.272  0.6628  0.1569 -0.4923
 2754TIP3    H129753   1.051   2.191  17.210 -0.2422 -1.4494  0.8999
 2754TIP3    H229754   0.954   2.227  17.320 -1.5175  3.1956 -1.4879
 2755TIP3   OH229755   4.697   2.529  16.833 -0.5175  0.5611 -0.1158
 2755TIP3    H129756   4.714   2.435  16.835  0.8687  0.7809 -0.1616
 2755TIP3    H229757   4.633   2.541  16.762 -0.6431 -0.3309 -0.1620
 2756TIP3   OH229758   0.208   0.591  12.311  0.5530 -0.1923  0.7767
 2756TIP3    H129759   0.157   0.513  12.289 -0.8177  0.9912 -0.5206
 2756TIP3    H229760   0.240   0.624  12.227  2.1610 -0.0226  1.4246
 2757TIP3   OH229761   0.860   1.063  15.948  0.2882  0.2547 -0.0654
 2757TIP3    H129762   0.822   0.976  15.957 -0.6758  0.6769  0.2114
 2757TIP3    H229763   0.932   1.066  16.010 -0.3448  0.0015  0.6846
 2758TIP3   OH229764   1.981   2.837  11.082  0.4353 -0.1027  0.4257
 2758TIP3    H129765   1.950   2.787  11.006 -0.9839  0.4823  0.5860
 2758TIP3    H229766   2.073   2.853  11.064  0.9577 -2.8189  0.4087
 2759TIP3   OH229767   1.061   3.844  11.534 -0.0780 -0.4629  0.2595
 2759TIP3    H129768   0.982   3.798  11.563  0.1156 -0.3598  0.9895
 2759TIP3    H229769   1.040   3.876  11.446 -0.3296 -1.6779 -0.1410
 2760TIP3   OH229770   1.783   3.363   2.660  0.3269  0.0750 -0.4603
 2760TIP3    H129771   1.830   3.286   2.693 -0.1442 -0.2740 -0.5907
 2760TIP3    H229772   1.850   3.417   2.620  0.9429  0.5429  1.1092
 2761TIP3   OH229773   2.942   1.571   1.733  0.6625 -0.2638 -0.1994
 2761TIP3    H129774   2.958   1.663   1.715 -0.8532  0.2695  0.9536
 2761TIP3    H229775   2.984   1.555   1.817 -0.5413 -0.1435  0.4422
 2762TIP3   OH229776   0.339   5.027  15.101 -0.0567  0.4863  1.0961
 2762TIP3    H129777   0.355   4.956  15.039  1.3539 -0.2103  2.2105
 2762TIP3    H229778   0.406   5.016  15.168 -1.0902  1.6482  2.3785
 2763TIP3   OH229779   0.440   0.279  13.443 -0.0521  0.1867  0.2406
 2763TIP3    H129780   0.499   0.314  13.376  1.9882 -1.6384  0.9459
 2763TIP3    H229781   0.394   0.207  13.399 -0.7365  0.7192  0.0755
 2764TIP3   OH229782   3.198   2.040   2.505  0.0761  0.6853  0.7383
 2764TIP3    H129783   3.119   2.013   2.552 -0.0389 -0.2455  0.0327
 2764TIP3    H229784   3.182   2.131   2.481  0.3510  1.3760  2.9166
 2765TIP3   OH229785   0.307   3.338   5.218  0.1673 -0.0805 -0.5500
 2765TIP3    H129786   0.282   3.247   5.206  1.6573 -0.2895 -2.5797
 2765TIP3    H229787   0.318   3.348   5.313  1.1465 -2.3393 -0.3755
 2766TIP3   OH229788   1.021   0.264   1.928  0.4223  0.2030  0.2883
 2766TIP3    H129789   0.960   0.252   1.856  0.7680  0.6396 -0.0763
 2766TIP3    H229790   1.101   0.297   1.888  0.6668  0.3179  0.8527
 2767TIP3   OH229791   4.173   3.054   3.423 -0.3801  0.1886  0.3694
 2767TIP3    H129792   4.262   3.021   3.409 -0.2161  0.3450  1.0082
 2767TIP3    H229793   4.127   2.980   3.464 -0.8079 -0.2085 -0.7739
 2768TIP3   OH229794   0.876   6.783   0.493  0.3553  0.4596  0.0752
 2768TIP3    H129795   0.841   6.758   0.408  3.5859  0.6508 -1.4891
 2768TIP3    H229796   0.951   6.724   0.506 -1.2753 -1.0729  3.9330
 2769TIP3   OH229797   3.543   3.103  17.137 -0.1907 -0.3231  0.1396
 2769TIP3    H129798   3.558   3.048  17.060 -1.5609 -0.5729  0.0316
 2769TIP3    H229799   3.505   3.183  17.102 -0.0458 -0.1039  0.4815
 2770TIP3   OH229800   0.914   4.015   0.912 -0.3514  0.3024  0.0549
 2770TIP3    H129801   0.918   4.061   0.829 -0.0601  2.2891  1.1073
 2770TIP3    H229802   0.997   4.035   0.955 -0.8277  0.0322  1.1574
 2771TIP3   OH229803   1.534   1.634  14.799 -0.1487 -0.0537  0.1036
 2771TIP3    H129804   1.578   1.572  14.857  0.7967  0.4364 -0.0610
 2771TIP3    H229805   1.487   1.693  14.858  0.9384  0.5448  0.4212
 2772TIP3   OH229806   0.626   2.072  13.327  0.1875 -0.6314 -0.3347
 2772TIP3    H129807   0.625   1.989  13.373  1.0817 -0.8558 -0.7055
 2772TIP3    H229808   0.685   2.127  13.378  0.3514 -0.5361 -0.6263
 2773TIP3   OH229809   4.946   0.045   6.439  0.1448 -0.3083 -0.0981
 2773TIP3    H129810   4.855   0.071   6.452 -0.2485 -2.1160  1.1267
 2773TIP3    H229811   4.941  -0.041   6.397  1.2180 -1.0566  1.1997
 2774TIP3   OH229812   6.339   0.170  11.760  0.0693 -0.1423 -0.2867
 2774TIP3    H129813   6.264   0.206  11.807 -0.8400  0.2835 -1.9839
 2774TIP3    H229814   6.306   0.152  11.672  1.1648 -2.7776 -0.2629
 2775TIP3   OH229815   1.460   3.157   6.398  0.6012  0.1306  0.3340
 2775TIP3    H129816   1.392   3.175   6.463  0.7441  2.2903 -0.0302
 2775TIP3    H229817   1.418   3.099   6.334 -0.2513 -0.1679  1.1454
 2776TIP3   OH229818   4.132   0.734   4.267 -0.2825  0.0865 -0.1458
 2776TIP3    H129819   4.150   0.790   4.343 -1.0387 -0.4449  0.4324
 2776TIP3    H229820   4.081   0.789   4.208 -1.7818 -0.2224  0.8033
 2777TIP3   OH229821   4.483   6.759  12.894  0.2181  0.5082 -0.5904
 2777TIP3    H129822   4.550   6.752  12.962 -0.2873  1.6086  0.0570
 2777TIP3    H229823   4.426   6.683  12.908  1.3017 -0.4212 -1.1335
 2778TIP3   OH229824   2.980   4.090   4.355  0.3643 -0.2660  0.1483
 2778TIP3    H129825   3.011   4.045   4.434  0.7186  0.7872  0.6298
 2778TIP3    H229826   2.890   4.117   4.377 -0.1859 -1.5109 -0.4805
 2779TIP3   OH229827   4.888   4.717   1.229  0.1150 -0.6079 -0.6589
 2779TIP3    H129828   4.929   4.769   1.299 -0.9880  0.1904 -0.5901
 2779TIP3    H229829   4.944   4.639   1.222  0.6108 -0.4001  0.6724
 2780TIP3   OH229830   6.753   1.915   2.851  0.3292 -0.3154 -0.0834
 2780TIP3    H129831   6.661   1.927   2.875  0.3212 -1.6592  0.6286
 2780TIP3    H229832   6.752   1.847   2.784  0.8677 -0.9111  0.5037
 2781TIP3   OH229833   6.144   0.993   4.686  0.0497 -0.8894 -0.2608
 2781TIP3    H129834   6.184   1.071   4.724 -1.6540 -0.5498  0.9857
 2781TIP3    H229835   6.181   0.920   4.736 -2.1336 -0.4521  2.2319
 2782TIP3   OH229836   6.789   6.373   2.031 -0.0445 -0.2512  0.3403
 2782TIP3    H129837   6.707   6.324   2.036 -2.4454  3.4260  1.4165
 2782TIP3    H229838   6.808   6.396   2.122  0.8511  0.9192 -0.1164
 2783TIP3   OH229839   0.632   1.664  16.620  0.2304  0.3680  0.1881
 2783TIP3    H129840   0.709   1.714  16.591  0.7930 -1.0687 -0.8844
 2783TIP3    H229841   0.627   1.680  16.714  2.5988 -0.4853  0.5111
 2784TIP3   OH229842   2.835   2.941   5.233 -0.7092  0.0710  0.2552
 2784TIP3    H129843   2.821   2.912   5.323 -0.8287  0.0562  0.2329
 2784TIP3    H229844   2.747   2.945   5.195 -0.7424  0.8966  0.3904
 2785TIP3   OH229845   1.982   2.427   6.371  0.5512 -1.2471 -0.7301
 2785TIP3    H129846   1.888   2.436   6.360  0.7933  0.8630 -1.6041
 2785TIP3    H229847   2.009   2.509   6.414  1.9678 -1.8748 -0.3493
 2786TIP3   OH229848   1.369   5.102  15.485 -0.1834  0.0705 -0.1462
 2786TIP3    H129849   1.418   5.048  15.548 -1.1613  1.1947  1.6529
 2786TIP3    H229850   1.278   5.099  15.517 -0.2917  2.6499 -0.0272
 2787TIP3   OH229851   1.147   6.065  11.460  0.1883  0.2040  0.3771
 2787TIP3    H129852   1.107   6.069  11.373 -0.1984  1.8000  0.5913
 2787TIP3    H229853   1.105   5.990  11.503  0.8492 -0.9913 -1.0021
 2788TIP3   OH229854   4.096   1.213   4.948  0.1203 -0.2160  0.5250
 2788TIP3    H129855   4.153   1.176   5.015 -0.2515  0.1664  1.0604
 2788TIP3    H229856   4.038   1.272   4.996  0.1923  0.4634 -0.2020
 2789TIP3   OH229857   5.108   3.442  11.833  0.0298  0.3565 -0.4328
 2789TIP3    H129858   5.168   3.484  11.894  1.2332 -3.2089  1.0994
 2789TIP3    H229859   5.024   3.439  11.879  0.5792 -1.0408  0.5470
 2790TIP3   OH229860   1.616   4.749   0.433  0.3687 -0.2307 -0.5827
 2790TIP3    H129861   1.578   4.663   0.417 -0.8329  0.3704 -1.0850
 2790TIP3    H229862   1.542   4.809   0.431  1.2109  0.8529 -0.4763
 2791TIP3   OH229863   5.080   5.490   3.302 -0.3245  0.4645  0.2290
 2791TIP3    H129864   5.071   5.422   3.369 -0.5242  0.4258  0.1654
 2791TIP3    H229865   5.063   5.444   3.220 -2.1488  0.9135  0.3054
 2792TIP3   OH229866   0.105   3.084  12.998 -0.2833 -0.4067  0.0323
 2792TIP3    H129867   0.166   3.020  13.034 -0.9240  0.1711  2.3131
 2792TIP3    H229868   0.159   3.143  12.946  0.7823 -1.0457  0.3942
 2793TIP3   OH229869   5.653   1.542   5.545 -0.3881 -0.2335 -0.6796
 2793TIP3    H129870   5.581   1.594   5.509 -1.1148 -0.5693  0.2286
 2793TIP3    H229871   5.659   1.570   5.637  1.6250  0.8459 -1.0793
 2794TIP3   OH229872   2.666   0.271  14.631  0.1537  0.0600  0.4819
 2794TIP3    H129873   2.649   0.336  14.700  1.7477 -1.5136  2.4822
 2794TIP3    H229874   2.728   0.315  14.572  0.2297  0.8114  1.0990
 2795TIP3   OH229875   1.293   3.488  14.545 -0.6102 -0.0042 -0.0317
 2795TIP3    H129876   1.234   3.564  14.549  0.3555  0.7341  0.5236
 2795TIP3    H229877   1.316   3.471  14.637  1.9655  1.2816 -0.3465
 2796TIP3   OH229878   1.343   2.888  16.967  0.2397  0.0834  0.7510
 2796TIP3    H129879   1.426   2.888  17.014  0.1280 -1.3824  0.9832
 2796TIP3    H229880   1.277   2.875  17.034  0.1010 -2.3731  0.2318
 2797TIP3   OH229881   3.775   4.629  12.687 -0.1669 -0.3131  0.1664
 2797TIP3    H129882   3.725   4.606  12.609 -0.0240 -0.3197  0.0761
 2797TIP3    H229883   3.722   4.598  12.761 -1.6561  2.1693  0.2196
 2798TIP3   OH229884   3.691   2.077   0.128 -0.2945  0.3255 -0.5812
 2798TIP3    H129885   3.671   2.148   0.068  0.2086 -0.1452 -1.3199
 2798TIP3    H229886   3.715   2.121   0.210  1.4756  1.0807 -1.4521
 2799TIP3   OH229887   3.002   0.893   3.124 -0.3078  0.5188  0.3211
 2799TIP3    H129888   2.907   0.888   3.123 -0.2575 -1.4482 -1.2947
 2799TIP3    H229889   3.023   0.973   3.075 -1.0994  1.1175  0.9375
 2800TIP3   OH229890   4.794   5.893  16.359  0.7646  0.1885  0.1554
 2800TIP3    H129891   4.788   5.843  16.441  1.4704 -0.2732 -0.0679
 2800TIP3    H229892   4.778   5.984  16.386  2.1979  0.2157  1.0190
 2801TIP3   OH229893   0.473   5.637  16.136 -0.6324  0.2821 -0.0235
 2801TIP3    H129894   0.533   5.661  16.065 -0.0007 -1.9896 -0.3280
 2801TIP3    H229895   0.511   5.677  16.214 -0.5950  1.6730 -0.7139
 2802TIP3   OH229896   5.766   1.525  14.098 -0.5587  0.2255 -0.2100
 2802TIP3    H129897   5.857   1.553  14.109 -1.0647  2.6809 -1.5083
 2802TIP3    H229898   5.714   1.599  14.132 -2.0715 -0.8503 -0.1014
 2803TIP3   OH229899   0.471   2.609  15.399 -0.2100 -0.1481  0.0944
 2803TIP3    H129900   0.393   2.631  15.449 -1.7175 -0.8247 -1.8127
 2803TIP3    H229901   0.544   2.647  15.448 -1.6988  0.2529  2.0846
 2804TIP3   OH229902   3.412   2.180   1.471  0.0172  0.3197 -0.1301
 2804TIP3    H129903   3.442   2.260   1.514 -1.6454  0.6095  0.5645
 2804TIP3    H229904   3.488   2.150   1.420  0.5531  2.5275 -0.7026
 2805TIP3   OH229905   2.764   4.366  11.632  0.3643 -0.2807  0.4372
 2805TIP3    H129906   2.753   4.318  11.714 -0.7615 -1.0196 -0.1294
 2805TIP3    H229907   2.692   4.337  11.577  0.7595  0.6568 -0.6103
 2806TIP3   OH229908   2.856   2.157  12.190  0.1570 -0.2454  0.0533
 2806TIP3    H129909   2.806   2.235  12.213 -0.1785 -0.5270  0.2766
 2806TIP3    H229910   2.892   2.176  12.104 -0.9022 -0.3208 -0.4192
 2807TIP3   OH229911   6.477   2.298   2.811  0.2953 -0.1683  0.1992
 2807TIP3    H129912   6.459   2.370   2.751 -0.4365  0.0309  0.6455
 2807TIP3    H229913   6.437   2.325   2.894 -3.0730 -2.5469 -0.4673
 2808TIP3   OH229914   1.362   4.596   0.335 -0.0287 -0.6097 -0.1177
 2808TIP3    H129915   1.345   4.573   0.426 -1.0998 -0.0140 -0.1504
 2808TIP3    H229916   1.357   4.692   0.333 -0.5491 -0.6387 -0.8899
 2809TIP3   OH229917   1.444   6.593  12.941  0.1515  0.1665 -0.0915
 2809TIP3    H129918   1.403   6.571  13.025  0.8076 -2.3654 -0.3528
 2809TIP3    H229919   1.489   6.675  12.957  1.1420 -0.7700  2.4028
 2810TIP3   OH229920   3.474   2.343   0.358 -0.1170  0.2858 -0.1852
 2810TIP3    H129921   3.559   2.326   0.397 -0.3809 -0.8158 -0.0362
 2810TIP3    H229922   3.411   2.307   0.421 -0.6104 -0.2558 -0.9672
 2811TIP3   OH229923   5.040   2.615   2.091  0.3188 -0.4913 -0.4385
 2811TIP3    H129924   4.983   2.631   2.015  1.0072  1.0911 -0.6609
 2811TIP3    H229925   5.094   2.694   2.097  0.8543 -0.9531  1.2003
 2812TIP3   OH229926   2.439   6.440  10.981 -0.2184  0.1750  0.4894
 2812TIP3    H129927   2.460   6.414  10.892  0.9153  1.0724  0.4666
 2812TIP3    H229928   2.523   6.469  11.018 -0.5376 -0.8194  2.0748
 2813TIP3   OH229929   0.445   6.037   2.940 -0.4879  0.8389 -0.4171
 2813TIP3    H129930   0.502   5.975   2.986  0.6636  0.5722 -2.1229
 2813TIP3    H229931   0.377   5.982   2.900  0.3147  0.6679 -1.6084
 2814TIP3   OH229932   3.184   0.456  11.020 -0.3831 -0.0470  0.0088
 2814TIP3    H129933   3.097   0.416  11.025 -0.6142  0.5526  1.1807
 2814TIP3    H229934   3.167   0.549  11.002  0.0981 -0.2069 -1.4207
 2815TIP3   OH229935   3.750   3.592  12.679  0.3938 -0.0821 -0.3995
 2815TIP3    H129936   3.844   3.575  12.676  0.0233 -2.5945 -0.2912
 2815TIP3    H229937   3.716   3.549  12.600 -0.6347  1.1590 -0.6605
 2816TIP3   OH229938   4.534   6.146   0.821  0.1960 -0.2315  0.3808
 2816TIP3    H129939   4.614   6.128   0.772 -1.4555 -1.5565 -2.0409
 2816TIP3    H229940   4.518   6.065   0.871  0.1863 -0.1098  0.5746
 2817TIP3   OH229941   2.923   1.392   2.512 -0.8513 -0.1295  0.1345
 2817TIP3    H129942   2.882   1.417   2.596  0.0649 -0.2831  0.6388
 2817TIP3    H229943   2.879   1.447   2.447 -1.8239 -0.2570  0.6662
 2818TIP3   OH229944   4.202   1.584   6.092 -0.4593 -0.1318  1.4207
 2818TIP3    H129945   4.151   1.663   6.074 -1.6890 -1.3252 -0.8337
 2818TIP3    H229946   4.138   1.512   6.084  1.2248 -1.5837  0.0215
 2819TIP3   OH229947   6.246   4.580   4.500 -0.3891 -0.7177 -0.2259
 2819TIP3    H129948   6.317   4.638   4.526  0.1337 -1.7229  0.6954
 2819TIP3    H229949   6.217   4.613   4.415 -0.0343  0.7919  0.2067
 2820TIP3   OH229950   3.861   4.291  17.265  0.0339  0.0962  0.3827
 2820TIP3    H129951   3.927   4.353  17.295 -1.1510  1.4786  0.2692
 2820TIP3    H229952   3.792   4.295  17.331 -0.2148 -0.8594  0.1976
 2821TIP3   OH229953   1.108   3.933   5.876  0.0338  0.5887 -0.3499
 2821TIP3    H129954   1.108   3.899   5.966  0.5426 -0.8555 -0.8637
 2821TIP3    H229955   1.199   3.958   5.860  0.1620 -0.1258 -0.7902
 2822TIP3   OH229956   6.416   3.699  14.366 -0.2640 -0.1127 -0.6005
 2822TIP3    H129957   6.428   3.788  14.401 -1.5808  0.8373 -2.3631
 2822TIP3    H229958   6.321   3.689  14.358 -0.1193 -1.5623 -0.7808
 2823TIP3   OH229959   2.915   2.845   0.510 -0.1770  0.1732  0.0847
 2823TIP3    H129960   2.963   2.795   0.444 -0.1883  0.6806 -0.3211
 2823TIP3    H229961   2.859   2.781   0.554 -0.1615 -0.1710 -0.3942
 2824TIP3   OH229962   6.760   0.925  10.774 -0.4031 -0.0738  0.5528
 2824TIP3    H129963   6.778   1.017  10.755  0.0240  0.9409  4.8946
 2824TIP3    H229964   6.666   0.923  10.793 -0.6715 -0.8477 -0.7820
 2825TIP3   OH229965   1.050   1.178  12.784  0.1961 -0.2956  0.1823
 2825TIP3    H129966   0.959   1.207  12.783 -0.5655 -2.4976 -0.9756
 2825TIP3    H229967   1.073   1.173  12.876 -0.2299  1.9454  0.4753
 2826TIP3   OH229968   6.278   1.009   1.459  0.0757 -0.1622 -0.0947
 2826TIP3    H129969   6.323   1.002   1.375 -1.8008 -0.4399 -1.1215
 2826TIP3    H229970   6.305   1.094   1.494  1.8564 -0.5734 -0.3381
 2827TIP3   OH229971   0.381   1.701   1.066 -0.3109 -0.0344  0.9016
 2827TIP3    H129972   0.422   1.626   1.023 -1.7932  0.8144 -2.3109
 2827TIP3    H229973   0.294   1.670   1.093 -1.6495  0.7956 -2.0345
 2828TIP3   OH229974   0.841   3.327   2.629  0.0003  0.2184  0.5678
 2828TIP3    H129975   0.796   3.268   2.689  1.1235  0.0566  1.2755
 2828TIP3    H229976   0.813   3.299   2.542 -1.4160  0.2679  0.9947
 2829TIP3   OH229977   3.112   3.809  16.524 -0.2226  0.1020  0.5285
 2829TIP3    H129978   3.055   3.769  16.589 -0.6816  2.7734  1.9160
 2829TIP3    H229979   3.198   3.771  16.541 -0.5246  0.0461  2.1248
 2830TIP3   OH229980   2.539   6.036   0.243  0.0689 -0.0737  0.4746
 2830TIP3    H129981   2.495   5.968   0.294  0.8689  0.5736  2.0893
 2830TIP3    H229982   2.580   6.092   0.308 -0.9296  2.2487 -0.7659
 2831TIP3   OH229983   5.858   6.027  16.732  0.2640  0.5688 -0.6143
 2831TIP3    H129984   5.885   5.953  16.786  1.1535  0.5964 -0.9973
 2831TIP3    H229985   5.803   6.080  16.790  0.2600  0.0115 -0.0971
 2832TIP3   OH229986   5.063   6.634   3.679  0.3644  0.7627 -0.1004
 2832TIP3    H129987   4.979   6.605   3.716  0.1406 -0.4678 -1.4698
 2832TIP3    H229988   5.040   6.708   3.623  0.2501  0.7225 -0.1080
 2833TIP3   OH229989   4.204   3.563   4.718 -0.1451 -0.1893  0.1768
 2833TIP3    H129990   4.267   3.492   4.732 -1.1419 -1.5044 -1.6291
 2833TIP3    H229991   4.152   3.565   4.799  0.9557 -0.3369  0.9203
 2834TIP3   OH229992   6.628   1.892   3.504 -0.1728 -0.0784 -0.3241
 2834TIP3    H129993   6.671   1.911   3.587 -0.5876  0.4097 -0.2113
 2834TIP3    H229994   6.672   1.949   3.441  0.6587 -1.0081 -0.5947
 2835TIP3   OH229995   3.779   0.316  11.641 -0.2385  0.5726 -0.1170
 2835TIP3    H129996   3.761   0.298  11.548  0.0655  3.5631 -0.8762
 2835TIP3    H229997   3.874   0.305  11.649 -0.4572 -1.2506  0.2874
 2836TIP3   OH229998   3.865   5.999  10.984 -0.4039  0.3037  0.1893
 2836TIP3    H129999   3.938   6.020  10.927 -1.8515  1.8985 -1.2264
 2836TIP3    H230000   3.889   5.918  11.027  2.3281  0.9836  0.0850
 2837TIP3   OH230001   1.875   0.633   1.810 -0.3842 -0.2188  0.0211
 2837TIP3    H130002   1.908   0.548   1.841 -0.6324 -0.2429  0.2265
 2837TIP3    H230003   1.951   0.691   1.814 -0.3863 -0.2517  0.5762
 2838TIP3   OH230004   6.662   5.233  12.556 -0.6137 -0.2484  0.0394
 2838TIP3    H130005   6.633   5.220  12.466 -1.8459  1.0571  0.2162
 2838TIP3    H230006   6.710   5.316  12.554 -2.4866  0.9159  0.9430
 2839TIP3   OH230007   4.314   2.580  13.477  0.4860 -0.8852 -0.0149
 2839TIP3    H130008   4.400   2.614  13.454 -0.4376  3.2423  1.7701
 2839TIP3    H230009   4.258   2.605  13.404  0.1363 -0.0491  0.5204
 2840TIP3   OH230010   4.414   0.203   0.291  0.3246  0.1283 -0.0700
 2840TIP3    H130011   4.497   0.158   0.278  0.9224  0.8825  1.0261
 2840TIP3    H230012   4.430   0.292   0.258 -0.1930  0.1465 -0.2814
 2841TIP3   OH230013   5.845   3.247  13.274 -0.0400 -0.0502 -0.3563
 2841TIP3    H130014   5.787   3.223  13.202  0.8745  0.7189 -1.3823
 2841TIP3    H230015   5.909   3.176  13.278  1.0065  0.7975 -1.5471
 2842TIP3   OH230016   5.805   2.590   5.578  0.0640 -0.5435 -0.2376
 2842TIP3    H130017   5.736   2.644   5.617 -0.0637  0.6064 -1.9731
 2842TIP3    H230018   5.882   2.607   5.632 -0.9092 -1.7138  1.6286
 2843TIP3   OH230019   6.412   4.992  12.514 -0.8853  0.0951  0.1841
 2843TIP3    H130020   6.434   4.899  12.506  0.1640  0.4002 -0.6512
 2843TIP3    H230021   6.444   5.017  12.601 -1.9855 -0.5142  0.7936
 2844TIP3   OH230022   2.731   3.096   2.275  0.0984  0.0397  0.1067
 2844TIP3    H130023   2.802   3.115   2.214 -0.5941 -0.4899 -0.9104
 2844TIP3    H230024   2.704   3.182   2.308 -1.4835  0.7658 -2.6702
 2845TIP3   OH230025   6.286   4.509   3.450 -0.1732  0.1884  0.0358
 2845TIP3    H130026   6.321   4.434   3.498 -0.2404  0.3241  0.2949
 2845TIP3    H230027   6.217   4.472   3.394  0.8504 -0.1979 -1.0089
 2846TIP3   OH230028   0.237   3.165   1.468  0.5295  0.3877  0.1964
 2846TIP3    H130029   0.257   3.115   1.547 -2.2807  0.6874  1.1962
 2846TIP3    H230030   0.196   3.103   1.409  0.3880  0.6926 -0.0316
 2847TIP3   OH230031   4.177   2.651  16.239 -0.1878  0.4400 -0.0447
 2847TIP3    H130032   4.081   2.659  16.235 -0.4277 -1.4865  0.7017
 2847TIP3    H230033   4.201   2.609  16.156  0.1198  1.5894 -0.5555
 2848TIP3   OH230034   4.563   2.546  15.596 -0.0441  0.0885  0.0474
 2848TIP3    H130035   4.626   2.473  15.594  2.7600  2.3019  0.0688
 2848TIP3    H230036   4.569   2.580  15.686 -1.2723  0.3876  0.0301
 2849TIP3   OH230037   6.460   3.485   1.269  0.1097  0.5536  0.1742
 2849TIP3    H130038   6.483   3.565   1.222  0.8707  0.7203  0.8066
 2849TIP3    H230039   6.542   3.437   1.276 -0.1311  0.2173  0.7468
 2850TIP3   OH230040   3.190   6.482  13.023 -0.1027  0.1152 -0.0398
 2850TIP3    H130041   3.203   6.562  13.075 -0.9362  0.5077 -0.4192
 2850TIP3    H230042   3.120   6.435  13.069  1.7785 -1.4479  1.3782
 2851TIP3   OH230043   5.839   6.640  12.114 -0.2875  0.4020 -0.8237
 2851TIP3    H130044   5.878   6.555  12.131 -2.0638 -0.5118 -1.0548
 2851TIP3    H230045   5.853   6.689  12.195 -1.7324 -1.1414  0.4338
 2852TIP3   OH230046   5.113   2.286   1.882 -0.1307 -0.1680 -0.4668
 2852TIP3    H130047   5.158   2.214   1.838  0.9779  0.0675  0.2519
 2852TIP3    H230048   5.122   2.359   1.821 -0.1649 -0.3092 -0.6436
 2853TIP3   OH230049   0.199   3.378  14.678  0.0427 -0.3145  0.4537
 2853TIP3    H130050   0.230   3.467  14.696 -0.7808  0.1004 -0.0730
 2853TIP3    H230051   0.232   3.359  14.590  1.9099 -1.3365  1.3236
 2854TIP3   OH230052   4.864   0.378   5.204  0.2727 -0.5467  0.0809
 2854TIP3    H130053   4.770   0.377   5.187  0.1892 -0.2973  0.5338
 2854TIP3    H230054   4.903   0.408   5.122 -0.1296  0.6429  0.3063
 2855TIP3   OH230055   6.804   1.376   0.671 -0.0415  0.4093 -0.0748
 2855TIP3    H130056   6.772   1.303   0.618 -0.9277  0.6743  0.0804
 2855TIP3    H230057   6.754   1.452   0.642 -0.2242  0.6497  0.8097
 2856TIP3   OH230058   3.049   3.590   4.352  0.4449 -0.4916 -0.3809
 2856TIP3    H130059   2.985   3.547   4.409  1.2335 -3.5050 -1.5782
 2856TIP3    H230060   3.015   3.577   4.264  1.3633  0.2790 -0.8645
 2857TIP3   OH230061   4.467   0.431  11.311 -0.1571  0.6043 -0.3876
 2857TIP3    H130062   4.487   0.525  11.310  0.1321  0.5430 -0.3483
 2857TIP3    H230063   4.497   0.399  11.226 -0.1388  0.5231 -0.3504
 2858TIP3   OH230064   4.799   1.410   2.068  0.9719 -0.0373 -0.3481
 2858TIP3    H130065   4.796   1.336   2.129  1.1508  0.3682  0.1634
 2858TIP3    H230066   4.754   1.481   2.114  0.4927  0.0742 -0.9797
 2859TIP3   OH230067   5.374   5.053  16.751  0.3159 -0.3760  0.1885
 2859TIP3    H130068   5.364   5.129  16.693 -0.2478 -0.9491 -0.4809
 2859TIP3    H230069   5.293   5.004  16.741  1.1846 -1.7544 -0.3940
 2860TIP3   OH230070   6.206   2.755  12.478 -0.0321  0.1069  0.0433
 2860TIP3    H130071   6.262   2.721  12.408 -0.8622  0.9125 -1.0586
 2860TIP3    H230072   6.234   2.846  12.489 -0.9410  0.4476 -0.3489
 2861TIP3   OH230073   1.306   4.266  15.424  0.0755  0.7305 -0.3814
 2861TIP3    H130074   1.270   4.199  15.366  1.1908 -0.9554  0.7603
 2861TIP3    H230075   1.386   4.227  15.459 -0.8339  1.3430  2.7537
 2862TIP3   OH230076   0.867   4.923   5.044 -0.5461  0.4161 -0.1388
 2862TIP3    H130077   0.925   4.994   5.070  1.4207 -0.7414 -1.1558
 2862TIP3    H230078   0.844   4.879   5.125  1.8178 -0.4248  0.1229
 2863TIP3   OH230079   3.369   4.655   4.390 -0.3153 -0.2081 -0.3549
 2863TIP3    H130080   3.442   4.677   4.447  0.0185  2.7285 -1.7239
 2863TIP3    H230081   3.399   4.579   4.340  0.5913 -0.8704  1.1423
 2864TIP3   OH230082   6.374   5.210  11.752 -0.6074 -0.0682 -0.7576
 2864TIP3    H130083   6.319   5.187  11.677 -0.3410 -2.5764 -0.2722
 2864TIP3    H230084   6.343   5.154  11.823  1.1249  0.0600  0.1654
 2865TIP3   OH230085   5.122   5.087   6.050  0.1830  0.6702 -0.0424
 2865TIP3    H130086   5.074   5.028   5.992 -0.1156 -0.1093  0.9708
 2865TIP3    H230087   5.193   5.034   6.086 -0.3581  0.7796  1.2372
 2866TIP3   OH230088   1.779   6.491  14.916 -0.0952 -0.1769  0.8207
 2866TIP3    H130089   1.771   6.416  14.974  1.4853 -0.6342  0.5083
 2866TIP3    H230090   1.706   6.483  14.855 -0.1071 -1.3046  0.9677
 2867TIP3   OH230091   5.512   1.540  16.939 -0.0881  0.5848 -0.1736
 2867TIP3    H130092   5.558   1.512  16.860 -0.8056 -0.0839 -0.3610
 2867TIP3    H230093   5.562   1.502  17.011 -1.1943 -1.4776 -0.4275
 2868TIP3   OH230094   2.962   4.797  16.877 -0.0315 -0.0076 -0.1919
 2868TIP3    H130095   2.889   4.791  16.814 -1.1617  0.0733  1.0672
 2868TIP3    H230096   3.040   4.777  16.825 -0.9787 -0.3957 -1.5233
 2869TIP3   OH230097   1.179   6.625  14.041  0.2400  0.0245 -0.2600
 2869TIP3    H130098   1.268   6.617  14.007  0.8866 -0.0465  1.3616
 2869TIP3    H230099   1.163   6.542  14.086  0.5793  1.1821  2.1410
 2870TIP3   OH230100   1.933   6.120  14.875  0.2199  0.7608 -0.3394
 2870TIP3    H130101   1.943   6.200  14.928 -1.0399  0.9250 -0.3218
 2870TIP3    H230102   1.986   6.136  14.798 -0.4009  1.8393 -0.5658
 2871TIP3   OH230103   3.483   6.253  12.041 -0.5355 -0.3880 -0.0092
 2871TIP3    H130104   3.488   6.285  11.951 -0.4341  1.2220  0.5367
 2871TIP3    H230105   3.433   6.320  12.087  0.2025 -0.7232  1.3289
 2872TIP3   OH230106   1.210   5.725   2.891  0.3335  0.6219 -0.7021
 2872TIP3    H130107   1.276   5.693   2.951  1.8092  1.6211 -1.7268
 2872TIP3    H230108   1.194   5.815   2.918  0.5460  0.8765 -1.4070
 2873TIP3   OH230109   0.706   5.791  13.572  0.6433 -0.4158 -0.4502
 2873TIP3    H130110   0.783   5.759  13.619 -0.1099 -1.5697  0.0658
 2873TIP3    H230111   0.736   5.870  13.528  1.4821  0.5270  1.6663
 2874TIP3   OH230112   5.800   0.586  13.734 -0.1247  0.1782  0.1320
 2874TIP3    H130113   5.762   0.648  13.796  0.2098  0.3745  0.1451
 2874TIP3    H230114   5.857   0.640  13.679 -0.5388  0.0314 -0.4489
 2875TIP3   OH230115   5.366   0.496  11.448 -0.2556  0.3569 -0.0796
 2875TIP3    H130116   5.456   0.489  11.418 -0.4149 -0.7567 -0.3672
 2875TIP3    H230117   5.318   0.432  11.394 -1.1430  0.6727  0.3141
 2876TIP3   OH230118   2.151   1.222  12.167 -0.0107 -0.3746  0.4394
 2876TIP3    H130119   2.197   1.303  12.144 -1.8474  0.9131  1.0797
 2876TIP3    H230120   2.172   1.161  12.096  2.3483  0.2457  0.5291
 2877TIP3   OH230121   5.629   4.762   0.155 -0.6793 -0.2566 -0.5261
 2877TIP3    H130122   5.716   4.735   0.184 -0.1664  1.4921 -0.2957
 2877TIP3    H230123   5.643   4.849   0.116 -2.2669 -0.1109 -0.8319
 2878TIP3   OH230124   6.378   5.776   6.612  0.1732  0.0675 -0.0675
 2878TIP3    H130125   6.310   5.756   6.676  1.7146 -2.3667  0.9393
 2878TIP3    H230126   6.426   5.850   6.649 -1.3766  1.3142 -0.4351
 2879TIP3   OH230127   5.066   4.230   1.276 -0.4043 -0.0475  0.0270
 2879TIP3    H130128   5.100   4.310   1.236  0.0762 -0.4109 -0.2932
 2879TIP3    H230129   4.988   4.209   1.225 -0.6964  0.3633  0.2887
 2880TIP3   OH230130   4.591   1.926   2.024  0.3907  0.4366 -0.2400
 2880TIP3    H130131   4.608   1.868   1.950 -1.9867  0.0952 -0.6016
 2880TIP3    H230132   4.506   1.898   2.058 -0.9181  3.6740 -0.4606
 2881TIP3   OH230133   3.626   0.488   3.186 -0.1720 -0.1362 -0.8011
 2881TIP3    H130134   3.703   0.544   3.194  0.7955 -1.6408  1.7265
 2881TIP3    H230135   3.562   0.527   3.246  0.0590 -0.9569  0.0123
 2882TIP3   OH230136   1.332   6.168   4.650 -0.7460  0.1470  0.4965
 2882TIP3    H130137   1.285   6.095   4.611  1.2656 -1.4242  0.8329
 2882TIP3    H230138   1.418   6.168   4.607 -0.6541  2.2937  0.5505
 2883TIP3   OH230139   2.758   1.064  14.223 -0.5377 -0.0998 -0.0187
 2883TIP3    H130140   2.755   0.969  14.215 -1.3319 -0.1966  1.1781
 2883TIP3    H230141   2.709   1.097  14.148 -0.5498 -0.6338 -0.2475
 2884TIP3   OH230142   6.392   0.700   3.276 -0.1652  0.1461  0.4618
 2884TIP3    H130143   6.390   0.673   3.368  0.7977 -1.4327  0.0564
 2884TIP3    H230144   6.301   0.702   3.249 -0.4653  0.7630  1.4823
 2885TIP3   OH230145   0.561   1.060   4.162 -0.3232  0.2361 -0.1406
 2885TIP3    H130146   0.498   1.014   4.218 -0.3887 -1.1689 -1.3322
 2885TIP3    H230147   0.516   1.141   4.137 -0.6353  0.4702  1.0698
 2886TIP3   OH230148   3.429   6.358  16.884 -0.1990 -0.5837 -1.0984
 2886TIP3    H130149   3.412   6.281  16.938  0.6409 -1.3485 -1.8809
 2886TIP3    H230150   3.512   6.393  16.917 -1.8315  1.5761  0.9754
 2887TIP3   OH230151   6.523   0.390  13.797  0.1809  0.1909 -0.2212
 2887TIP3    H130152   6.472   0.461  13.837 -0.4605  0.5032 -1.5512
 2887TIP3    H230153   6.538   0.418  13.707  0.9630 -0.8255 -0.4313
 2888TIP3   OH230154   3.438   0.038  11.278 -0.1692  0.3655 -0.8400
 2888TIP3    H130155   3.394   0.111  11.235 -2.0094 -0.0680  0.2110
 2888TIP3    H230156   3.518   0.076  11.313 -1.0929  1.9021 -0.3127
 2889TIP3   OH230157   0.489   1.242  12.496 -0.6214 -0.2003 -0.2283
 2889TIP3    H130158   0.455   1.332  12.504 -1.6256 -0.6577  1.1667
 2889TIP3    H230159   0.537   1.241  12.413 -2.1807  1.1126 -1.2000
 2890TIP3   OH230160   3.534   0.443  17.263 -0.3043  0.3914 -0.0462
 2890TIP3    H130161   3.608   0.433  17.323 -0.6179  0.8684  0.4311
 2890TIP3    H230162   3.461   0.470  17.319 -0.6017  0.8563 -0.6461
 2891TIP3   OH230163   1.562   3.299   4.146 -0.1047  0.2182  0.4558
 2891TIP3    H130164   1.548   3.384   4.104 -3.0101 -1.0011 -1.3307
 2891TIP3    H230165   1.611   3.248   4.082 -0.4739 -0.2162  0.5191
 2892TIP3   OH230166   3.190   0.997   1.859 -0.2052 -0.2688 -0.0233
 2892TIP3    H130167   3.241   0.958   1.788 -0.0936 -1.3412  0.6224
 2892TIP3    H230168   3.234   0.967   1.939 -1.9847 -1.4406  0.5747
 2893TIP3   OH230169   5.626   0.578   1.483 -1.0289  0.5606  0.3568
 2893TIP3    H130170   5.636   0.641   1.412  0.7561 -1.0321 -0.9124
 2893TIP3    H230171   5.614   0.631   1.561  0.0821  2.4647 -0.6928
 2894TIP3   OH230172   3.355   6.260  12.936 -0.0936  0.2652  0.3195
 2894TIP3    H130173   3.305   6.338  12.960  0.1746  0.4096  0.4194
 2894TIP3    H230174   3.446   6.290  12.934 -0.1948  0.6150 -2.2592
 2895TIP3   OH230175   5.551   5.636  14.036 -0.0221  0.5384  0.1040
 2895TIP3    H130176   5.530   5.719  13.994  2.2996  1.2936  0.2766
 2895TIP3    H230177   5.612   5.659  14.107 -1.5070 -1.0242  2.0299
 2896TIP3   OH230178   3.656   2.409   5.019  0.1336  0.7773  0.3474
 2896TIP3    H130179   3.751   2.419   5.024  0.5695 -1.8094 -1.0700
 2896TIP3    H230180   3.633   2.439   4.931 -0.5702  2.3185  1.0125
 2897TIP3   OH230181   1.827   5.515   6.347  0.1888  0.2419  0.0316
 2897TIP3    H130182   1.779   5.593   6.377  1.5395  0.3767  2.0534
 2897TIP3    H230183   1.784   5.442   6.392 -1.0886 -0.2497 -1.8792
 2898TIP3   OH230184   4.727   6.460  11.185  0.1707  0.0268  0.8900
 2898TIP3    H130185   4.708   6.409  11.106  0.7225  0.2104  0.6358
 2898TIP3    H230186   4.677   6.540  11.174  0.4259  0.1503  0.6163
 2899TIP3   OH230187   5.853   1.720   2.254 -0.1605  0.0344  0.0229
 2899TIP3    H130188   5.842   1.652   2.320  0.0776  0.2856  0.3241
 2899TIP3    H230189   5.839   1.675   2.171 -0.0758 -0.3652  0.2220
 2900TIP3   OH230190   4.263   4.359  10.956  0.4032  0.0441  0.4526
 2900TIP3    H130191   4.272   4.309  10.876  1.0968 -1.3521  1.3683
 2900TIP3    H230192   4.228   4.444  10.928  0.3380 -0.5248 -1.2626
 2901TIP3   OH230193   4.778   4.199  13.879  0.3776  0.6230 -0.5874
 2901TIP3    H130194   4.691   4.169  13.904  0.9849 -1.4254 -0.7655
 2901TIP3    H230195   4.826   4.119  13.857  1.8956  1.8008 -1.8179
 2902TIP3   OH230196   2.889   2.368  11.482  0.2469 -0.2339  0.2334
 2902TIP3    H130197   2.869   2.415  11.563  1.5342 -1.1281  1.1087
 2902TIP3    H230198   2.815   2.387  11.424 -0.6937  0.4426  1.6079
 2903TIP3   OH230199   6.512   3.838   0.080 -0.2408  0.4896  0.4320
 2903TIP3    H130200   6.546   3.925   0.060  3.0507 -1.2981 -3.2271
 2903TIP3    H230201   6.474   3.808  -0.003  0.4744 -2.1709  0.9600
 2904TIP3   OH230202   2.344   6.102  15.561  0.1212  0.1088 -0.5246
 2904TIP3    H130203   2.322   6.181  15.511  0.1380  1.2226  1.1411
 2904TIP3    H230204   2.417   6.129  15.617  0.0482 -1.0606  0.1624
 2905TIP3   OH230205   2.415   3.384   6.361  0.0292  0.4055  0.0777
 2905TIP3    H130206   2.387   3.468   6.399  1.8619  1.0495  0.1175
 2905TIP3    H230207   2.508   3.397   6.342  0.2127 -1.4496 -0.4373
 2906TIP3   OH230208   4.149   2.075   3.198  0.5545  0.1629  0.3348
 2906TIP3    H130209   4.143   2.128   3.118 -0.3588 -0.7023 -0.1938
 2906TIP3    H230210   4.123   2.134   3.268 -0.8638  0.3204 -0.2945
 2907TIP3   OH230211   5.889   4.060  12.515 -0.1227  0.0591  0.1626
 2907TIP3    H130212   5.795   4.053  12.502  0.0211  0.0140 -0.9258
 2907TIP3    H230213   5.909   4.152  12.502  0.3436 -0.3360 -2.3728
 2908TIP3   OH230214   0.120   2.522   1.659  0.5147  0.2781  0.4499
 2908TIP3    H130215   0.027   2.512   1.639  0.7722 -0.0926 -0.6519
 2908TIP3    H230216   0.142   2.444   1.709 -0.0802  1.0793  2.0374
 2909TIP3   OH230217   5.471   5.613   0.830  0.3952 -0.3371  0.2176
 2909TIP3    H130218   5.380   5.585   0.846 -0.1191  0.3756 -1.2369
 2909TIP3    H230219   5.467   5.657   0.745  2.0658 -0.0362  0.2723
 2910TIP3   OH230220   1.767   0.027  16.669 -0.0146 -0.5065  0.0403
 2910TIP3    H130221   1.754  -0.045  16.607 -1.8667 -0.5911  0.4598
 2910TIP3    H230222   1.691   0.084  16.656  1.3998  1.4073 -0.2624
 2911TIP3   OH230223   4.569   0.727   4.313  0.4455  0.0755  0.2544
 2911TIP3    H130224   4.490   0.702   4.360  1.3020 -1.8169  0.8068
 2911TIP3    H230225   4.637   0.669   4.348  2.5730  2.9262  1.2008
 2912TIP3   OH230226   1.428   4.699   3.369 -1.1261  0.5203 -0.3279
 2912TIP3    H130227   1.415   4.785   3.408  0.9511  0.6485  0.1725
 2912TIP3    H230228   1.493   4.656   3.425 -1.0534 -0.8320 -1.3854
 2913TIP3   OH230229   1.004   1.766   4.758  0.2481 -0.4830  0.1428
 2913TIP3    H130230   0.948   1.825   4.808  1.3207  0.5376  0.1659
 2913TIP3    H230231   1.066   1.732   4.822  1.0001  0.0598 -0.2865
 2914TIP3   OH230232   1.111   3.031  13.171  0.6136  0.1973  0.0945
 2914TIP3    H130233   1.093   3.125  13.180 -1.2878  0.2040 -2.5973
 2914TIP3    H230234   1.160   3.024  13.089 -0.0710 -1.2216 -0.2227
 2915TIP3   OH230235   5.558   0.440  15.156  0.1805 -0.5803 -0.1008
 2915TIP3    H130236   5.465   0.457  15.162  0.1741 -0.1502 -1.2334
 2915TIP3    H230237   5.597   0.494  15.225 -0.3077  0.0757 -0.3297
 2916TIP3   OH230238   3.008   3.378  15.197  0.2327 -0.1920 -0.5713
 2916TIP3    H130239   2.974   3.378  15.107 -1.5989  0.1210  0.0733
 2916TIP3    H230240   2.964   3.304  15.239  0.3323  0.2419  0.3160
 2917TIP3   OH230241   6.362   1.668  17.194 -0.0075  0.1790 -0.3605
 2917TIP3    H130242   6.456   1.650  17.199 -0.3479 -1.6209  0.4284
 2917TIP3    H230243   6.333   1.624  17.114 -0.3828 -0.4477  0.1051
 2918TIP3   OH230244   1.144   4.895  12.063 -0.2523  0.2837  0.1029
 2918TIP3    H130245   1.129   4.961  11.996 -0.0487 -1.5038 -1.7942
 2918TIP3    H230246   1.223   4.849  12.035 -0.1480 -0.5037  1.5802
 2919TIP3   OH230247   6.289   2.771   3.625 -0.6631 -1.0121  0.7463
 2919TIP3    H130248   6.315   2.714   3.552  0.3696 -0.7321  0.8818
 2919TIP3    H230249   6.208   2.813   3.594 -0.7402 -1.5810  0.1360
 2920TIP3   OH230250   2.743   4.763   3.627  0.3369  0.2152  0.6649
 2920TIP3    H130251   2.708   4.708   3.697  0.3033 -0.0932  0.4055
 2920TIP3    H230252   2.764   4.702   3.556 -0.5616  0.6306  0.0227
 2921TIP3   OH230253   0.367   4.128   2.549  0.2745  0.2251 -0.4729
 2921TIP3    H130254   0.305   4.201   2.548 -0.7674 -0.6519 -1.0438
 2921TIP3    H230255   0.375   4.102   2.458  1.4986  0.3096 -0.4131
 2922TIP3   OH230256   3.967   2.083   0.206 -0.3111 -0.3952  0.1727
 2922TIP3    H130257   3.898   2.080   0.272 -0.4619 -0.3928  0.0173
 2922TIP3    H230258   4.048   2.067   0.255 -0.3632  0.1193  0.4356
 2923TIP3   OH230259   5.522   0.437  13.369 -0.1031 -0.3439  0.6027
 2923TIP3    H130260   5.533   0.530  13.349 -2.0506 -0.0757  0.5697
 2923TIP3    H230261   5.550   0.428  13.459 -2.3639  0.8688  1.5132
 2924TIP3   OH230262   3.925   4.962   5.043  0.4049  0.1900  0.3202
 2924TIP3    H130263   3.855   4.983   5.105  0.7229 -2.8546  1.8910
 2924TIP3    H230264   3.888   4.983   4.957 -1.3382  1.2967  1.2761
 2925TIP3   OH230265   1.434   4.939  13.651 -0.2401  0.2869  0.1300
 2925TIP3    H130266   1.460   4.977  13.568 -2.0898  0.0369 -0.6105
 2925TIP3    H230267   1.485   4.986  13.717  0.3791  1.3030 -1.0517
 2926TIP3   OH230268   1.270   5.211  14.955 -0.0657 -0.2060  0.0128
 2926TIP3    H130269   1.356   5.169  14.946 -0.5873 -1.4640  0.7536
 2926TIP3    H230270   1.207   5.142  14.936 -0.9540  0.1708  1.4585
 2927TIP3   OH230271   3.326   6.035   5.010  0.0779  0.3978 -0.3880
 2927TIP3    H130272   3.360   5.992   5.088  1.9734 -0.1133 -1.4477
 2927TIP3    H230273   3.362   6.123   5.014 -0.8072  0.7578 -0.1002
 2928TIP3   OH230274   5.351   6.740  14.975  0.5742  0.3202  0.1858
 2928TIP3    H130275   5.419   6.677  14.953  1.2292  1.2317 -0.4806
 2928TIP3    H230276   5.362   6.811  14.911  0.1259  1.3031  1.1581
 2929TIP3   OH230277   5.772   6.076  16.300 -0.0277 -0.8256  0.6201
 2929TIP3    H130278   5.828   6.137  16.348  0.0968  2.2577 -2.9939
 2929TIP3    H230279   5.832   6.024  16.247 -0.3223 -0.8338  0.2835
 2930TIP3   OH230280   5.014   4.982  11.447 -0.1014  0.5805 -0.1612
 2930TIP3    H130281   5.007   5.073  11.418  0.7937  0.4347 -0.8734
 2930TIP3    H230282   5.004   4.930  11.367 -0.6042  0.0426  0.2402
 2931TIP3   OH230283   5.241   5.184   3.252 -0.5548 -0.0136 -0.2591
 2931TIP3    H130284   5.269   5.235   3.328 -0.7023  0.3078 -0.4197
 2931TIP3    H230285   5.157   5.147   3.278  0.4967 -1.9011  0.6516
 2932TIP3   OH230286   0.955   6.009   3.475  0.4639  0.3910  0.3259
 2932TIP3    H130287   0.949   5.979   3.566  2.8938 -0.2865  0.3327
 2932TIP3    H230288   0.975   5.930   3.425  0.0573  0.9105 -0.6759
 2933TIP3   OH230289   5.440   0.552   2.361  0.3905  0.3427  0.0627
 2933TIP3    H130290   5.430   0.534   2.267 -0.4552 -3.0765  0.6899
 2933TIP3    H230291   5.365   0.510   2.402  0.6258  1.9331  2.3135
 2934TIP3   OH230292   0.924   4.630  13.996  0.1429  0.2837 -0.0343
 2934TIP3    H130293   0.911   4.657  14.087  1.7154  3.9420 -0.6902
 2934TIP3    H230294   0.846   4.579  13.975 -0.8065  0.2623  3.0050
 2935TIP3   OH230295   3.786   3.074  12.583  0.0543 -0.3297 -0.4730
 2935TIP3    H130296   3.771   3.103  12.672  0.5043 -0.6191 -0.3021
 2935TIP3    H230297   3.779   2.979  12.587  0.4102 -0.3675 -0.6781
 2936TIP3   OH230298   3.244   0.728  16.852  0.2083  0.3110 -0.1007
 2936TIP3    H130299   3.217   0.718  16.760  1.0442 -2.0974 -0.1649
 2936TIP3    H230300   3.276   0.818  16.858  0.4851  0.4262 -2.2988
 2937TIP3   OH230301   2.542   1.512  14.429 -0.0819  0.0924  0.2169
 2937TIP3    H130302   2.487   1.435  14.438  0.1052 -0.0151  0.4427
 2937TIP3    H230303   2.581   1.503  14.342 -0.7771  0.4056 -0.1388
 2938TIP3   OH230304   2.256   0.386   5.592 -0.0065  0.3287 -0.0776
 2938TIP3    H130305   2.216   0.449   5.652 -2.1679 -1.4054  0.4383
 2938TIP3    H230306   2.258   0.431   5.508  0.4683  1.8028  0.6931
 2939TIP3   OH230307   3.549   5.346  10.759 -0.2209 -0.0974  0.1247
 2939TIP3    H130308   3.601   5.296  10.822 -0.6631 -0.9465 -0.1627
 2939TIP3    H230309   3.518   5.280  10.697  1.3613  0.8827 -1.8235
 2940TIP3   OH230310   6.546   0.188   4.667  0.2977 -0.8149  0.2255
 2940TIP3    H130311   6.627   0.171   4.618  0.5627 -0.4002  0.5141
 2940TIP3    H230312   6.477   0.183   4.601  0.4571 -2.0882  0.1402
 2941TIP3   OH230313   1.427   1.821  10.943 -0.2049  0.3806 -0.0793
 2941TIP3    H130314   1.521   1.839  10.946  0.1129 -0.7626 -1.7747
 2941TIP3    H230315   1.407   1.777  11.025  0.9841 -0.3629 -0.1745
 2942TIP3   OH230316   3.358   1.961   0.514 -0.4268 -0.2661 -0.1576
 2942TIP3    H130317   3.309   1.991   0.437  0.4612  3.4466  0.5431
 2942TIP3    H230318   3.315   2.004   0.587  1.9827  0.6688  0.8026
 2943TIP3   OH230319   4.056   2.768   1.135 -0.2554  0.1956  0.1356
 2943TIP3    H130320   4.074   2.682   1.097 -0.4764 -0.2612  1.0465
 2943TIP3    H230321   3.979   2.755   1.190 -1.3205  1.3575 -0.9946
 2944TIP3   OH230322   3.423   1.956  13.529  0.7365  0.1038 -0.5294
 2944TIP3    H130323   3.414   2.043  13.568  1.2399 -0.1279  0.1376
 2944TIP3    H230324   3.352   1.905  13.568 -0.7713  0.6799 -2.3637
 2945TIP3   OH230325   6.003   0.479  12.203 -0.3655 -0.7923 -0.1724
 2945TIP3    H130326   6.076   0.540  12.214 -0.6868 -0.5997  1.0075
 2945TIP3    H230327   5.927   0.535  12.187 -0.2879 -0.9899 -1.3330
 2946TIP3   OH230328   5.080   2.011   0.065 -0.1592 -0.4386 -0.7976
 2946TIP3    H130329   4.997   1.966   0.081 -0.7335  0.7888 -0.2384
 2946TIP3    H230330   5.117   2.025   0.152 -0.2670  0.6476 -0.9127
 2947TIP3   OH230331   2.769   6.526   0.528 -0.4969  0.3806 -0.5611
 2947TIP3    H130332   2.677   6.525   0.502 -0.6916 -2.6440 -0.1896
 2947TIP3    H230333   2.815   6.482   0.456  0.6402  1.5599 -0.5955
 2948TIP3   OH230334   4.977   5.070   3.346  0.1019  0.6056 -0.0997
 2948TIP3    H130335   5.001   5.142   3.403  1.6232  0.6999 -0.7916
 2948TIP3    H230336   4.950   5.000   3.405 -0.4216  1.3956  0.6176
 2949TIP3   OH230337   1.333   3.193  15.720 -0.5911  0.1326  0.2109
 2949TIP3    H130338   1.353   3.284  15.699  1.1131  0.1146  1.5852
 2949TIP3    H230339   1.307   3.194  15.812 -3.1296 -0.4675 -0.3928
 2950TIP3   OH230340   2.599   3.828   0.912  0.0182  0.1178 -0.7353
 2950TIP3    H130341   2.625   3.771   0.840  0.3344  1.6135 -1.8771
 2950TIP3    H230342   2.631   3.784   0.991 -1.3157 -2.1213 -1.3562
 2951TIP3   OH230343   6.042   1.428  14.964 -0.1949  0.9554 -0.0104
 2951TIP3    H130344   5.949   1.416  14.985 -0.1156  1.3494  0.5942
 2951TIP3    H230345   6.071   1.497  15.024  0.9298 -0.3929  1.0389
 2952TIP3   OH230346   0.102   0.378  15.168 -0.8764 -0.2612 -0.1050
 2952TIP3    H130347   0.139   0.460  15.136 -0.1496 -1.0309 -1.2927
 2952TIP3    H230348   0.009   0.396  15.180 -0.8363  0.5460 -0.9743
 2953TIP3   OH230349   4.312   2.965  12.918  0.0857 -0.0888 -0.2441
 2953TIP3    H130350   4.351   2.967  12.831 -0.0034  1.4123 -0.2779
 2953TIP3    H230351   4.295   2.872  12.935 -0.2786 -0.3657 -1.9876
 2954TIP3   OH230352   4.946   1.487   3.570  0.0557 -0.0803 -0.7920
 2954TIP3    H130353   4.934   1.550   3.641  1.3427 -0.8120  0.1154
 2954TIP3    H230354   4.973   1.406   3.613  0.3458 -0.6996 -2.0717
 2955TIP3   OH230355   2.693   3.996  12.713  1.4164 -0.0628 -0.5411
 2955TIP3    H130356   2.615   3.960  12.756  0.9938  0.1647 -1.0963
 2955TIP3    H230357   2.765   3.941  12.743  1.3251  0.7400  1.3207
 2956TIP3   OH230358   5.278   3.639   3.680  0.0266 -0.8712  0.1325
 2956TIP3    H130359   5.221   3.575   3.723 -2.2170 -0.6614 -2.3079
 2956TIP3    H230360   5.366   3.605   3.692 -0.8385 -2.8266  1.4386
 2957TIP3   OH230361   3.101   6.618   0.875 -0.6792 -0.2491 -0.3763
 2957TIP3    H130362   3.158   6.541   0.881 -0.2131  0.0289 -1.1634
 2957TIP3    H230363   3.096   6.651   0.965  1.3259  0.3823 -0.4494
 2958TIP3   OH230364   0.479   1.040  12.025  0.1232  0.1796  0.6182
 2958TIP3    H130365   0.446   1.105  11.963  0.7327 -0.0474  0.0362
 2958TIP3    H230366   0.403   1.017  12.079  0.0640  1.9055  1.3347
 2959TIP3   OH230367   5.032   5.421  14.936 -0.2216  0.1032 -0.3577
 2959TIP3    H130368   5.087   5.462  14.870  0.4696 -0.6745 -0.2904
 2959TIP3    H230369   5.034   5.481  15.011 -0.0945  0.4495 -0.6386
 2960TIP3   OH230370   5.520   6.466  12.256  0.2324  0.0869  0.1697
 2960TIP3    H130371   5.473   6.501  12.180  0.9093  2.8549  0.9340
 2960TIP3    H230372   5.592   6.415  12.218  2.0198  3.3566 -1.2350
 2961TIP3   OH230373   3.072   0.639   3.190 -0.1476 -0.1413  0.2946
 2961TIP3    H130374   3.061   0.628   3.285 -0.0401 -0.4513  0.2727
 2961TIP3    H230375   3.069   0.734   3.176 -1.7245 -0.1466  0.4205
 2962TIP3   OH230376   3.408   6.567  10.960 -0.3416  0.2768 -0.2479
 2962TIP3    H130377   3.354   6.643  10.938 -1.8520  0.0478  2.3194
 2962TIP3    H230378   3.348   6.493  10.953  0.5209 -0.4118 -0.5120
 2963TIP3   OH230379   4.566   0.600  16.494 -0.3210  0.7495 -0.4867
 2963TIP3    H130380   4.477   0.583  16.462 -0.5276  2.4983 -0.9205
 2963TIP3    H230381   4.608   0.514  16.490 -1.8160 -0.0225 -0.7889
 2964TIP3   OH230382   5.449   1.135  17.282  0.3804 -0.2280 -0.9271
 2964TIP3    H130383   5.415   1.216  17.320 -0.2148 -0.4470 -0.9822
 2964TIP3    H230384   5.542   1.135  17.305 -0.0393 -0.5688  0.9513
 2965TIP3   OH230385   3.435   0.602   0.186 -0.5605 -0.0279 -0.4947
 2965TIP3    H130386   3.449   0.689   0.149 -2.1142 -0.1190 -1.3477
 2965TIP3    H230387   3.523   0.571   0.206 -0.0014  2.0854  0.6923
 2966TIP3   OH230388   5.966   2.666  11.431  0.0571 -0.1114 -0.2209
 2966TIP3    H130389   5.998   2.747  11.469  0.0104 -0.8941  1.5898
 2966TIP3    H230390   5.919   2.693  11.352  3.4784  1.2329 -1.9824
 2967TIP3   OH230391   6.196   4.056  14.159 -0.3969 -0.2938  1.3972
 2967TIP3    H130392   6.125   4.120  14.160  1.0312  1.3773  2.8450
 2967TIP3    H230393   6.276   4.109  14.169  1.2453 -1.9421 -1.5236
 2968TIP3   OH230394   3.774   6.070   1.447 -0.3926  0.1631  0.5378
 2968TIP3    H130395   3.774   6.059   1.543 -1.8325 -1.8862  0.3555
 2968TIP3    H230396   3.743   5.986   1.413  1.3928  0.3500 -1.8273
 2969TIP3   OH230397   2.668   5.019   5.200  0.6213 -0.1385 -0.0287
 2969TIP3    H130398   2.740   5.081   5.193  0.1127  1.0488  3.3290
 2969TIP3    H230399   2.693   4.961   5.272  0.0678 -2.4829 -1.6290
 2970TIP3   OH230400   5.720   3.683  12.674  0.1412 -0.4852 -0.6821
 2970TIP3    H130401   5.625   3.676  12.689 -0.0929  0.5031 -1.5547
 2970TIP3    H230402   5.748   3.753  12.733  0.5218 -1.3984  0.2567
 2971TIP3   OH230403   6.586   0.903  13.882  0.7403 -0.3525  0.6027
 2971TIP3    H130404   6.578   0.944  13.796  1.5833 -2.8418 -0.7813
 2971TIP3    H230405   6.499   0.911  13.921 -1.2616 -3.4239 -2.6471
 2972TIP3   OH230406   1.106   6.784   0.256 -0.4401  0.1856 -0.2077
 2972TIP3    H130407   1.091   6.719   0.188 -1.9633 -0.2444  0.4987
 2972TIP3    H230408   1.147   6.858   0.211 -2.8050  0.5431 -1.9116
 2973TIP3   OH230409   3.474   5.822  10.933 -0.0913 -0.8284  0.0894
 2973TIP3    H130410   3.439   5.839  11.021  1.4474  0.2464  0.5346
 2973TIP3    H230411   3.450   5.732  10.915 -0.9910 -0.8686  1.3599
 2974TIP3   OH230412   0.163   5.069  16.717  0.1024 -0.1902 -0.3920
 2974TIP3    H130413   0.156   4.984  16.760 -0.9729  0.4540  0.7728
 2974TIP3    H230414   0.097   5.123  16.760  1.2021  1.4313 -0.6377
 2975TIP3   OH230415   4.648   5.456   4.837  0.0065 -0.7731  0.3086
 2975TIP3    H130416   4.655   5.379   4.781  1.0851 -1.7585  1.7194
 2975TIP3    H230417   4.729   5.454   4.890 -1.6924 -0.9051  3.1082
 2976TIP3   OH230418   4.611   1.862   5.450 -0.3373 -0.4742 -0.0041
 2976TIP3    H130419   4.675   1.798   5.480 -0.2800 -0.3431  0.1583
 2976TIP3    H230420   4.535   1.848   5.506  0.0221  0.2381  0.6903
 2977TIP3   OH230421   5.590   4.727  12.412  0.2779  0.4315  0.6256
 2977TIP3    H130422   5.549   4.697  12.493 -0.3488 -2.1467 -0.5270
 2977TIP3    H230423   5.518   4.731  12.349  1.1237 -0.0501 -0.4084
 2978TIP3   OH230424   5.611   3.119   3.206  0.3433 -0.3719 -0.0670
 2978TIP3    H130425   5.628   3.154   3.294 -0.6446  0.4471 -0.1732
 2978TIP3    H230426   5.666   3.041   3.200  0.4927 -0.3978  1.2521
 2979TIP3   OH230427   2.098   6.495   3.416 -0.3873  0.1866  0.2402
 2979TIP3    H130428   2.063   6.559   3.354  0.5127 -0.2903 -0.7788
 2979TIP3    H230429   2.191   6.518   3.424 -0.4564  0.1545  1.3232
 2980TIP3   OH230430   0.620   3.130  15.455 -0.2318  0.4965  0.0922
 2980TIP3    H130431   0.657   3.058  15.404 -0.2987 -0.2670  1.0946
 2980TIP3    H230432   0.530   3.138  15.423  0.3973  1.5580 -1.5004
 2981TIP3   OH230433   3.809   5.107  15.860  0.0965  0.0742  0.0181
 2981TIP3    H130434   3.835   5.187  15.907 -2.3958  1.3514 -0.6048
 2981TIP3    H230435   3.890   5.076  15.820  1.1374  2.4230  0.1358
 2982TIP3   OH230436   2.419   4.492  15.453  0.7587  0.2110 -0.7856
 2982TIP3    H130437   2.338   4.542  15.460  0.9678  0.5959 -1.0873
 2982TIP3    H230438   2.429   4.449  15.538 -1.4943 -2.5130 -1.7309
 2983TIP3   OH230439   6.456   2.177   5.904 -0.1989 -0.8302 -0.6508
 2983TIP3    H130440   6.430   2.184   5.813  1.1287  2.9830 -0.9336
 2983TIP3    H230441   6.543   2.137   5.901 -0.0874 -0.5607 -1.0941
 2984TIP3   OH230442   0.064   0.796   4.424  0.3675 -0.0090 -0.3080
 2984TIP3    H130443   0.101   0.880   4.451 -1.4824  0.7192  0.0772
 2984TIP3    H230444   0.091   0.787   4.332  0.8759  0.8269 -0.2584
 2985TIP3   OH230445   0.755   4.734  14.730  0.2217  1.0789 -0.3151
 2985TIP3    H130446   0.793   4.775  14.808 -0.1802  1.3460 -0.2609
 2985TIP3    H230447   0.709   4.804  14.685  0.0965  0.8342 -0.5727
 2986TIP3   OH230448   2.406   0.050  14.111 -0.3797 -0.0439 -0.0659
 2986TIP3    H130449   2.464   0.078  14.040 -0.2835  0.7988  0.3334
 2986TIP3    H230450   2.453   0.071  14.191 -0.8504 -0.2011  0.2578
 2987TIP3   OH230451   1.265   5.307  11.782  0.2778 -1.2290  0.0576
 2987TIP3    H130452   1.258   5.403  11.786  1.3505 -1.1566  0.7034
 2987TIP3    H230453   1.227   5.277  11.865  0.9658 -1.2735  0.3674
 2988TIP3   OH230454   2.305   5.533  13.068  0.6104 -0.6203  0.1436
 2988TIP3    H130455   2.244   5.468  13.033  0.6595 -0.6977  0.2019
 2988TIP3    H230456   2.380   5.482  13.098  0.2004 -0.6444  1.1654
 2989TIP3   OH230457   1.495   6.681   0.188 -0.3902  0.5332  0.0565
 2989TIP3    H130458   1.493   6.592   0.224  0.3742 -0.1281 -1.4387
 2989TIP3    H230459   1.415   6.688   0.137 -0.6209  0.8367  0.4576
 2990TIP3   OH230460   1.932   5.805   5.502  0.2820  0.1660  0.6048
 2990TIP3    H130461   1.939   5.711   5.515  0.3715  0.0055 -0.5203
 2990TIP3    H230462   1.838   5.822   5.499  0.2536  0.2537  1.6967
 2991TIP3   OH230463   2.129   5.568  13.477  0.0612  0.4606  0.2334
 2991TIP3    H130464   2.061   5.593  13.540  0.0092  0.2191  0.2710
 2991TIP3    H230465   2.130   5.641  13.414  1.8677  1.9916  1.9046
 2992TIP3   OH230466   4.702   3.589  16.870  0.3749 -0.1890  0.0208
 2992TIP3    H130467   4.743   3.522  16.924  0.2281 -0.4302 -0.1618
 2992TIP3    H230468   4.756   3.591  16.790  1.3026  0.9973  0.6414
 2993TIP3   OH230469   3.654   1.286   1.426 -0.0383 -0.0513  0.5128
 2993TIP3    H130470   3.645   1.321   1.515 -1.1735 -1.1208  0.8557
 2993TIP3    H230471   3.642   1.191   1.437 -0.1794 -0.1963 -0.7787
 2994TIP3   OH230472   5.012   1.862  15.323 -0.1393  0.4124 -0.1782
 2994TIP3    H130473   4.976   1.774  15.324  0.2196  0.2646  0.0981
 2994TIP3    H230474   5.061   1.869  15.405  0.1215  0.7479 -0.3583
 2995TIP3   OH230475   1.086   2.638  15.445  0.4506 -0.0927  0.1615
 2995TIP3    H130476   1.149   2.685  15.500  0.9173  0.6542 -0.9825
 2995TIP3    H230477   1.021   2.605  15.507  2.3167 -1.5119  1.4908
 2996TIP3   OH230478   5.495   2.176  15.627 -0.3636 -0.0435 -0.0954
 2996TIP3    H130479   5.457   2.219  15.704  0.8894  1.7027 -0.3872
 2996TIP3    H230480   5.572   2.130  15.660 -0.8391 -0.8203 -0.0382
 2997TIP3   OH230481   1.616   4.986  14.022  0.5644 -0.5752 -0.6719
 2997TIP3    H130482   1.530   5.028  14.026  0.4654 -0.9007  1.3281
 2997TIP3    H230483   1.596   4.893  14.014  0.7741 -0.5115 -2.2266
 2998TIP3   OH230484   4.234   5.288   5.467 -0.3371  0.0974 -0.2562
 2998TIP3    H130485   4.265   5.261   5.553 -0.2668 -1.1482 -0.6514
 2998TIP3    H230486   4.231   5.207   5.416 -1.1327  0.6955 -1.1960
 2999TIP3   OH230487   6.249   0.456  13.228  0.4707  0.1901 -0.4070
 2999TIP3    H130488   6.175   0.418  13.276 -0.8474  2.9072 -0.1018
 2999TIP3    H230489   6.272   0.390  13.162 -1.5487 -1.1625  0.1653
 3000TIP3   OH230490   4.287   2.316  17.201  0.1184  0.9306 -0.2206
 3000TIP3    H130491   4.323   2.285  17.284  0.3659  0.4476 -0.5012
 3000TIP3    H230492   4.346   2.387  17.174  1.4183 -0.4211 -1.1042
 3001TIP3   OH230493   3.794   3.625   0.483 -0.4615 -0.3691  0.0954
 3001TIP3    H130494   3.754   3.712   0.483  1.0246  0.3905 -2.2249
 3001TIP3    H230495   3.768   3.586   0.399  0.5067 -1.3831  0.2410
 3002TIP3   OH230496   4.603   4.981   5.268 -0.1984 -0.0902  0.1883
 3002TIP3    H130497   4.651   4.916   5.217  1.9799  1.0552  0.6671
 3002TIP3    H230498   4.613   4.953   5.359  0.0745  0.4714  0.3370
 3003TIP3   OH230499   3.350   1.142  12.994  0.4744 -0.1007  0.1407
 3003TIP3    H130500   3.312   1.160  12.908  2.4638 -1.2071 -1.0311
 3003TIP3    H230501   3.332   1.221  13.045 -0.1507  0.8656 -1.4972
 3004TIP3   OH230502   4.979   2.308   5.625  0.0000 -0.0544  0.0107
 3004TIP3    H130503   5.008   2.243   5.562  1.7829 -0.2957  1.0376
 3004TIP3    H230504   4.922   2.260   5.685 -0.9588 -0.0201 -0.8421
 3005TIP3   OH230505   5.853   0.293   4.888 -0.1263  0.3210  0.0449
 3005TIP3    H130506   5.761   0.293   4.915 -0.1033 -2.6224  0.4683
 3005TIP3    H230507   5.864   0.211   4.839  2.6965 -0.5166  1.7950
 3006TIP3   OH230508   4.562   6.095   0.343  0.2229 -0.2538  0.5340
 3006TIP3    H130509   4.565   6.191   0.337 -1.7412 -0.2287 -1.2390
 3006TIP3    H230510   4.539   6.077   0.434 -2.0781  1.1147  0.2975
 3007TIP3   OH230511   3.846   4.714  15.766 -0.3649  0.4401 -0.3454
 3007TIP3    H130512   3.924   4.722  15.822  0.1633 -0.7941 -0.8736
 3007TIP3    H230513   3.877   4.737  15.679 -0.3515 -0.9090 -0.7201
 3008TIP3   OH230514   4.407   3.501  16.621 -0.1234  0.0867  0.5875
 3008TIP3    H130515   4.444   3.525  16.706 -0.4622 -0.7451  0.9738
 3008TIP3    H230516   4.399   3.406  16.623 -1.4149  0.1601  0.1626
 3009TIP3   OH230517   3.385   6.002  14.755 -0.2362 -0.3732  0.3682
 3009TIP3    H130518   3.418   5.990  14.844 -0.6793 -2.5515  0.3131
 3009TIP3    H230519   3.333   6.082  14.758  0.3752 -0.0059  1.8681
 3010TIP3   OH230520   2.264   1.560   2.741  0.2039 -0.4918 -0.5616
 3010TIP3    H130521   2.196   1.591   2.681 -1.3277  0.3709  1.4655
 3010TIP3    H230522   2.215   1.514   2.810  1.7236 -0.2648  0.7165
 3011TIP3   OH230523   0.942   5.409  14.164  0.3645  0.5002  0.5939
 3011TIP3    H130524   0.876   5.427  14.097 -0.2404 -0.3428  0.9514
 3011TIP3    H230525   0.911   5.454  14.242  1.5549  2.2831  0.0836
 3012TIP3   OH230526   5.640   0.991   1.774 -0.1681  0.0243  0.1888
 3012TIP3    H130527   5.715   1.046   1.797  1.4366 -1.3675 -1.4435
 3012TIP3    H230528   5.590   1.043   1.711  1.1834 -0.2084 -1.1319
 3013TIP3   OH230529   1.854   3.791   2.845 -0.2710 -0.3554 -0.4386
 3013TIP3    H130530   1.868   3.886   2.850 -0.6755 -0.3397  0.7627
 3013TIP3    H230531   1.934   3.757   2.805  0.3832  0.3889  0.1998
 3014TIP3   OH230532   6.252   5.626   0.145  0.3711  0.2152  0.4961
 3014TIP3    H130533   6.203   5.693   0.193  1.6818 -0.0423  2.3159
 3014TIP3    H230534   6.243   5.650   0.053  1.6800  3.5741  1.1142
 3015TIP3   OH230535   3.809   0.489  13.982  0.0333 -0.1815 -0.3507
 3015TIP3    H130536   3.731   0.490  14.038 -0.0945 -0.3577 -0.5264
 3015TIP3    H230537   3.775   0.491  13.893  0.1703 -1.8317 -0.4739
 3016TIP3   OH230538   6.639   5.525   6.209  0.1882 -0.2689 -0.0627
 3016TIP3    H130539   6.652   5.430   6.206 -0.9290 -0.4198 -0.9337
 3016TIP3    H230540   6.666   5.550   6.298  1.3670 -1.2460 -0.1221
 3017TIP3   OH230541   4.145   2.121   6.387 -0.4437 -0.5253  0.1345
 3017TIP3    H130542   4.136   2.039   6.340 -0.3933 -0.3362 -0.2062
 3017TIP3    H230543   4.085   2.181   6.343 -0.5630 -0.4103  0.4514
 3018TIP3   OH230544   5.762   1.970   4.269 -0.1583 -0.2713 -0.0645
 3018TIP3    H130545   5.818   1.893   4.275  0.2406  0.1364  2.4225
 3018TIP3    H230546   5.750   1.998   4.360 -1.2990  1.8810 -0.8181
 3019TIP3   OH230547   1.857   6.723  12.746 -0.3349  0.4320 -0.3901
 3019TIP3    H130548   1.920   6.706  12.676  0.2620 -0.8234  0.4254
 3019TIP3    H230549   1.815   6.639  12.761 -0.9499  0.8496  0.2974
 3020TIP3   OH230550   0.524   1.260   0.136 -0.5103  0.1691 -0.1477
 3020TIP3    H130551   0.566   1.185   0.094 -0.2634 -0.4527  1.1503
 3020TIP3    H230552   0.433   1.233   0.147 -0.2780 -0.2441  0.9247
 3021TIP3   OH230553   2.464   2.440   2.314 -0.0200  0.7300  0.3682
 3021TIP3    H130554   2.523   2.515   2.324  1.8761 -0.3319 -1.9558
 3021TIP3    H230555   2.515   2.365   2.344 -0.4718 -0.1026 -0.8703
 3022TIP3   OH230556   0.653   1.675   0.805  0.6677 -0.0840  0.1443
 3022TIP3    H130557   0.608   1.648   0.725 -0.1622  0.0030  0.5721
 3022TIP3    H230558   0.594   1.739   0.844  0.9084 -0.3755  0.9913
 3023TIP3   OH230559   5.550   3.226   0.195 -0.1532  0.7442  0.7384
 3023TIP3    H130560   5.557   3.253   0.103 -2.8194  1.2607  0.5954
 3023TIP3    H230561   5.501   3.298   0.237 -0.0360 -0.0408  2.2873
 3024TIP3   OH230562   2.165   6.633   2.643 -0.0510  0.3139  0.5654
 3024TIP3    H130563   2.126   6.597   2.723  2.3047 -2.2210  0.7332
 3024TIP3    H230564   2.234   6.570   2.621  0.0181  1.4544 -2.9393
 3025TIP3   OH230565   4.551   1.191   5.118 -0.2609 -0.1134  0.3211
 3025TIP3    H130566   4.484   1.199   5.051 -0.3183 -0.9987  0.2622
 3025TIP3    H230567   4.541   1.102   5.152  0.0279  0.1840  1.2247
 3026TIP3   OH230568   4.961   3.460  16.384 -0.4226  0.1273 -0.4253
 3026TIP3    H130569   4.961   3.553  16.359 -1.0722  0.2807  0.1098
 3026TIP3    H230570   4.893   3.421  16.328  2.7550 -0.9820 -3.8938
 3027TIP3   OH230571   3.900   0.314  13.761  0.1666  0.5527 -0.0154
 3027TIP3    H130572   3.809   0.339  13.745 -0.6344 -1.6440  0.7320
 3027TIP3    H230573   3.910   0.320  13.856  0.1981 -0.9500  0.1056
 3028TIP3   OH230574   5.011   1.800  14.542  0.6453 -0.0645  0.5580
 3028TIP3    H130575   5.034   1.777  14.632 -0.2039 -2.7387  0.1885
 3028TIP3    H230576   5.057   1.735  14.488 -2.5699 -1.6402 -0.5656
 3029TIP3   OH230577   1.267   0.760  15.557 -0.3580 -0.5460  0.4678
 3029TIP3    H130578   1.185   0.722  15.589 -0.7077  0.5543  0.9324
 3029TIP3    H230579   1.246   0.790  15.468 -0.8135  0.7712  1.0018
 3030TIP3   OH230580   2.126   5.509   3.007 -0.3690  0.1877 -0.5015
 3030TIP3    H130581   2.053   5.487   3.065  0.2335 -1.3729 -0.2944
 3030TIP3    H230582   2.204   5.478   3.053  0.2330 -0.1175 -1.6785
 3031TIP3   OH230583   0.478   4.491  11.865  0.1831 -0.0521 -0.4287
 3031TIP3    H130584   0.396   4.501  11.815 -0.2795 -0.7808  0.1651
 3031TIP3    H230585   0.502   4.400  11.852 -0.2699 -0.4270  1.1598
 3032TIP3   OH230586   6.628   3.046   3.518  0.0377 -0.3213  0.0327
 3032TIP3    H130587   6.626   2.951   3.527 -1.7920 -0.2402  1.0098
 3032TIP3    H230588   6.593   3.079   3.601  1.3483  1.2586  0.0191
 3033TIP3   OH230589   6.199   2.677   1.002  0.0361 -0.1638 -0.3555
 3033TIP3    H130590   6.192   2.762   0.958  0.4360  0.8732  1.4767
 3033TIP3    H230591   6.110   2.643   1.002  0.1667 -0.6584 -2.7369
 3034TIP3   OH230592   5.543   4.852  15.587  0.5060  0.1626 -0.9805
 3034TIP3    H130593   5.560   4.870  15.679  2.0574 -2.4721 -0.6663
 3034TIP3    H230594   5.629   4.848  15.546  0.0394 -1.6066 -1.9006
 3035TIP3   OH230595   2.787   3.729   3.006  0.0700 -0.0718  0.4868
 3035TIP3    H130596   2.757   3.647   3.045 -1.6424  0.8452  1.1934
 3035TIP3    H230597   2.844   3.768   3.073 -1.4202  0.6401  1.3900
 3036TIP3   OH230598   2.857   5.484   2.757 -0.4018 -0.0828  0.3092
 3036TIP3    H130599   2.831   5.481   2.849 -0.2265 -1.8660  0.3321
 3036TIP3    H230600   2.775   5.499   2.709 -0.9233 -1.6330  0.6400
 3037TIP3   OH230601   3.837   2.113   1.875  0.3499  0.1562 -0.4949
 3037TIP3    H130602   3.877   2.199   1.862 -1.0443  1.0108  0.5845
 3037TIP3    H230603   3.748   2.133   1.903  0.4354 -1.6107  1.2229
 3038TIP3   OH230604   5.662   2.792  11.918  0.0340 -0.1381 -0.1547
 3038TIP3    H130605   5.754   2.803  11.941 -0.1976 -1.2368  1.4610
 3038TIP3    H230606   5.615   2.813  11.999 -1.2107  1.2188 -1.1830
 3039TIP3   OH230607   0.674   5.032  10.156 -0.1941 -0.2350  0.2401
 3039TIP3    H130608   0.758   5.016  10.199 -0.5654 -1.1800  0.6405
 3039TIP3    H230609   0.649   4.947  10.119 -0.2993  0.3599 -1.1265
 3040TIP3   OH230610   2.755   5.566  14.755  0.1329  0.2790  0.0236
 3040TIP3    H130611   2.844   5.564  14.791 -0.0373  0.9545  0.4966
 3040TIP3    H230612   2.753   5.494  14.693  0.6649 -0.4420  0.8245
 3041TIP3   OH230613   2.220   6.773  12.183  0.5219 -0.0617 -0.2444
 3041TIP3    H130614   2.206   6.688  12.141  3.1178 -0.7168  0.0317
 3041TIP3    H230615   2.166   6.770  12.262  1.6264 -2.0862  0.4986
 3042TIP3   OH230616   6.236   1.293  14.795 -0.3210  0.2002 -0.6813
 3042TIP3    H130617   6.258   1.371  14.744 -2.1583  0.1999 -1.5586
 3042TIP3    H230618   6.187   1.327  14.870  1.6888  0.1283  0.7420
 3043TIP3   OH230619   3.921   1.297  12.909  0.1893 -0.3069  0.1617
 3043TIP3    H130620   3.858   1.253  12.967 -0.0192 -0.1034  0.0887
 3043TIP3    H230621   3.877   1.377  12.880  1.1127  0.7154  1.4581
 3044TIP3   OH230622   5.852   4.654   4.922  0.0788 -0.2237 -0.2404
 3044TIP3    H130623   5.882   4.595   4.991  0.3629  1.8054  1.4678
 3044TIP3    H230624   5.928   4.667   4.866  1.8186  2.7496  2.5207
 3045TIP3   OH230625   2.096   3.487  16.470 -0.1681  0.3442  0.7887
 3045TIP3    H130626   2.122   3.395  16.472 -2.2374 -0.2834  1.3256
 3045TIP3    H230627   2.112   3.519  16.558  0.0752  0.3599  0.7389
 3046TIP3   OH230628   5.091   5.478   4.192 -0.0756  0.0127 -0.2030
 3046TIP3    H130629   5.187   5.479   4.197  0.0577  2.0438 -1.7622
 3046TIP3    H230630   5.065   5.566   4.221 -1.4429 -0.3700 -0.2163
 3047TIP3   OH230631   2.678   5.316   5.772 -0.3614  0.0682  0.4137
 3047TIP3    H130632   2.594   5.273   5.788 -0.4894  0.8464  2.0339
 3047TIP3    H230633   2.692   5.371   5.849  1.3952  0.3599 -0.0717
 3048TIP3   OH230634   5.130   6.102  16.600 -0.2485  0.2686  0.0026
 3048TIP3    H130635   5.199   6.151  16.556  0.0204 -0.7772 -0.7917
 3048TIP3    H230636   5.155   6.103  16.693  2.2193 -2.1245 -0.5025
 3049TIP3   OH230637   0.840   2.146  15.160  0.5675 -0.1420  0.0247
 3049TIP3    H130638   0.929   2.113  15.156 -0.8447 -4.3847 -2.9015
 3049TIP3    H230639   0.836   2.215  15.094  1.3846 -0.9040 -0.8437
 3050TIP3   OH230640   0.307   0.023  13.822 -0.3615  0.3382  0.1198
 3050TIP3    H130641   0.303   0.087  13.751 -0.1736  0.3226  0.0948
 3050TIP3    H230642   0.238   0.049  13.882  0.1500  0.9627  0.4444
 3051TIP3   OH230643   6.584   6.604   3.012  0.5916 -0.2652  0.1183
 3051TIP3    H130644   6.534   6.686   3.017 -0.9859 -1.2605  1.6082
 3051TIP3    H230645   6.644   6.609   3.086  1.3050  0.0025 -0.4570
 3052TIP3   OH230646   3.498   4.880   1.444 -0.0571 -0.1565 -0.5011
 3052TIP3    H130647   3.509   4.969   1.478 -2.6198 -0.3209  1.0922
 3052TIP3    H230648   3.509   4.824   1.520 -0.5346 -1.0328 -1.0608
 3053TIP3   OH230649   3.351   2.019  15.670 -0.2619  0.3337 -0.1417
 3053TIP3    H130650   3.331   2.002  15.762 -1.9492  0.0759 -0.5300
 3053TIP3    H230651   3.373   1.932  15.634  0.6762  0.4745  0.0576
 3054TIP3   OH230652   6.158   1.054  14.647  0.3430 -0.4078  0.1752
 3054TIP3    H130653   6.222   1.058  14.575 -0.0654  3.0616 -0.1904
 3054TIP3    H230654   6.169   1.137  14.693 -0.1564 -2.0552  3.5930
 3055TIP3   OH230655   5.133   5.316   1.657 -0.3034 -0.1125 -0.2975
 3055TIP3    H130656   5.073   5.246   1.632  1.6118 -1.9849  0.0030
 3055TIP3    H230657   5.150   5.301   1.750  0.2535  0.6540 -0.2615
 3056TIP3   OH230658   5.181   4.137  11.484 -0.5815 -0.1723 -0.5935
 3056TIP3    H130659   5.101   4.086  11.488 -0.6760  0.0262  0.0430
 3056TIP3    H230660   5.161   4.208  11.423 -0.4496 -0.8752 -1.4851
 3057TIP3   OH230661   4.920   1.762   2.637 -0.8286  0.2267  0.2271
 3057TIP3    H130662   4.992   1.759   2.574 -0.1458  0.1273  1.0065
 3057TIP3    H230663   4.868   1.838   2.609 -0.5852  0.1404 -0.4997
 3058TIP3   OH230664   2.457   6.160  14.131 -0.6881 -0.2297  0.0141
 3058TIP3    H130665   2.429   6.130  14.045 -1.7648 -0.0835  0.2948
 3058TIP3    H230666   2.383   6.140  14.189 -0.5592  0.9513  0.6278
 3059TIP3   OH230667   2.803   6.623  16.063  0.1035  0.0242  0.0877
 3059TIP3    H130668   2.722   6.667  16.088 -0.0692 -0.6283  0.6834
 3059TIP3    H230669   2.805   6.630  15.967 -1.3243 -1.0898 -0.0531
 3060TIP3   OH230670   5.900   0.016   6.059  0.2807 -0.1312  0.3874
 3060TIP3    H130671   5.840  -0.027   6.120  1.8822  0.0837  2.2116
 3060TIP3    H230672   5.881   0.109   6.067 -0.7785 -0.1923 -0.9267
 3061TIP3   OH230673   0.024   5.521  16.467  0.0986  0.3157  0.3326
 3061TIP3    H130674   0.032   5.531  16.372  1.4240  0.8423  0.4789
 3061TIP3    H230675   0.094   5.461  16.491 -1.4663 -1.4424  0.7736
 3062TIP3   OH230676   0.213   4.802   4.850 -0.5008  0.0174  0.1124
 3062TIP3    H130677   0.179   4.726   4.898  2.6563 -0.2410  2.2722
 3062TIP3    H230678   0.251   4.858   4.918  0.8360  1.5556 -1.7984
 3063TIP3   OH230679   2.070   0.517  17.002 -0.2728  0.0568  0.0206
 3063TIP3    H130680   2.139   0.549  17.060  0.2832 -0.3402 -0.4196
 3063TIP3    H230681   2.017   0.594  16.983  0.0696  0.3690  0.3251
 3064TIP3   OH230682   4.681   2.833  16.915 -0.3380 -0.3833  0.3384
 3064TIP3    H130683   4.697   2.739  16.917  2.8289  0.0577  2.3984
 3064TIP3    H230684   4.725   2.864  16.836  0.4073 -0.4198  0.7304
 3065TIP3   OH230685   0.195   2.997  16.927  0.3518 -0.1013  0.3576
 3065TIP3    H130686   0.146   3.072  16.894  0.4101  0.2811  1.1022
 3065TIP3    H230687   0.244   2.964  16.852 -0.5955 -0.1280 -0.2578
 3066TIP3   OH230688   3.542   0.397   1.594  0.2635  0.1229 -0.0778
 3066TIP3    H130689   3.513   0.337   1.525 -0.3462  0.8670 -0.4836
 3066TIP3    H230690   3.612   0.349   1.639  1.3711 -0.0295 -1.8183
 3067TIP3   OH230691   3.881   0.161   4.947  0.6208 -0.5577  0.0230
 3067TIP3    H130692   3.888   0.069   4.973 -0.7516 -0.2275  1.7417
 3067TIP3    H230693   3.860   0.207   5.028  1.8792  1.3747 -0.6947
 3068TIP3   OH230694   1.728   2.971   4.203 -0.4691  0.6044  0.2118
 3068TIP3    H130695   1.722   2.928   4.118  0.9791  0.1389  0.3142
 3068TIP3    H230696   1.652   2.938   4.252 -0.2494 -0.6456 -0.2428
 3069TIP3   OH230697   2.106   1.014   3.916  0.4199 -0.1326  0.5023
 3069TIP3    H130698   2.122   1.034   4.008  0.3866  2.9053 -0.0550
 3069TIP3    H230699   2.011   1.008   3.908  0.3744  0.5706  0.5016
 3070TIP3   OH230700   2.969   5.045   0.885 -0.2582  0.3171  0.2891
 3070TIP3    H130701   2.998   4.994   0.809 -1.9483  0.3803 -0.4308
 3070TIP3    H230702   2.906   4.989   0.929 -1.2087  1.2695  0.1862
 3071TIP3   OH230703   5.967   4.883   0.976  0.2707  0.1433  0.0591
 3071TIP3    H130704   5.913   4.933   1.037 -0.1959  0.8936 -0.9352
 3071TIP3    H230705   6.027   4.947   0.939 -0.1501 -0.0626 -1.0267
 3072TIP3   OH230706   1.731   6.754   1.042  0.3509 -0.0182 -0.3563
 3072TIP3    H130707   1.660   6.690   1.051  0.6800 -0.5200 -1.2116
 3072TIP3    H230708   1.689   6.839   1.058 -0.2184 -0.3927  0.1830
 3073TIP3   OH230709   4.118   3.316   2.346 -0.2455 -0.1145  0.0026
 3073TIP3    H130710   4.187   3.252   2.361  0.2281 -0.0058 -1.5554
 3073TIP3    H230711   4.044   3.265   2.315 -1.0823 -0.2919  2.1412
 3074TIP3   OH230712   1.858   4.992   0.302 -0.4849  0.0687  0.3606
 3074TIP3    H130713   1.788   4.927   0.310 -0.7090  0.2020 -0.4798
 3074TIP3    H230714   1.834   5.044   0.225  0.0542  0.7075  0.6172
 3075TIP3   OH230715   3.659   5.481  12.116  0.3025 -0.2464 -0.4266
 3075TIP3    H130716   3.596   5.415  12.089 -2.7965  1.1179  2.7609
 3075TIP3    H230717   3.712   5.438  12.183 -1.0440  0.1070  0.9156
 3076TIP3   OH230718   4.952   3.707  13.821 -0.1322 -0.2239 -0.5587
 3076TIP3    H130719   4.906   3.629  13.791 -2.5822  0.6748  0.6063
 3076TIP3    H230720   5.029   3.674  13.868 -1.7916 -2.0175  1.0502
 3077TIP3   OH230721   6.449   4.113   6.075  0.8736  0.9533  0.0599
 3077TIP3    H130722   6.437   4.207   6.082  1.9900  1.0510  0.9247
 3077TIP3    H230723   6.507   4.090   6.148  0.2994 -0.4650  0.1175
 3078TIP3   OH230724   0.771   0.751  16.335 -0.6318 -0.0394 -0.0496
 3078TIP3    H130725   0.769   0.656  16.345 -0.0540 -0.2072 -1.2556
 3078TIP3    H230726   0.697   0.771  16.278  0.0482  0.0527 -0.9265
 3079TIP3   OH230727   3.851   5.865  11.817  0.1193 -0.2725  0.8304
 3079TIP3    H130728   3.829   5.778  11.785  2.5028 -0.8081  0.4235
 3079TIP3    H230729   3.773   5.918  11.801 -0.3150 -1.5752 -1.8053
 3080TIP3   OH230730   6.226   1.965  13.640  0.7365  0.0820  0.4098
 3080TIP3    H130731   6.268   2.047  13.667  0.8265  0.3259 -0.4445
 3080TIP3    H230732   6.165   1.991  13.571  0.3674 -0.4994  0.5134
 3081TIP3   OH230733   3.810   3.038  15.140  0.6801 -0.1333  0.1785
 3081TIP3    H130734   3.765   3.054  15.223  1.1340  0.9566  0.2376
 3081TIP3    H230735   3.784   3.112  15.085  0.5458 -0.7412 -0.5877
 3082TIP3   OH230736   5.008   4.597   4.304  0.1641  0.4742  0.0510
 3082TIP3    H130737   5.093   4.552   4.303  0.8016  1.6304 -0.1625
 3082TIP3    H230738   5.031   4.690   4.310 -1.0617  0.8731 -1.0103
 3083TIP3   OH230739   1.370   3.100  10.958 -0.3344  0.2220 -0.2487
 3083TIP3    H130740   1.343   3.165  10.893  0.2159  0.5807 -0.1319
 3083TIP3    H230741   1.372   3.148  11.041 -1.8785 -0.4453  0.2088
 3084TIP3   OH230742   1.592   5.581   5.133 -0.0858  0.0424 -0.2485
 3084TIP3    H130743   1.543   5.508   5.095 -0.3331 -0.2472  0.6029
 3084TIP3    H230744   1.552   5.594   5.219 -0.5361  1.6800 -0.6889
 3085TIP3   OH230745   5.731   2.093   4.524  0.0556  0.5621  0.5703
 3085TIP3    H130746   5.636   2.106   4.529  0.0797  0.4759  1.7242
 3085TIP3    H230747   5.747   2.019   4.583  0.9008  0.9911  0.8918
 3086TIP3   OH230748   2.893   4.712  11.746 -0.5959 -0.5939  0.8000
 3086TIP3    H130749   2.925   4.705  11.656  1.4565 -0.1476  1.4376
 3086TIP3    H230750   2.811   4.762  11.738 -0.4098 -0.4873 -0.8037
 3087TIP3   OH230751   5.583   5.840   1.779 -0.6490  0.2333 -0.5217
 3087TIP3    H130752   5.505   5.892   1.794 -1.2344 -0.2098 -1.8493
 3087TIP3    H230753   5.551   5.752   1.762  0.1343  0.0055 -0.9076
 3088TIP3   OH230754   6.454   1.400   0.798  0.1420 -0.5891 -0.1376
 3088TIP3    H130755   6.497   1.470   0.848 -1.3183  1.8756 -2.1230
 3088TIP3    H230756   6.487   1.411   0.709  0.3785 -2.9557 -0.4016
 3089TIP3   OH230757   0.648   0.296   3.978  0.2150  0.5852  0.1123
 3089TIP3    H130758   0.609   0.361   3.918  2.2802  2.1031  0.3298
 3089TIP3    H230759   0.687   0.231   3.920 -0.8863  0.0996 -0.1157
 3090TIP3   OH230760   3.670   0.823  12.054  0.1642 -0.0519  0.0684
 3090TIP3    H130761   3.627   0.853  12.134  0.0974  1.0920 -0.3795
 3090TIP3    H230762   3.608   0.762  12.014 -0.3190  0.3084  0.2701
 3091TIP3   OH230763   0.192   5.554  12.719  0.3639  0.6585 -0.1259
 3091TIP3    H130764   0.208   5.511  12.635 -0.7933 -0.5646  0.2446
 3091TIP3    H230765   0.276   5.594  12.742  0.8066  0.6477 -1.6499
 3092TIP3   OH230766   4.633   0.371   5.853 -0.3187 -0.1995 -0.7204
 3092TIP3    H130767   4.581   0.353   5.775  0.3281 -4.3679 -0.3759
 3092TIP3    H230768   4.724   0.355   5.826  0.0721 -0.1979  0.5172
 3093TIP3   OH230769   0.614   5.591   4.178  1.1600 -0.4725  0.1078
 3093TIP3    H130770   0.613   5.499   4.205 -0.2826 -0.4771  0.1109
 3093TIP3    H230771   0.586   5.590   4.086 -0.1580  0.0382  0.4744
 3094TIP3   OH230772   5.843   3.687  14.260 -0.7157 -0.4471 -0.0556
 3094TIP3    H130773   5.830   3.781  14.252  0.3387 -0.2687  0.0959
 3094TIP3    H230774   5.932   3.678  14.295 -0.8633 -1.4932  0.1044
 3095TIP3   OH230775   2.210   3.030   2.390  0.5258 -0.0108 -0.1935
 3095TIP3    H130776   2.287   3.009   2.337 -0.1144 -0.5863 -0.9247
 3095TIP3    H230777   2.141   3.048   2.326 -0.6450 -2.0724  0.4035
 3096TIP3   OH230778   3.464   4.221   4.017  0.4241  0.4716  0.1876
 3096TIP3    H130779   3.411   4.300   4.016  0.1062  0.2615 -1.1862
 3096TIP3    H230780   3.553   4.252   4.036 -0.0055  0.9147  1.6305
 3097TIP3   OH230781   1.202   4.412  16.071  0.0897  0.2193  0.2556
 3097TIP3    H130782   1.181   4.484  16.130 -4.0447 -0.4235 -0.1239
 3097TIP3    H230783   1.185   4.446  15.983 -0.5232 -0.7601 -0.0312
 3098TIP3   OH230784   3.108   0.070   1.579 -0.1386  0.3048  0.0919
 3098TIP3    H130785   3.125  -0.016   1.617  0.3597  0.3758  0.0388
 3098TIP3    H230786   3.046   0.054   1.508  0.1877 -0.0520 -0.1131
 3099TIP3   OH230787   5.220   6.619  11.697  0.0627  0.8598 -0.3477
 3099TIP3    H130788   5.162   6.595  11.769 -1.8442  0.2012 -2.0162
 3099TIP3    H230789   5.306   6.588  11.724 -1.0462 -1.5945  0.6001
 3100TIP3   OH230790   5.624   3.213   1.621  0.4107  0.0487  0.1515
 3100TIP3    H130791   5.657   3.129   1.652  0.7206 -0.4490 -1.4062
 3100TIP3    H230792   5.537   3.220   1.658  0.3206 -1.0479  0.1952
 3101TIP3   OH230793   0.704   1.521   4.073  0.5537  0.3201 -0.4053
 3101TIP3    H130794   0.738   1.533   4.162  0.3790 -1.4047 -0.0753
 3101TIP3    H230795   0.727   1.602   4.028 -0.4056  1.7337  1.5203
 3102TIP3   OH230796   1.665   3.395  13.211 -0.1776 -0.5868  0.1095
 3102TIP3    H130797   1.751   3.417  13.174  0.9122 -0.7305  2.4034
 3102TIP3    H230798   1.668   3.300  13.222 -0.5096 -0.5598  0.4549
 3103TIP3   OH230799   2.896   5.296  17.230  0.0932  0.7082  0.3746
 3103TIP3    H130800   2.982   5.331  17.208  0.3056 -0.3905 -0.6587
 3103TIP3    H230801   2.835   5.349  17.178  0.1325  1.4378  1.0524
 3104TIP3   OH230802   2.982   1.140  15.123  0.7093 -0.2200 -0.7453
 3104TIP3    H130803   3.063   1.192  15.120  0.0904  0.7320 -1.5191
 3104TIP3    H230804   2.931   1.171  15.049 -0.1789 -1.1462 -0.5362
 3105TIP3   OH230805   3.328   3.259   2.247  0.2068  0.6575 -0.2887
 3105TIP3    H130806   3.302   3.285   2.335  0.1825 -0.9789  0.2228
 3105TIP3    H230807   3.292   3.171   2.236  0.2077  0.8295 -1.9413
 3106TIP3   OH230808   4.513   2.633   6.574 -0.4153  0.1407 -0.2599
 3106TIP3    H130809   4.479   2.555   6.529 -1.0485 -0.0574  0.5341
 3106TIP3    H230810   4.551   2.686   6.504  0.0409 -0.8825 -0.8167
 3107TIP3   OH230811   3.951   0.866   4.072 -0.1270 -0.1368  0.0336
 3107TIP3    H130812   3.856   0.873   4.082  0.0257  0.2139  1.3929
 3107TIP3    H230813   3.973   0.930   4.003 -0.7779  0.3780  0.3018
 3108TIP3   OH230814   0.074   5.191  13.296 -0.1346 -0.3494  0.4942
 3108TIP3    H130815   0.066   5.227  13.208 -0.8262 -0.7603  0.3820
 3108TIP3    H230816   0.011   5.119  13.299 -0.9316  0.3496  1.6749
 3109TIP3   OH230817   5.543   4.006   3.656 -0.3493 -0.9147  0.5665
 3109TIP3    H130818   5.589   4.090   3.659 -1.4511 -0.2961  0.5361
 3109TIP3    H230819   5.561   3.965   3.741 -0.2622 -0.4040  0.7950
 3110TIP3   OH230820   5.032   5.889   4.527 -0.1504  0.4475  0.1941
 3110TIP3    H130821   5.115   5.921   4.562  0.2700  1.6827 -1.7512
 3110TIP3    H230822   4.999   5.828   4.593  2.5071 -0.4180  0.8353
 3111TIP3   OH230823   4.368   0.835   5.071  0.3142 -0.2962  0.2653
 3111TIP3    H130824   4.451   0.827   5.117 -1.0362 -1.4960  2.7321
 3111TIP3    H230825   4.308   0.873   5.136 -1.4860 -1.1253 -0.8182
 3112TIP3   OH230826   1.292   6.354   4.015 -0.0054  0.2322  0.0556
 3112TIP3    H130827   1.210   6.394   3.988  0.2789  1.8263  1.4409
 3112TIP3    H230828   1.351   6.367   3.940 -0.1569  1.7812  0.1667
 3113TIP3   OH230829   5.911   2.602  15.739 -0.4257 -1.0136 -0.3709
 3113TIP3    H130830   5.838   2.647  15.696  0.6966  1.0935 -0.2324
 3113TIP3    H230831   5.925   2.652  15.820  0.3797 -2.1516  0.2236
 3114TIP3   OH230832   3.684   6.135  16.870  0.4974  0.1177 -0.1331
 3114TIP3    H130833   3.684   6.230  16.860  0.4315  0.0442 -0.8577
 3114TIP3    H230834   3.752   6.105  16.811  1.7495 -0.1660  1.3805
 3115TIP3   OH230835   6.259   2.088  12.387 -0.2843  0.3247  0.0738
 3115TIP3    H130836   6.252   2.159  12.323  0.0060 -0.0841 -0.4177
 3115TIP3    H230837   6.184   2.032  12.371 -0.1592  0.1692  0.0264
 3116TIP3   OH230838   2.591   3.980   4.539  0.2434 -0.5629  0.0931
 3116TIP3    H130839   2.635   4.020   4.615  1.4328  1.5383 -1.5811
 3116TIP3    H230840   2.658   3.924   4.499  0.0107 -0.7138 -0.0889
 3117TIP3   OH230841   2.815   6.498  15.768 -0.1614 -0.8262 -0.3455
 3117TIP3    H130842   2.732   6.503  15.816  0.8109  2.6569  1.3218
 3117TIP3    H230843   2.850   6.411  15.790 -1.2998 -0.6493  2.6990
 3118TIP3   OH230844   4.811   4.068  14.630 -0.5486 -0.3291 -0.3539
 3118TIP3    H130845   4.756   4.146  14.637  0.7446  0.7051 -1.4246
 3118TIP3    H230846   4.848   4.057  14.718  0.2594  1.0380 -0.5007
 3119TIP3   OH230847   3.344   5.518  16.583  0.6905  0.6069 -0.2059
 3119TIP3    H130848   3.350   5.425  16.561 -0.4094  0.6422 -0.7325
 3119TIP3    H230849   3.390   5.562  16.512  1.7874  0.4545  0.3798
 3120TIP3   OH230850   4.403   5.958   3.947 -0.0392 -0.4842  0.1683
 3120TIP3    H130851   4.470   5.938   4.011  0.2513  0.0491  0.0320
 3120TIP3    H230852   4.399   5.879   3.892 -0.8078 -1.2449  1.2630
 3121TIP3   OH230853   4.803   4.504  11.971  0.0617 -0.2392  0.1164
 3121TIP3    H130854   4.778   4.592  11.941  0.4121  0.2470  1.1870
 3121TIP3    H230855   4.885   4.486  11.925 -0.1674 -0.1430 -0.3436
 3122TIP3   OH230856   5.040   0.983   3.830 -0.1149 -0.4664  0.5954
 3122TIP3    H130857   4.991   1.065   3.828  0.2736 -0.1796  1.8660
 3122TIP3    H230858   5.109   0.998   3.896  1.4259 -0.9891 -0.8263
 3123TIP3   OH230859   2.413   6.669   1.849  0.6775 -0.7172 -0.1300
 3123TIP3    H130860   2.479   6.726   1.889  0.3912 -1.1427  0.9675
 3123TIP3    H230861   2.414   6.694   1.757  1.9497 -0.2992 -0.0298
 3124TIP3   OH230862   5.980   1.157  13.122 -0.4720 -0.3477  0.2277
 3124TIP3    H130863   6.039   1.142  13.195 -0.6620 -0.0675  0.4402
 3124TIP3    H230864   5.975   1.253  13.114 -0.3689 -0.3769 -0.2156
 3125TIP3   OH230865   4.925   3.328   2.149  0.0036  0.5549 -0.0495
 3125TIP3    H130866   4.981   3.337   2.226 -2.2094  0.5046  1.7078
 3125TIP3    H230867   4.962   3.387   2.084  0.9661  1.9931  1.7049
 3126TIP3   OH230868   0.694   2.672   1.860  0.0497  0.4312  0.3056
 3126TIP3    H130869   0.617   2.654   1.914 -1.3377  2.5170 -0.8506
 3126TIP3    H230870   0.659   2.717   1.784  2.4238  1.2405 -0.3612
 3127TIP3   OH230871   5.866   5.628   5.396  0.0434  0.1929 -0.0942
 3127TIP3    H130872   5.847   5.553   5.453  3.1948 -0.2990  0.4981
 3127TIP3    H230873   5.818   5.701   5.436 -0.8605 -0.9329  0.9542
 3128TIP3   OH230874   4.113   2.757  14.636  0.1096  0.3361 -0.3927
 3128TIP3    H130875   4.166   2.836  14.621  1.6260 -0.8524 -1.5978
 3128TIP3    H230876   4.055   2.753  14.560  0.3771  0.0274 -0.5797
 3129TIP3   OH230877   5.361   6.043  12.269 -0.3022 -0.1184  0.1270
 3129TIP3    H130878   5.404   6.066  12.351  0.8770  2.4950 -1.0922
 3129TIP3    H230879   5.374   5.949  12.260  3.5996  0.2009  0.7901
 3130TIP3   OH230880   6.443   2.356  12.829  0.5132  0.1330  0.2285
 3130TIP3    H130881   6.472   2.317  12.747 -1.5480 -1.0651 -0.0097
 3130TIP3    H230882   6.391   2.432  12.802 -1.9208 -1.4281  0.2025
 3131TIP3   OH230883   5.834   0.142  10.822  0.1194 -1.0530  0.4621
 3131TIP3    H130884   5.762   0.138  10.885 -1.3788 -1.7554 -1.1989
 3131TIP3    H230885   5.820   0.067  10.764  0.7195  0.2063 -1.4151
 3132TIP3   OH230886   6.029   0.425  15.460 -0.4489 -0.2291  0.3325
 3132TIP3    H130887   5.964   0.449  15.525 -2.2905  0.9668 -1.7950
 3132TIP3    H230888   6.034   0.330  15.463 -1.1903 -0.2399  1.5496
 3133TIP3   OH230889   0.401   4.688   2.499  0.0018 -0.2859 -0.4496
 3133TIP3    H130890   0.432   4.717   2.413 -2.3981  2.9886 -0.4151
 3133TIP3    H230891   0.315   4.650   2.482 -0.1242 -0.3892  0.3777
 3134TIP3   OH230892   3.687   2.454   5.754  0.1544  0.5961  0.3094
 3134TIP3    H130893   3.680   2.361   5.773  1.2829 -0.2580 -2.7208
 3134TIP3    H230894   3.601   2.479   5.720  0.5365 -0.0460 -1.2162
 3135TIP3   OH230895   2.473   0.630  12.528 -0.2683  0.2365 -0.2374
 3135TIP3    H130896   2.398   0.620  12.469 -1.3420 -0.9202  1.2658
 3135TIP3    H230897   2.545   0.653  12.470 -1.1999 -1.1630 -2.0678
 3136TIP3   OH230898   6.272   2.496   4.678  0.1571  0.0564  0.3441
 3136TIP3    H130899   6.190   2.446   4.678  0.0990  0.1481 -0.1020
 3136TIP3    H230900   6.325   2.455   4.609 -0.8614  2.1535 -1.8340
 3137TIP3   OH230901   0.827   2.000  16.318 -0.0602  0.1114  0.5506
 3137TIP3    H130902   0.751   2.041  16.277 -0.4387 -0.0734  1.0580
 3137TIP3    H230903   0.861   1.941  16.251 -1.5542 -1.3116  0.9782
 3138TIP3   OH230904   3.638   6.278  14.010  0.7889  0.4571  0.1803
 3138TIP3    H130905   3.547   6.306  13.997  0.9197  1.1190  0.6555
 3138TIP3    H230906   3.674   6.273  13.922 -0.9020 -4.1139 -0.5356
 3139TIP3   OH230907   4.349   4.147   2.745 -0.1298 -0.2343  0.2446
 3139TIP3    H130908   4.371   4.174   2.834 -0.7876 -0.6241  0.5343
 3139TIP3    H230909   4.351   4.051   2.747 -1.5248 -0.2872  0.2182
 3140TIP3   OH230910   3.848   4.532  11.424 -0.5270  0.2969 -0.8319
 3140TIP3    H130911   3.784   4.472  11.463 -0.5488  0.0586 -1.2339
 3140TIP3    H230912   3.822   4.618  11.456  0.9393 -0.1269  1.7477
 3141TIP3   OH230913   2.142   4.418  14.741  0.5094 -0.1489  0.3793
 3141TIP3    H130914   2.078   4.483  14.713 -0.5940 -1.7495 -1.0473
 3141TIP3    H230915   2.111   4.389  14.827 -0.4584 -0.5800 -0.0976
 3142TIP3   OH230916   5.675   2.298  13.357  0.3529  0.2554 -0.1908
 3142TIP3    H130917   5.602   2.348  13.394  0.0141 -0.2503 -0.1512
 3142TIP3    H230918   5.740   2.295  13.427  0.4042  0.7053 -0.2219
 3143TIP3   OH230919   4.330   0.467  12.521  0.1145  0.2391 -0.4741
 3143TIP3    H130920   4.326   0.404  12.449 -1.3386  0.7601 -0.8926
 3143TIP3    H230921   4.248   0.453  12.569  0.6174  0.5732  0.5065
 3144TIP3   OH230922   4.621   1.358  17.282  0.5286 -0.2216  0.2812
 3144TIP3    H130923   4.553   1.391  17.224 -1.0057 -2.9265  0.3406
 3144TIP3    H230924   4.600   1.394  17.368  0.9735  1.3164 -0.2286
 3145TIP3   OH230925   2.576   1.383   1.608  0.4561  0.1631 -0.1841
 3145TIP3    H130926   2.505   1.406   1.668  0.0134  0.1489 -0.6960
 3145TIP3    H230927   2.533   1.336   1.536  0.7915  1.3372 -1.1798
 3146TIP3   OH230928   1.859   1.535   4.166 -0.3476  0.4495 -0.4914
 3146TIP3    H130929   1.855   1.542   4.261  0.2444 -1.7815 -0.2463
 3146TIP3    H230930   1.778   1.490   4.142  0.5058 -1.0344 -0.7477
 3147TIP3   OH230931   3.934   6.532  16.918  0.3844  0.9145 -0.2439
 3147TIP3    H130932   4.019   6.488  16.922  0.7840  1.4965 -1.6044
 3147TIP3    H230933   3.943   6.607  16.976  1.0196  1.3200 -0.8593
 3148TIP3   OH230934   4.004   6.781   2.217  0.2200 -0.1834 -0.0512
 3148TIP3    H130935   4.010   6.875   2.201  2.0271 -0.5094 -1.6747
 3148TIP3    H230936   4.061   6.765   2.292  1.1333 -0.1788 -0.7407
 3149TIP3   OH230937   1.570   1.912   3.524  0.1069 -0.1174 -0.1923
 3149TIP3    H130938   1.565   1.957   3.440  0.4797  1.2360  0.4764
 3149TIP3    H230939   1.486   1.866   3.531 -1.4535  2.5561  0.1810
 3150TIP3   OH230940   4.530   3.586  11.110  0.1385 -0.0635 -0.4268
 3150TIP3    H130941   4.554   3.493  11.106  3.3157  0.6607 -0.7748
 3150TIP3    H230942   4.541   3.610  11.202 -1.5787 -0.1632 -0.1539
 3151TIP3   OH230943   1.238   1.691   0.783  0.5934  0.3380 -0.0380
 3151TIP3    H130944   1.202   1.715   0.698  2.0077  1.2071 -0.4222
 3151TIP3    H230945   1.216   1.765   0.840  1.7462  0.8991 -0.2879
 3152TIP3   OH230946   5.256   5.194   2.394  0.4707 -0.0818  0.0042
 3152TIP3    H130947   5.276   5.245   2.473 -2.3340  0.9861  0.1437
 3152TIP3    H230948   5.321   5.221   2.331 -0.2758  3.0523  0.3928
 3153TIP3   OH230949   5.190   0.625  12.808 -0.1412  0.4088 -0.0081
 3153TIP3    H130950   5.242   0.698  12.840  1.0883  0.3842 -1.7876
 3153TIP3    H230951   5.103   0.662  12.792  0.7027  1.7594 -1.7495
 3154TIP3   OH230952   3.065   5.586  12.234  0.1896 -0.0373 -0.1812
 3154TIP3    H130953   2.992   5.556  12.180  0.2446 -3.0840  1.2440
 3154TIP3    H230954   3.099   5.662  12.187 -2.6669  0.3452 -1.8785
 3155TIP3   OH230955   4.397   2.916  14.211  0.0878 -0.1673  0.1119
 3155TIP3    H130956   4.380   2.836  14.161  0.3223  0.3043 -0.7637
 3155TIP3    H230957   4.421   2.980  14.144  0.2443  0.5403  0.8327
 3156TIP3   OH230958   5.013   0.213  13.328  0.3853  0.3309 -0.0384
 3156TIP3    H130959   4.940   0.183  13.274 -0.4779 -0.0197  1.2807
 3156TIP3    H230960   4.979   0.291  13.373  0.5724 -0.2409  1.1134
 3157TIP3   OH230961   5.241   4.238  12.232 -0.0442  0.2547 -0.2826
 3157TIP3    H130962   5.244   4.234  12.328  0.2843  1.0659 -0.2489
 3157TIP3    H230963   5.213   4.328  12.213  0.6720  0.3408 -0.9579
 3158TIP3   OH230964   1.401   1.718  11.517 -0.0021  0.4030  0.0648
 3158TIP3    H130965   1.444   1.638  11.547  2.2597  1.2402 -0.7131
 3158TIP3    H230966   1.396   1.773  11.596  0.3218  0.2686  0.1833
 3159TIP3   OH230967   5.674   1.259   1.372  0.4551  0.6713  0.3708
 3159TIP3    H130968   5.763   1.234   1.348  0.5013  1.3996 -0.2663
 3159TIP3    H230969   5.629   1.271   1.288 -0.3636 -0.0912  0.6870
 3160TIP3   OH230970   4.924   4.849   1.924  0.3814 -0.0089  0.6444
 3160TIP3    H130971   4.844   4.861   1.975  0.8958 -2.7575  2.2645
 3160TIP3    H230972   4.918   4.760   1.890  0.5866  1.3382 -3.3600
 3161TIP3   OH230973   4.318   1.387  17.099 -0.2836  0.6335  0.3131
 3161TIP3    H130974   4.288   1.478  17.099  0.8802  1.0320  0.1590
 3161TIP3    H230975   4.237   1.335  17.100 -0.9560  1.6589  1.1182
 3162TIP3   OH230976   5.999   1.075  12.320  0.0339  0.2895 -0.6128
 3162TIP3    H130977   5.983   0.983  12.299 -0.1743  0.0693  0.4337
 3162TIP3    H230978   5.975   1.123  12.240 -1.1184 -0.4543 -0.7389
 3163TIP3   OH230979   4.223   5.585  12.597 -0.1330  0.2818  0.0251
 3163TIP3    H130980   4.316   5.563  12.589 -0.4444 -0.4215 -2.3263
 3163TIP3    H230981   4.192   5.529  12.668  1.4951  1.6195  1.9101
 3164TIP3   OH230982   5.535   4.782   2.023 -0.0709  0.4251  0.2892
 3164TIP3    H130983   5.545   4.691   1.994  0.3825  1.1968 -2.2367
 3164TIP3    H230984   5.596   4.790   2.096 -0.2490 -1.3293  0.6859
 3165TIP3   OH230985   3.405   2.247   1.810 -0.8457  0.0750  0.5990
 3165TIP3    H130986   3.449   2.203   1.738 -2.7869 -1.5213  0.3199
 3165TIP3    H230987   3.457   2.327   1.824  0.7985 -0.6077 -1.1235
 3166TIP3   OH230988   0.565   0.425   2.309 -0.7463  0.0346  0.1733
 3166TIP3    H130989   0.546   0.333   2.325 -1.5383  0.1810  0.1119
 3166TIP3    H230990   0.660   0.428   2.296 -0.4243 -0.4756  2.1824
 3167TIP3   OH230991   1.928   6.798  13.622 -0.0333  0.5994  0.2938
 3167TIP3    H130992   1.882   6.876  13.652  0.7829  1.1250  0.2079
 3167TIP3    H230993   2.015   6.806  13.659 -0.4028 -1.0975  1.6577
 3168TIP3   OH230994   3.362   6.781   5.106 -0.2837 -0.0483  0.2660
 3168TIP3    H130995   3.269   6.782   5.086 -0.7321 -2.5633  1.8502
 3168TIP3    H230996   3.370   6.833   5.186 -0.0970  1.1732 -0.5201
 3169TIP3   OH230997   3.763   3.547   2.863  0.2933 -0.1925  0.4218
 3169TIP3    H130998   3.689   3.572   2.918 -0.5870  0.7382 -1.1358
 3169TIP3    H230999   3.785   3.626   2.815  0.4827 -1.1799 -1.1862
 3170TIP3   OH231000   2.951   2.258   3.104  0.0700  0.3857  0.2136
 3170TIP3    H131001   3.046   2.264   3.097  0.1931 -1.6125 -0.5546
 3170TIP3    H231002   2.920   2.347   3.092  1.8842  1.2880  1.6586
 3171TIP3   OH231003   3.294   1.015  16.355  0.3841 -0.0837 -0.6787
 3171TIP3    H131004   3.226   0.990  16.292  0.5715 -1.5160 -0.3578
 3171TIP3    H231005   3.321   1.103  16.328  0.8159 -0.8336 -2.9436
 3172TIP3   OH231006   4.601   0.722  16.130  0.2983  0.3586 -0.4783
 3172TIP3    H131007   4.584   0.790  16.195 -0.0584  0.1342 -0.3299
 3172TIP3    H231008   4.571   0.641  16.171  1.8615 -0.0970 -0.1687
 3173TIP3   OH231009   3.649   4.096   1.824 -0.2809 -0.5263  0.3225
 3173TIP3    H131010   3.685   4.164   1.880  0.4716 -2.0834  1.8087
 3173TIP3    H231011   3.709   4.092   1.750  0.5118 -0.5857  0.9582
 3174TIP3   OH231012   2.257   1.976  11.826 -0.2731  0.2932  0.2578
 3174TIP3    H131013   2.286   1.889  11.796 -1.2590 -0.1423  0.5252
 3174TIP3    H231014   2.291   2.036  11.761  0.8676 -0.2373  0.3360
 3175TIP3   OH231015   3.548   2.994   4.016  0.0937 -0.5492  0.3701
 3175TIP3    H131016   3.628   2.965   3.971 -0.8395 -2.0156 -0.4077
 3175TIP3    H231017   3.512   3.061   3.959  0.3044 -0.5273  0.2594
 3176TIP3   OH231018   1.792   1.133   2.695 -0.2567  0.6027 -0.5254
 3176TIP3    H131019   1.797   1.205   2.758 -2.2654  0.1719  0.2022
 3176TIP3    H231020   1.831   1.059   2.740 -1.4171  0.3711  0.1285
 3177TIP3   OH231021   1.012   0.542  12.782 -0.1698 -0.1221 -0.0010
 3177TIP3    H131022   1.071   0.530  12.856 -0.3464  0.6417  0.2757
 3177TIP3    H231023   1.007   0.456  12.740  0.6392 -0.3427  0.3428
 3178TIP3   OH231024   4.355   5.713   2.463  0.3287 -0.6081 -0.4785
 3178TIP3    H131025   4.278   5.691   2.514  1.1705  0.4647  1.3718
 3178TIP3    H231026   4.389   5.629   2.432 -0.4873 -1.2503  0.3320
 3179TIP3   OH231027   1.834   6.221   3.725 -0.2510  0.7441  0.1901
 3179TIP3    H131028   1.794   6.223   3.812 -0.0801 -2.2371  0.4425
 3179TIP3    H231029   1.866   6.311   3.711 -0.1501  1.3002  3.2559
 3180TIP3   OH231030   4.059   3.909  14.709 -0.7338 -0.1993  0.5543
 3180TIP3    H131031   4.009   3.956  14.642 -1.1019  1.0074  1.6336
 3180TIP3    H231032   4.150   3.936  14.694 -0.1013 -3.2539 -2.1192
 3181TIP3   OH231033   1.797   6.393   1.628 -0.2343  0.8046  0.0982
 3181TIP3    H131034   1.783   6.429   1.541  0.5565  1.2044  0.1293
 3181TIP3    H231035   1.743   6.314   1.630  0.4706  0.2644 -1.0899
 3182TIP3   OH231036   2.716   0.948   3.965 -0.3541 -0.1268  0.3576
 3182TIP3    H131037   2.789   0.996   3.926 -0.2663  0.3186  1.0535
 3182TIP3    H231038   2.742   0.856   3.960  0.2458  0.0266  0.5706
 3183TIP3   OH231039   1.299   3.504  13.279  0.2452 -0.4777 -0.3634
 3183TIP3    H131040   1.237   3.530  13.348  1.6454  0.1954  0.6809
 3183TIP3    H231041   1.292   3.409  13.275 -0.1879 -0.4861  0.3924
 3184TIP3   OH231042   1.414   5.813   4.386 -0.1306 -0.0784 -0.0804
 3184TIP3    H131043   1.342   5.856   4.432 -1.1561 -0.5499 -1.2118
 3184TIP3    H231044   1.373   5.770   4.311  1.1559 -1.3433 -0.1028
 3185TIP3   OH231045   6.328   3.185   2.870 -0.2749 -0.3010 -0.2752
 3185TIP3    H131046   6.241   3.224   2.880  0.8220  2.6130 -0.9068
 3185TIP3    H231047   6.329   3.150   2.782 -0.5956  0.3282 -0.5376
 3186TIP3   OH231048   4.250   3.293  16.197  0.0959  0.2620  0.0732
 3186TIP3    H131049   4.160   3.321  16.176 -0.0882  0.1740  0.7369
 3186TIP3    H231050   4.240   3.207  16.237  0.3779  0.7564  1.2265
 3187TIP3   OH231051   0.556   3.725  17.075 -0.1203  0.2630  0.0733
 3187TIP3    H131052   0.481   3.713  17.134  0.0688  0.1237  0.2896
 3187TIP3    H231053   0.621   3.771  17.129 -0.5754  1.6880 -0.5308
 3188TIP3   OH231054   0.724   5.742  11.051 -0.2207 -0.1594  1.0218
 3188TIP3    H131055   0.701   5.823  11.004  0.8787  0.6215  1.7855
 3188TIP3    H231056   0.800   5.709  11.005 -0.4651 -0.5887  0.9216
 3189TIP3   OH231057   0.185   6.031  15.948  0.1068  1.3984 -0.4386
 3189TIP3    H131058   0.105   6.069  15.984  0.7199  2.0653  0.2806
 3189TIP3    H231059   0.185   5.941  15.979  0.2504  1.7545  0.6661
 3190TIP3   OH231060   6.424   5.142  14.301 -0.0752 -0.3372 -0.4505
 3190TIP3    H131061   6.477   5.218  14.278  1.0943 -1.4621 -1.6266
 3190TIP3    H231062   6.485   5.081  14.341 -0.9096 -0.8512  0.0699
 3191TIP3   OH231063   1.926   1.556  13.761 -0.1962  0.1634 -0.3002
 3191TIP3    H131064   1.916   1.569  13.855 -1.6515  0.7298 -0.5192
 3191TIP3    H231065   1.946   1.643  13.727 -1.1020  0.2261 -0.6848
 3192TIP3   OH231066   0.460   2.554  14.526  0.8038  0.6461  0.2933
 3192TIP3    H131067   0.404   2.616  14.572 -1.3673 -1.7348  1.0713
 3192TIP3    H231068   0.486   2.600  14.446 -1.1935  2.3278  0.5228
 3193TIP3   OH231069   5.866   2.461   3.573  0.0609  0.3959 -0.2561
 3193TIP3    H131070   5.810   2.434   3.645  0.2495  2.4740  0.7692
 3193TIP3    H231071   5.883   2.381   3.523 -2.3159 -0.5938  0.4178
 3194TIP3   OH231072   6.395   1.909   1.754  0.1667 -0.4516  1.1489
 3194TIP3    H131073   6.360   1.845   1.691 -0.0841  1.0698 -0.3313
 3194TIP3    H231074   6.335   1.905   1.828 -0.8546 -0.6966  0.3335
 3195TIP3   OH231075   3.977   5.508   4.734 -0.2595  0.3951 -0.3837
 3195TIP3    H131076   3.998   5.572   4.666  0.5307 -0.4448 -0.9410
 3195TIP3    H231077   3.975   5.424   4.689  0.9703 -0.2721  0.7387
 3196TIP3   OH231078   3.031   1.790  14.000 -0.2144  0.3866 -0.1353
 3196TIP3    H131079   2.978   1.825  13.929  0.4243  1.4147 -0.1365
 3196TIP3    H231080   3.080   1.717  13.961  0.2485  1.0401 -0.8034
 3197TIP3   OH231081   6.271   3.973  14.952 -0.7296 -0.3107 -0.2176
 3197TIP3    H131082   6.191   4.025  14.958 -1.1271 -1.0096  1.0636
 3197TIP3    H231083   6.240   3.886  14.923 -0.4082 -0.5243  0.0811
 3198TIP3   OH231084   4.961   3.457   5.904  0.1255  0.1748  0.2064
 3198TIP3    H131085   4.927   3.512   5.834  2.5719  2.7972  0.9115
 3198TIP3    H231086   5.052   3.439   5.879  0.5101 -0.3605  1.8478
 3199TIP3   OH231087   6.292   2.684  15.398  0.0288 -0.1520 -0.0609
 3199TIP3    H131088   6.344   2.664  15.475 -0.6519  0.2572  0.5121
 3199TIP3    H231089   6.202   2.660  15.422 -0.2283  0.1823 -0.6478
 3200TIP3   OH231090   0.293   6.683  12.401  0.6387 -0.0674 -0.3146
 3200TIP3    H131091   0.331   6.769  12.386 -2.1188  1.5002  0.8938
 3200TIP3    H231092   0.198   6.698  12.401  0.0800 -2.7338  1.8393
 3201TIP3   OH231093   1.266   2.277  13.453  0.1050  0.3687  0.6639
 3201TIP3    H131094   1.229   2.345  13.396 -1.0279 -0.4442  0.3732
 3201TIP3    H231095   1.330   2.232  13.397  0.1257  0.5557  0.5339
 3202TIP3   OH231096   6.807   0.008   3.571  0.0947  0.5022  0.4822
 3202TIP3    H131097   6.892   0.053   3.571  0.4257 -0.0103 -1.8478
 3202TIP3    H231098   6.829  -0.084   3.563 -0.6756  0.1526  2.0002
 3203TIP3   OH231099   1.074   0.141  12.391 -0.1698 -0.2615 -0.0409
 3203TIP3    H131100   1.147   0.173  12.338  0.7479 -1.5385  0.3829
 3203TIP3    H231101   1.000   0.137  12.330  0.5107 -0.3974 -0.8815
 3204TIP3   OH231102   0.013   2.968  12.744  0.0374  0.3299 -0.1183
 3204TIP3    H131103   0.038   3.028  12.814 -0.3134 -0.1577  0.4281
 3204TIP3    H231104  -0.054   3.016  12.695 -0.6548  0.1726  0.6551
 3205TIP3   OH231105   4.617   5.208  13.721 -0.2667 -0.5058  0.0258
 3205TIP3    H131106   4.680   5.163  13.664  0.5383 -1.2240  1.4083
 3205TIP3    H231107   4.536   5.158  13.711  0.0434 -1.0122 -0.0394
 3206TIP3   OH231108   3.176   0.396  12.812  0.7436 -0.0477 -0.0510
 3206TIP3    H131109   3.104   0.459  12.811  0.1701 -0.6950 -1.4551
 3206TIP3    H231110   3.148   0.328  12.874  0.0006 -0.4419 -0.8065
 3207TIP3   OH231111   6.045   4.985   0.669 -0.0954 -0.0936  0.2470
 3207TIP3    H131112   6.008   5.072   0.682  0.6147  0.2087  0.2524
 3207TIP3    H231113   6.139   4.999   0.661 -0.0105 -0.8189 -0.1246
 3208TIP3   OH231114   6.523   1.062   6.344  0.2517  0.4797  0.0778
 3208TIP3    H131115   6.498   1.151   6.368 -4.0590 -0.6746  0.7205
 3208TIP3    H231116   6.564   1.026   6.423  0.9768  1.5105  0.1868
 3209TIP3   OH231117   5.097   1.699   0.091  0.4291  0.0195  0.0346
 3209TIP3    H131118   5.079   1.606   0.106  0.1285 -0.5567 -3.2318
 3209TIP3    H231119   5.025   1.744   0.134  0.1762 -1.2822  1.0480
 3210TIP3   OH231120   3.646   0.926  10.325 -0.6577  0.5400 -0.3970
 3210TIP3    H131121   3.727   0.955  10.367 -0.7576  1.0238 -0.5356
 3210TIP3    H231122   3.672   0.848  10.276 -0.2098  0.8575 -0.6760
 3211TIP3   OH231123   5.650   3.437  15.414  0.0001 -0.0792 -0.0878
 3211TIP3    H131124   5.613   3.375  15.351  1.0428  0.3655 -1.1829
 3211TIP3    H231125   5.630   3.399  15.499  1.4204 -2.4920 -0.7057
 3212TIP3   OH231126   1.724   5.980  11.812 -0.3227 -0.7742  0.0826
 3212TIP3    H131127   1.796   6.044  11.813  0.0297 -1.1326 -0.9703
 3212TIP3    H231128   1.763   5.898  11.840 -0.5070 -0.7842  0.3105
 3213TIP3   OH231129   1.611   2.392   6.012  0.7013 -0.3148 -0.6601
 3213TIP3    H131130   1.586   2.364   6.100  0.6108  0.5783 -0.3985
 3213TIP3    H231131   1.625   2.310   5.965  1.4752 -0.8061  0.3792
 3214TIP3   OH231132   3.777   1.949  16.728  0.2508  0.0612  0.0952
 3214TIP3    H131133   3.764   1.871  16.783  0.9922  0.7250  1.2733
 3214TIP3    H231134   3.715   2.013  16.761  0.6234  0.4328  0.0883
 3215TIP3   OH231135   6.021   3.725  12.918 -0.5948 -0.2774 -0.4720
 3215TIP3    H131136   5.958   3.704  12.987 -0.8113  1.4555 -0.1001
 3215TIP3    H231137   5.966   3.746  12.842 -0.5420  1.7021 -0.0153
 3216TIP3   OH231138   0.947   6.303   2.137  0.1572 -0.2448 -0.4706
 3216TIP3    H131139   1.025   6.256   2.105  0.4630 -1.3484  1.6863
 3216TIP3    H231140   0.982   6.368   2.198 -0.5389 -0.1506 -0.1654
 3217TIP3   OH231141   4.228   1.790  16.413  0.0039 -0.1954 -0.0512
 3217TIP3    H131142   4.153   1.834  16.453 -2.5119  0.2624 -4.5562
 3217TIP3    H231143   4.285   1.861  16.384 -0.3340 -0.2469 -0.8718
 3218TIP3   OH231144   2.328   2.424  16.406 -0.6525 -0.6477  0.1375
 3218TIP3    H131145   2.298   2.402  16.318  1.8940 -1.0249 -0.7160
 3218TIP3    H231146   2.330   2.340  16.453  2.2560 -1.2955 -0.9228
 3219TIP3   OH231147   6.689   4.549   2.390 -0.0702  0.2406 -0.0279
 3219TIP3    H131148   6.716   4.483   2.326  0.7197  1.5006 -1.0405
 3219TIP3    H231149   6.699   4.506   2.475  1.0923 -0.7186 -0.6203
 3220TIP3   OH231150   2.168   4.266   6.682  0.6021  0.9002 -0.3813
 3220TIP3    H131151   2.079   4.229   6.677  0.5894  1.0028 -0.9676
 3220TIP3    H231152   2.154   4.359   6.702  0.5985  0.7941  0.1105
 3221TIP3   OH231153   2.279   1.629   0.278 -0.1390  0.6993  0.1973
 3221TIP3    H131154   2.187   1.621   0.250 -0.1144  1.6570 -0.1948
 3221TIP3    H231155   2.286   1.718   0.310 -0.3642 -0.5009  4.1217
 3222TIP3   OH231156   4.924   4.398  14.046  0.7462  0.3882 -0.3148
 3222TIP3    H131157   4.869   4.343  13.990 -0.9245  0.7790  0.8623
 3222TIP3    H231158   4.933   4.480  13.998  0.8740  0.0950 -0.8054
 3223TIP3   OH231159   0.220   4.996  12.162 -0.2899  0.3159 -0.4723
 3223TIP3    H131160   0.187   5.046  12.087 -1.5224  0.6605  0.2831
 3223TIP3    H231161   0.277   5.057  12.208  2.1372 -0.4920 -2.1673
 3224TIP3   OH231162   0.070   5.510   4.100  0.7579 -0.0177  0.2751
 3224TIP3    H131163   0.158   5.474   4.088  0.4847 -0.6506  0.0819
 3224TIP3    H231164   0.014   5.453   4.046  0.2201  0.3148  0.4747
 3225TIP3   OH231165   4.927   1.994  15.812  0.0329  0.2493  0.0394
 3225TIP3    H131166   4.968   1.935  15.875 -0.8299 -1.9123 -1.3312
 3225TIP3    H231167   4.987   2.069  15.807  0.5923  0.0579  2.6521
 3226TIP3   OH231168   4.871   1.750   2.226  0.5315  0.5251  0.0744
 3226TIP3    H131169   4.787   1.704   2.231  1.3116 -0.9826 -0.1581
 3226TIP3    H231170   4.848   1.839   2.201 -1.0078  0.1786  0.1506
 3227TIP3   OH231171   2.690   6.623   5.826  0.5170 -0.4209 -0.1144
 3227TIP3    H131172   2.753   6.696   5.831  1.9184 -1.5423 -0.7103
 3227TIP3    H231173   2.607   6.665   5.804  1.4793  0.9448 -1.4060
 3228TIP3   OH231174   2.303   2.625   1.441  0.1511  0.5888  0.0155
 3228TIP3    H131175   2.282   2.578   1.521 -2.6236 -1.8361 -1.9448
 3228TIP3    H231176   2.393   2.600   1.421  0.1820 -0.3855  1.2844
 3229TIP3   OH231177   2.248   6.107   1.379 -0.5128 -0.2625 -0.0690
 3229TIP3    H131178   2.188   6.126   1.307 -0.6368 -0.5548 -0.0441
 3229TIP3    H231179   2.334   6.130   1.346 -0.6554  0.3003 -0.0550
 3230TIP3   OH231180   1.702   6.489   2.341  0.1087  0.2069  0.4987
 3230TIP3    H131181   1.641   6.416   2.352  0.3795 -0.0213  0.4931
 3230TIP3    H231182   1.659   6.546   2.277  0.2392 -0.3314 -0.0805
 3231TIP3   OH231183   3.106   4.806   4.262 -0.7372 -0.7572  0.6142
 3231TIP3    H131184   3.074   4.725   4.303 -1.6037 -0.3037  0.8688
 3231TIP3    H231185   3.074   4.876   4.319 -1.3268 -0.1456 -0.4345
 3232TIP3   OH231186   1.890   0.465  16.279 -0.1482 -0.4094 -0.0713
 3232TIP3    H131187   1.847   0.457  16.193 -0.6364  1.5126 -0.0560
 3232TIP3    H231188   1.829   0.425  16.340 -1.7459  1.7590 -0.1329
 3233TIP3   OH231189   6.554   2.959  11.478  0.1321  0.7876 -0.0774
 3233TIP3    H131190   6.502   2.937  11.400 -1.2476 -0.1273  1.0528
 3233TIP3    H231191   6.541   3.053  11.489 -0.7345  0.6950 -0.2213
 3234TIP3   OH231192   6.280   5.250  12.920 -0.2246 -0.1754 -0.0323
 3234TIP3    H131193   6.301   5.281  12.832  0.6390  0.8020  0.4905
 3234TIP3    H231194   6.342   5.179  12.936  0.8638  0.8485  0.4476
 3235TIP3   OH231195   5.214   4.806   2.056  0.4996 -0.0165 -0.4226
 3235TIP3    H131196   5.141   4.841   2.005 -0.2974 -1.8347 -0.5993
 3235TIP3    H231197   5.268   4.761   1.992  0.5872 -0.5653  0.0310
 3236TIP3   OH231198   6.012   1.997   1.340  0.0468 -0.4750 -0.3381
 3236TIP3    H131199   5.948   2.008   1.269  2.2852 -2.0526 -2.7639
 3236TIP3    H231200   6.034   2.086   1.366 -2.3472  0.1249 -0.0916
 3237TIP3   OH231201   0.886   5.812  12.914 -0.3728 -0.0564 -0.0676
 3237TIP3    H131202   0.959   5.875  12.910  0.7022 -1.2704 -0.4162
 3237TIP3    H231203   0.818   5.851  12.860 -0.2351  1.4067  0.7638
 3238TIP3   OH231204   0.810   5.132  12.038 -0.7146 -0.1574  0.0364
 3238TIP3    H131205   0.791   5.179  12.119 -0.1675 -0.0329  0.0978
 3238TIP3    H231206   0.838   5.045  12.067 -0.0065  0.0522  0.0210
 3239TIP3   OH231207   4.579   4.878  14.785 -0.1934  0.1189 -0.6220
 3239TIP3    H131208   4.645   4.946  14.774 -0.9464  1.0831  0.6347
 3239TIP3    H231209   4.608   4.807  14.727  2.0180  0.4367  0.0171
 3240TIP3   OH231210   3.994   1.797  15.510  0.1713 -0.1558  0.2336
 3240TIP3    H131211   3.910   1.824  15.473  0.2945 -0.4651 -0.2836
 3240TIP3    H231212   3.973   1.767  15.598 -0.0631  1.0240  0.6089
 3241TIP3   OH231213   3.782   2.630  15.911 -0.4588  0.6412 -0.5769
 3241TIP3    H131214   3.772   2.649  15.818  3.0930  1.4490 -0.9335
 3241TIP3    H231215   3.862   2.578  15.917 -1.4645 -0.8016  1.9177
 3242TIP3   OH231216   4.251   3.178  15.047 -0.0172  0.7105  0.4103
 3242TIP3    H131217   4.241   3.215  14.960  1.4869 -1.3199 -0.7281
 3242TIP3    H231218   4.178   3.117  15.056  1.0098 -0.7011 -0.3990
 3243TIP3   OH231219   5.121   6.710   0.623 -0.2002 -0.7725 -0.8809
 3243TIP3    H131220   5.108   6.635   0.681  0.0871  0.5109  0.9501
 3243TIP3    H231221   5.084   6.784   0.671  3.4182  1.0319 -0.5111
 3244TIP3   OH231222   3.080   2.481  15.601  0.1582  0.3871 -0.2706
 3244TIP3    H131223   3.044   2.505  15.686  0.9247  1.2115 -0.1573
 3244TIP3    H231224   3.133   2.404  15.618  0.3202  0.5573  0.0086
 3245TIP3   OH231225   2.600   3.004  12.666 -0.5688 -0.3376 -0.0649
 3245TIP3    H131226   2.631   2.932  12.721 -2.3899 -1.3319 -0.2633
 3245TIP3    H231227   2.552   2.961  12.595  2.0033  0.8693 -2.7541
 3246TIP3   OH231228   2.753   4.073  15.834 -0.0740 -0.2875  0.5728
 3246TIP3    H131229   2.724   4.026  15.756  1.8898  0.0748 -0.4464
 3246TIP3    H231230   2.699   4.152  15.837 -0.6882 -0.6837  0.0275
 3247TIP3   OH231231   6.384   0.892   2.571 -0.0935 -0.2497 -0.1783
 3247TIP3    H131232   6.441   0.817   2.552 -1.3978 -1.0743 -0.9911
 3247TIP3    H231233   6.348   0.915   2.486 -0.4251  0.7243  0.2215
 3248TIP3   OH231234   0.577   5.186  14.516 -0.0187 -0.2790 -0.0225
 3248TIP3    H131235   0.559   5.229  14.599 -1.6645 -1.4605  0.2843
 3248TIP3    H231236   0.656   5.229  14.483  1.8428 -1.0629  3.0445
 3249TIP3   OH231237   3.829   6.030  12.685  0.7634  0.0099 -0.2484
 3249TIP3    H131238   3.786   5.995  12.606 -0.6446  0.3668  0.3310
 3249TIP3    H231239   3.761   6.080  12.729  2.2866  2.1658 -0.2006
 3250TIP3   OH231240   3.477   0.948  12.782 -0.4353 -0.4542  1.0099
 3250TIP3    H131241   3.462   1.041  12.795  1.0374  0.1520 -1.1446
 3250TIP3    H231242   3.412   0.921  12.718  1.0421 -0.1465 -0.6847
 3251TIP3   OH231243   3.578   4.855  12.547  0.4845  0.2022 -0.1456
 3251TIP3    H131244   3.642   4.843  12.477  0.5575  0.3587 -0.1043
 3251TIP3    H231245   3.626   4.899  12.617  0.9014 -1.5066  0.7014
 3252TIP3   OH231246   4.252   5.161  15.262  0.5154  0.4841  0.1435
 3252TIP3    H131247   4.230   5.226  15.329  0.2455  2.0798 -1.4443
 3252TIP3    H231248   4.313   5.206  15.204 -3.1508  1.0351 -3.6737
 3253TIP3   OH231249   4.220   4.434   4.942  0.3646  0.0059 -0.5922
 3253TIP3    H131250   4.264   4.516   4.963  0.3706 -0.2053  0.2610
 3253TIP3    H231251   4.173   4.452   4.860  1.9142  0.2667 -1.4616
 3254TIP3   OH231252   0.585   2.233   1.902  0.0451  0.4884  0.9201
 3254TIP3    H131253   0.671   2.274   1.912  0.3991 -0.0383  0.1665
 3254TIP3    H231254   0.598   2.143   1.931 -0.5401  0.7002  1.8648
 3255TIP3   OH231255   4.760   2.740   1.706 -0.1314  0.2453  0.3966
 3255TIP3    H131256   4.832   2.743   1.768 -0.8900 -0.8848  1.3676
 3255TIP3    H231257   4.792   2.789   1.630  1.5560 -0.0226  0.8940
 3256TIP3   OH231258   3.279   0.254  16.604  0.0822  0.5325 -0.1156
 3256TIP3    H131259   3.198   0.251  16.554  0.1195  2.7631 -0.4234
 3256TIP3    H231260   3.280   0.172  16.653 -1.4554 -0.3455 -1.4492
 3257TIP3   OH231261   0.335   3.144  15.431 -0.0942  0.1658  0.3613
 3257TIP3    H131262   0.366   3.168  15.344  2.1076 -1.2257  0.6734
 3257TIP3    H231263   0.322   3.050  15.427  0.0253  0.0875  1.5226
 3258TIP3   OH231264   0.521   5.059   2.329  0.6190  0.4051 -0.5953
 3258TIP3    H131265   0.460   5.008   2.383  1.3477  0.0122 -0.1189
 3258TIP3    H231266   0.479   5.063   2.243 -0.9037  1.6490  0.1445
 3259TIP3   OH231267   4.431   3.609  16.864  0.3634  0.3695  0.9668
 3259TIP3    H131268   4.521   3.592  16.893  0.8119  1.3163  0.1949
 3259TIP3    H231269   4.377   3.588  16.940  1.1340 -1.2147  1.1098
 3260TIP3   OH231270   0.721   4.965  13.258 -0.0418 -0.1620  0.3966
 3260TIP3    H131271   0.797   5.003  13.303 -0.8988  0.1994  1.5835
 3260TIP3    H231272   0.666   4.931  13.328 -1.1973 -0.0131 -0.4082
 3261TIP3   OH231273   6.501   0.134   4.983 -0.4634 -0.1155  0.1866
 3261TIP3    H131274   6.589   0.116   4.951 -0.8967 -1.2304 -0.4282
 3261TIP3    H231275   6.456   0.050   4.979 -1.5928  0.4582  0.3792
 3262TIP3   OH231276   4.352   2.058  12.526  0.4427  0.2606  0.5079
 3262TIP3    H131277   4.311   2.130  12.478  1.1491  0.2103 -0.1981
 3262TIP3    H231278   4.327   2.073  12.617 -1.0241  0.2859  0.1208
 3263TIP3   OH231279   3.342   3.358   2.999 -0.0900 -0.5614  0.9526
 3263TIP3    H131280   3.389   3.426   3.047 -0.3690 -0.6222  1.3157
 3263TIP3    H231281   3.410   3.300   2.966  0.6287  2.1815 -3.1367
 3264TIP3   OH231282   2.533   4.133   5.555  0.1646  0.2866  0.1157
 3264TIP3    H131283   2.482   4.088   5.488  0.2980 -0.9187  0.7987
 3264TIP3    H231284   2.499   4.100   5.638  1.2055  0.4011  0.6023
 3265TIP3   OH231285   0.540   3.242   6.179  0.4240  0.0021  0.0781
 3265TIP3    H131286   0.481   3.182   6.133  0.4714 -1.1761  1.4895
 3265TIP3    H231287   0.529   3.221   6.271  1.7277  1.0093  0.4945
 3266TIP3   OH231288   4.351   6.645  14.647  0.1400 -0.5310  0.0607
 3266TIP3    H131289   4.356   6.564  14.596  0.2342 -0.7052  0.3452
 3266TIP3    H231290   4.273   6.635  14.702 -0.9965  0.3904 -1.2873
 3267TIP3   OH231291   3.965   5.240   4.356  0.3896 -0.6139  0.1682
 3267TIP3    H131292   3.954   5.309   4.292  3.0315 -0.9672 -0.8014
 3267TIP3    H231293   3.952   5.159   4.307  1.5682 -0.8643  0.2274
 3268TIP3   OH231294   5.814   2.349   4.898 -0.1541 -0.0438 -0.8275
 3268TIP3    H131295   5.872   2.410   4.852 -0.2545 -0.7270 -1.8889
 3268TIP3    H231296   5.787   2.396   4.977  0.5493  0.9027 -1.1401
 3269TIP3   OH231297   1.599   3.640  12.047 -0.0254  0.3724  0.7401
 3269TIP3    H131298   1.541   3.658  11.973 -1.5545  0.2095  1.8564
 3269TIP3    H231299   1.640   3.724  12.067  2.4076 -0.0220 -1.8142
 3270TIP3   OH231300   1.848   0.685   2.092  0.1118 -0.6663 -0.0654
 3270TIP3    H131301   1.799   0.612   2.130 -0.4683 -0.4479 -0.3851
 3270TIP3    H231302   1.787   0.726   2.031 -0.6283  1.8379  2.1539
 3271TIP3   OH231303   3.553   6.446   3.868  0.2976  0.3209  0.3478
 3271TIP3    H131304   3.515   6.423   3.953  1.5097 -1.8375  0.3741
 3271TIP3    H231305   3.563   6.362   3.823  0.0288  1.3768 -1.8146
 3272TIP3   OH231306   0.599   0.020   3.779 -0.5353 -0.3642 -0.1611
 3272TIP3    H131307   0.504   0.028   3.788 -0.3483  0.2155  1.6246
 3272TIP3    H231308   0.623  -0.049   3.840  0.0620 -1.5506 -1.6676
 3273TIP3   OH231309   6.429   0.696   5.095 -0.0752  0.1865 -0.0937
 3273TIP3    H131310   6.394   0.736   5.174  0.6163 -0.7801  0.7335
 3273TIP3    H231311   6.491   0.760   5.061  2.5360 -0.8300  2.3105
 3274TIP3   OH231312   3.232   1.730  10.254  0.0950 -0.0063 -0.3701
 3274TIP3    H131313   3.293   1.777  10.311 -0.1605 -0.4297  0.2596
 3274TIP3    H231314   3.234   1.640  10.285 -0.4165 -0.1407 -0.7166
 3275TIP3   OH231315   2.453   0.729   4.755 -0.2818 -0.1384  0.0527
 3275TIP3    H131316   2.512   0.751   4.683 -0.7041  1.6079  0.1787
 3275TIP3    H231317   2.406   0.652   4.725  0.5849 -0.3129 -0.9180
 3276TIP3   OH231318   5.204   2.545  16.107 -0.3312 -0.1522 -0.1983
 3276TIP3    H131319   5.192   2.635  16.078 -0.1426 -0.6408 -1.8739
 3276TIP3    H231320   5.293   2.522  16.081  0.4848 -0.1322  2.2771
 3277TIP3   OH231321   1.362   0.232   5.274  0.3314  0.1904  0.4911
 3277TIP3    H131322   1.285   0.204   5.323 -0.2381  0.4284 -0.2460
 3277TIP3    H231323   1.412   0.285   5.335 -0.9423  1.4482  0.4950
 3278TIP3   OH231324   0.746   4.618  16.693  0.2355 -0.1561  0.0249
 3278TIP3    H131325   0.812   4.557  16.727  1.2557  0.4101 -0.8929
 3278TIP3    H231326   0.736   4.595  16.601 -1.2006 -0.5198  0.2459
 3279TIP3   OH231327   2.739   4.275   4.316 -0.0038 -0.1417  0.8905
 3279TIP3    H131328   2.723   4.222   4.238  0.0720  1.0028  0.0741
 3279TIP3    H231329   2.697   4.359   4.297 -0.7667 -0.1252  2.4584
 3280TIP3   OH231330   6.007   2.902   2.360  0.2861 -0.1946  0.5381
 3280TIP3    H131331   6.068   2.854   2.415  0.5310 -0.6722 -0.1349
 3280TIP3    H231332   6.058   2.924   2.282 -0.7456 -1.7666 -0.6397
 3281TIP3   OH231333   2.699   5.777   5.962 -0.8010  0.3039 -0.2898
 3281TIP3    H131334   2.731   5.862   5.993  2.6309 -0.9202  0.0121
 3281TIP3    H231335   2.738   5.767   5.875 -3.6855  0.2450 -1.6845
 3282TIP3   OH231336   5.542   3.695   4.604  0.6035  0.4664  0.0647
 3282TIP3    H131337   5.539   3.660   4.515  0.1426 -2.0727  0.9858
 3282TIP3    H231338   5.460   3.667   4.644  1.9961 -1.0603  2.1276
 3283TIP3   OH231339   4.684   3.551  15.420 -0.3120  0.2701  0.5217
 3283TIP3    H131340   4.776   3.530  15.403 -0.3649 -0.6222  1.2635
 3283TIP3    H231341   4.687   3.618  15.488 -0.2015  0.6651  0.1305
 3284TIP3   OH231342   0.935   0.330  14.514  0.0369  0.7210  0.9409
 3284TIP3    H131343   0.856   0.289  14.548 -0.4612  0.8539 -0.0122
 3284TIP3    H231344   0.952   0.403  14.572  0.7065 -0.5637  2.4313
 3285TIP3   OH231345   1.369   0.517  14.218  0.1479  0.6235 -0.1507
 3285TIP3    H131346   1.335   0.593  14.170 -0.7192  2.5400  3.2004
 3285TIP3    H231347   1.296   0.487  14.271  1.3868 -0.5430  0.9790
 3286TIP3   OH231348   6.549   2.996   5.230  0.1289 -0.3289 -0.6082
 3286TIP3    H131349   6.555   3.067   5.294 -0.9872 -0.4897 -0.3075
 3286TIP3    H231350   6.503   3.036   5.156  1.2967 -0.1804 -1.2840
 3287TIP3   OH231351   4.712   1.886  17.292 -0.1609  0.1604  0.0594
 3287TIP3    H131352   4.629   1.845  17.268  0.5160 -1.2213 -0.0469
 3287TIP3    H231353   4.754   1.906  17.208 -0.7395  1.7115  0.0939
 3288TIP3   OH231354   1.328   5.553   5.769 -0.3372 -0.4023  0.1028
 3288TIP3    H131355   1.251   5.603   5.797 -0.2644 -0.9793  1.4112
 3288TIP3    H231356   1.347   5.495   5.843  1.0998 -0.5748 -0.3742
 3289TIP3   OH231357   5.755   2.596  12.860  0.3802 -0.2801  0.1847
 3289TIP3    H131358   5.781   2.616  12.770 -2.2476  2.4373 -0.1184
 3289TIP3    H231359   5.749   2.500  12.863  0.8562 -0.4503 -2.4002
 3290TIP3   OH231360   4.154   2.029   4.997 -0.2740  0.1846 -0.1775
 3290TIP3    H131361   4.095   2.044   5.071  0.4187 -0.2257  0.4577
 3290TIP3    H231362   4.153   1.935   4.984 -0.9762  0.3069 -1.1917
 3291TIP3   OH231363   3.864   4.611   0.165 -0.2697  0.0995 -0.9713
 3291TIP3    H131364   3.881   4.656   0.248  1.6797 -1.6734 -0.3308
 3291TIP3    H231365   3.907   4.666   0.100 -1.3200  1.2034 -0.7648
 3292TIP3   OH231366   6.580   5.879  12.927  0.1586  0.0435  0.2267
 3292TIP3    H131367   6.515   5.922  12.872  0.1990 -1.9690 -1.5053
 3292TIP3    H231368   6.600   5.944  12.995 -1.1778  1.9627 -1.0962
 3293TIP3   OH231369   6.714   1.320  16.607 -0.4908 -0.2190  0.2719
 3293TIP3    H131370   6.701   1.341  16.515 -1.3568 -0.3582  0.3526
 3293TIP3    H231371   6.692   1.227  16.614  0.1415 -0.3597  0.5192
 3294TIP3   OH231372   5.006   3.350   1.468 -0.4822 -0.2954  0.0860
 3294TIP3    H131373   4.934   3.289   1.485  0.2126 -0.7196  1.7014
 3294TIP3    H231374   5.074   3.297   1.427  0.1416 -0.6589  1.5365
 3295TIP3   OH231375   4.359   2.958  16.400 -0.3748 -0.7837 -0.0487
 3295TIP3    H131376   4.420   3.024  16.367 -2.4341  0.5271 -1.5201
 3295TIP3    H231377   4.389   2.939  16.489  2.0970 -0.1984 -0.6913
 3296TIP3   OH231378   0.660   2.269  12.844 -0.4037 -0.2755 -1.2015
 3296TIP3    H131379   0.592   2.207  12.868 -0.3750 -0.1152 -0.7026
 3296TIP3    H231380   0.671   2.325  12.921  2.9737 -2.6083  0.2592
 3297TIP3   OH231381   0.295   1.802  14.251 -0.1819  0.7196  0.2267
 3297TIP3    H131382   0.272   1.710  14.265 -0.8036  0.5607 -1.6902
 3297TIP3    H231383   0.376   1.813  14.301  0.0213 -0.9229  0.3200
 3298TIP3   OH231384   6.691   0.406   4.862 -0.3488 -0.3612  0.2811
 3298TIP3    H131385   6.759   0.353   4.904  1.1902  1.2482 -0.0858
 3298TIP3    H231386   6.696   0.491   4.906 -2.2654 -0.2517  0.3542
 3299TIP3   OH231387   4.163   1.807   4.644  0.3340  0.1950 -0.1616
 3299TIP3    H131388   4.137   1.722   4.609  0.6409 -0.5254  1.2800
 3299TIP3    H231389   4.257   1.811   4.627  0.3929  0.0549  0.1127
 3300TIP3   OH231390   4.913   3.539  16.663  0.1255  0.3727 -0.0543
 3300TIP3    H131391   4.885   3.467  16.606  3.6607 -2.6791  1.6259
 3300TIP3    H231392   4.965   3.595  16.606 -0.3245  0.0719 -0.7900
 3301TIP3   OH231393   1.961   2.521   1.682 -0.3502 -0.9627 -0.1505
 3301TIP3    H131394   2.017   2.519   1.760 -0.8050 -0.7476  0.1816
 3301TIP3    H231395   1.976   2.435   1.641  0.1846 -0.9294 -0.0426
 3302TIP3   OH231396   1.735   4.147   3.706 -0.3056  0.0180  0.4433
 3302TIP3    H131397   1.817   4.097   3.703  0.1640  0.7513  0.7738
 3302TIP3    H231398   1.755   4.221   3.762 -1.0544  0.4761  0.1111
 3303TIP3   OH231399   3.487   2.706   5.525  0.4369 -0.0949  1.0861
 3303TIP3    H131400   3.456   2.784   5.480  1.3474 -0.1566  0.3278
 3303TIP3    H231401   3.473   2.725   5.618  0.6930  0.9919  0.9142
 3304TIP3   OH231402   5.250   1.485   3.535  0.3189  0.3233 -0.8152
 3304TIP3    H131403   5.163   1.522   3.515  0.1748  0.2075 -0.4026
 3304TIP3    H231404   5.235   1.428   3.610  0.7394  0.2325 -0.8010
 3305TIP3   OH231405   0.220   4.834  12.455  0.7682  0.4513 -0.1697
 3305TIP3    H131406   0.272   4.848  12.376  0.0217 -0.1353 -0.7778
 3305TIP3    H231407   0.213   4.738  12.462  0.4437  0.5084  0.3497
 3306TIP3   OH231408   2.761   0.729  16.067  1.1646  0.2867 -0.2991
 3306TIP3    H131409   2.812   0.753  15.990  0.7665 -1.0908 -1.0378
 3306TIP3    H231410   2.688   0.678  16.032  0.4628  0.4067  0.9174
 3307TIP3   OH231411   4.266   6.195   5.068 -0.3661  0.2387 -0.1942
 3307TIP3    H131412   4.229   6.130   5.007 -0.5837 -0.7636  0.9762
 3307TIP3    H231413   4.267   6.151   5.153  1.5977  0.9826  0.2220
 3308TIP3   OH231414   4.598   4.661   1.924 -0.0110 -0.4035  0.0185
 3308TIP3    H131415   4.561   4.631   1.842 -0.7878  0.6243 -0.0152
 3308TIP3    H231416   4.524   4.662   1.985  0.6642 -1.7373  0.9185
 3309TIP3   OH231417   5.700   4.280  11.078 -0.0892 -0.0100 -0.2513
 3309TIP3    H131418   5.703   4.374  11.062  2.9384  0.1849  0.8514
 3309TIP3    H231419   5.608   4.256  11.065 -0.6824  2.8114 -1.9561
 3310TIP3   OH231420   1.341   0.736   1.453 -0.5648  0.3437  0.5495
 3310TIP3    H131421   1.316   0.825   1.429  0.7059  0.1966 -1.5418
 3310TIP3    H231422   1.437   0.737   1.452 -0.5310 -1.0131  0.5935
 3311TIP3   OH231423   2.637   4.219   6.032 -0.2519  0.2222 -0.5285
 3311TIP3    H131424   2.652   4.218   6.127 -1.3976 -2.4020 -0.3005
 3311TIP3    H231425   2.544   4.237   6.022 -0.0649  0.8736 -1.2096
 3312TIP3   OH231426   4.680   0.074   1.808 -0.0783 -0.1947  0.0882
 3312TIP3    H131427   4.691   0.077   1.713 -6.6203  2.9190 -1.1078
 3312TIP3    H231428   4.707   0.160   1.838 -1.4783  0.1863  0.3254
 3313TIP3   OH231429   0.751   0.210   4.821  0.0813 -0.1039 -0.3959
 3313TIP3    H131430   0.821   0.212   4.756  1.3156 -0.9629  0.8325
 3313TIP3    H231431   0.739   0.301   4.846  2.4727 -0.1010  1.0506
 3314TIP3   OH231432   2.714   3.907   4.812 -0.2461 -0.3480 -0.1708
 3314TIP3    H131433   2.796   3.901   4.861 -0.1342  0.1715 -0.2946
 3314TIP3    H231434   2.688   3.816   4.798  0.7460 -0.5362 -0.8591
 3315TIP3   OH231435   4.106   4.604   2.178 -0.0046 -1.0444 -0.2177
 3315TIP3    H131436   4.136   4.583   2.267 -1.0814 -2.4305 -0.1328
 3315TIP3    H231437   4.128   4.525   2.127  0.4837 -0.3138 -1.1717
 3316TIP3   OH231438   0.101   2.973  14.937 -0.5748 -0.0653 -0.3413
 3316TIP3    H131439   0.018   2.971  14.984 -1.5022  1.7631 -1.7977
 3316TIP3    H231440   0.161   2.923  14.993 -2.1680  0.0986  1.6299
 3317TIP3   OH231441   4.418   0.225  11.770  0.1400 -0.2699 -0.1895
 3317TIP3    H131442   4.359   0.236  11.844  0.3585  0.7487 -0.1473
 3317TIP3    H231443   4.430   0.313  11.736  2.1298 -0.3326  0.1940
 3318TIP3   OH231444   2.149   6.511  16.404 -0.0008  0.0721  0.1160
 3318TIP3    H131445   2.216   6.447  16.378 -0.1884 -0.0876  0.0273
 3318TIP3    H231446   2.154   6.579  16.336  0.3288  0.2463  0.3134
 3319TIP3   OH231447   1.365   5.009   4.463 -0.1761  0.6908  0.0522
 3319TIP3    H131448   1.427   4.991   4.533  0.0258 -0.1164 -0.3169
 3319TIP3    H231449   1.284   4.966   4.491 -0.3298  1.0348  0.1469
 3320TIP3   OH231450   6.030   2.060   0.783 -0.0142 -0.2163 -0.2056
 3320TIP3    H131451   6.033   1.966   0.768  1.0304 -0.0312 -1.3462
 3320TIP3    H231452   6.122   2.086   0.793 -0.3666  0.1848  3.8413
 3321TIP3   OH231453   0.471   6.806   1.462 -0.1447 -0.1601  0.8114
 3321TIP3    H131454   0.445   6.783   1.551 -1.4752  0.3031  0.5759
 3321TIP3    H231455   0.398   6.777   1.408  0.9032 -0.9604 -0.2121
 3322TIP3   OH231456   5.039   3.258   3.058 -0.0629 -0.2654 -0.7853
 3322TIP3    H131457   5.039   3.163   3.068 -0.0989 -0.2689 -0.8177
 3322TIP3    H231458   5.121   3.286   3.100 -0.0861 -0.3038 -0.7133
 3323TIP3   OH231459   4.507   6.256  15.435 -0.3060  0.1960 -0.1026
 3323TIP3    H131460   4.513   6.263  15.530 -2.2277  0.6840  0.0233
 3323TIP3    H231461   4.457   6.333  15.408 -0.2204 -0.1870 -1.4485
 3324TIP3   OH231462   3.893   0.729  16.574  0.1576 -0.0681 -0.5053
 3324TIP3    H131463   3.845   0.795  16.523  1.2476 -0.1641 -1.7127
 3324TIP3    H231464   3.838   0.650  16.569 -0.6471  0.4355  0.0729
 3325TIP3   OH231465   1.381   6.584  12.023 -0.4244 -0.1972 -0.4725
 3325TIP3    H131466   1.407   6.501  12.063 -0.7689 -0.3940 -0.6507
 3325TIP3    H231467   1.365   6.562  11.931  0.4908  0.2759 -0.7515
 3326TIP3   OH231468   3.418   4.295   1.242  0.6501  0.1100  0.3863
 3326TIP3    H131469   3.345   4.234   1.246  0.8970 -0.2716 -0.5596
 3326TIP3    H231470   3.415   4.330   1.152  1.0560  0.8017  0.6324
 3327TIP3   OH231471   1.870   4.263   4.015 -0.4357 -0.7301  0.2481
 3327TIP3    H131472   1.882   4.303   4.102  0.3568  1.0007 -0.6141
 3327TIP3    H231473   1.877   4.169   4.031  0.0714 -0.4306  2.0079
 3328TIP3   OH231474   0.338   4.778  13.154 -0.2218  0.4408  0.3236
 3328TIP3    H131475   0.340   4.684  13.137 -0.7025 -0.0964  2.8747
 3328TIP3    H231476   0.403   4.792  13.223 -1.1893  1.7310  1.0150
 3329TIP3   OH231477   3.732   1.199  12.336  0.0946  0.3432  0.2836
 3329TIP3    H131478   3.697   1.288  12.344 -0.5390 -0.0071  1.6906
 3329TIP3    H231479   3.817   1.203  12.379  0.8231  0.6367 -1.1120
 3330TIP3   OH231480   0.174   2.367   4.385 -0.2043  0.3381 -0.5681
 3330TIP3    H131481   0.121   2.440   4.352  0.1194 -0.1050 -2.1453
 3330TIP3    H231482   0.256   2.408   4.414 -0.4828  0.7333 -0.3246
 3331TIP3   OH231483   4.653   3.492  12.865  0.2938 -0.3434 -0.2449
 3331TIP3    H131484   4.734   3.540  12.849 -0.1090  0.1485 -0.8895
 3331TIP3    H231485   4.589   3.560  12.886  0.4804 -0.8614  2.3154
 3332TIP3   OH231486   3.849   5.163  11.746 -0.4294 -0.1012  0.0554
 3332TIP3    H131487   3.758   5.173  11.777 -0.6240 -1.5277  0.0019
 3332TIP3    H231488   3.840   5.132  11.656  0.1427  1.5446 -0.6171
 3333TIP3   OH231489   4.286   5.795  13.449 -0.1962 -0.6000 -0.8335
 3333TIP3    H131490   4.374   5.759  13.461  0.7322  1.7670  0.2499
 3333TIP3    H231491   4.246   5.789  13.536 -0.5302 -0.3191 -0.9663
 3334TIP3   OH231492   2.472   0.317  12.282  0.2020  0.1619 -0.0705
 3334TIP3    H131493   2.409   0.251  12.310  0.9988 -1.4624 -1.8601
 3334TIP3    H231494   2.441   0.398  12.322 -1.4220 -1.0806  1.3495
 3335TIP3   OH231495   6.570   2.123   3.860  0.4384 -0.1087 -0.1268
 3335TIP3    H131496   6.499   2.136   3.923  2.1493 -0.2837  1.9827
 3335TIP3    H231497   6.530   2.077   3.787 -1.9314  1.2454  0.2470
 3336TIP3   OH231498   4.936   2.102  16.089 -0.5467 -0.6524  0.3596
 3336TIP3    H131499   4.860   2.044  16.094 -0.4989 -0.7709 -0.2170
 3336TIP3    H231500   4.999   2.066  16.152 -1.3918  0.0985  1.6753
 3337TIP3   OH231501   4.989   2.749  14.766  0.2311  0.3458  0.0644
 3337TIP3    H131502   4.996   2.736  14.672  0.1290  1.0744 -0.0533
 3337TIP3    H231503   5.079   2.764  14.795  0.3120 -0.2884  0.1527
 3338TIP3   OH231504   1.771   3.008  16.704 -0.2009  0.0002 -0.3494
 3338TIP3    H131505   1.800   2.932  16.754 -2.3485  0.1365  1.2615
 3338TIP3    H231506   1.848   3.035  16.654  1.7188 -0.9141  1.9440
 3339TIP3   OH231507   5.196   1.584   6.566  0.1893 -0.1412 -0.6959
 3339TIP3    H131508   5.151   1.587   6.482  0.0564  0.7276 -0.5931
 3339TIP3    H231509   5.152   1.649   6.621 -0.3341 -1.3394  0.3635
 3340TIP3   OH231510   0.945   3.502  14.344  0.0281 -0.0489  0.7859
 3340TIP3    H131511   1.030   3.460  14.340  1.3724  2.4113  1.5635
 3340TIP3    H231512   0.937   3.533  14.434 -1.9923 -0.7468  0.9059
 3341TIP3   OH231513   4.081   5.100   0.412 -0.5094  0.0230  0.3770
 3341TIP3    H131514   4.162   5.126   0.458  0.0659  0.1324 -0.6663
 3341TIP3    H231515   4.023   5.070   0.482  0.1662  0.6263  1.2319
 3342TIP3   OH231516   2.150   4.797  12.815  0.3756  0.1269  0.3332
 3342TIP3    H131517   2.174   4.753  12.896 -1.5357 -0.1761  0.7767
 3342TIP3    H231518   2.076   4.747  12.781  1.4863 -0.0943 -1.9207
 3343TIP3   OH231519   1.973   2.712   5.240  0.1599  0.5392  0.1745
 3343TIP3    H131520   1.995   2.691   5.331  0.7025  1.2565  0.2138
 3343TIP3    H231521   1.892   2.762   5.246 -0.8456 -1.0025  0.1169
 3344TIP3   OH231522   1.063   3.086  11.016 -0.0599  0.1648 -0.2041
 3344TIP3    H131523   1.158   3.078  11.006  0.0250  1.0562 -0.1866
 3344TIP3    H231524   1.046   3.180  11.015 -0.8630  0.0434  0.6016
 3345TIP3   OH231525   1.345   3.726  16.122 -0.0062 -0.4821 -0.3740
 3345TIP3    H131526   1.384   3.641  16.140 -0.7954 -0.7473  0.0924
 3345TIP3    H231527   1.320   3.760  16.208 -2.8210 -1.2932 -0.7571
 3346TIP3   OH231528   6.546   2.527  11.735 -0.2787 -0.6898  0.2172
 3346TIP3    H131529   6.480   2.470  11.776  2.1011 -2.8678  1.3474
 3346TIP3    H231530   6.602   2.466  11.687  2.7990  0.5050  2.0277
 3347TIP3   OH231531   0.088   3.154  17.171  0.5638 -0.2877 -0.4161
 3347TIP3    H131532   0.064   3.076  17.122  0.6210 -0.8395  0.4041
 3347TIP3    H231533   0.097   3.124  17.262 -1.7749  1.0984  0.3703
 3348TIP3   OH231534   5.413   6.594  16.340  0.3808 -0.3007  0.0894
 3348TIP3    H131535   5.345   6.570  16.277  0.4283 -0.1029 -0.0379
 3348TIP3    H231536   5.460   6.512  16.358 -1.0671 -0.8514  1.6072
 3349TIP3   OH231537   0.761   6.579  16.273  0.5399 -0.2728 -0.1557
 3349TIP3    H131538   0.704   6.566  16.197  0.4056  1.5270 -0.4164
 3349TIP3    H231539   0.841   6.616  16.237  1.1304 -0.9518  0.4259
 3350TIP3   OH231540   3.759   5.942   2.953  0.3584  0.1913  0.1650
 3350TIP3    H131541   3.690   5.988   3.001 -0.5748 -1.1867  0.2020
 3350TIP3    H231542   3.739   5.959   2.860  1.7180  2.2171  0.1810
 3351TIP3   OH231543   0.242   4.215  11.713  0.6402 -0.4389  0.4234
 3351TIP3    H131544   0.241   4.231  11.619 -0.7277 -1.5995  0.2112
 3351TIP3    H231545   0.248   4.302  11.752 -0.9357  0.2133 -0.7074
 3352TIP3   OH231546   1.100   0.168  13.877  0.3943  0.2633 -0.0630
 3352TIP3    H131547   1.036   0.147  13.808  0.1901  1.1323 -0.1511
 3352TIP3    H231548   1.063   0.130  13.956 -0.3013  0.8538 -0.0903
 3353TIP3   OH231549   1.533   5.928  13.582  0.0979 -0.1041 -0.6594
 3353TIP3    H131550   1.568   5.924  13.493  3.0736  1.9087  0.2689
 3353TIP3    H231551   1.515   5.837  13.605  1.0848 -0.8526 -2.6743
 3354TIP3   OH231552   3.730   5.518   0.297  0.3078  0.2675 -0.3494
 3354TIP3    H131553   3.715   5.465   0.218  0.6359 -0.5229  0.1033
 3354TIP3    H231554   3.718   5.608   0.268 -0.8238 -0.0754 -1.0099
 3355TIP3   OH231555   5.164   4.747  14.166  0.2462  0.1112 -0.0497
 3355TIP3    H131556   5.196   4.702  14.088 -0.8013 -0.2583 -0.2937
 3355TIP3    H231557   5.182   4.839  14.150  0.9887 -0.0669 -0.2586
 3356TIP3   OH231558   2.379   2.467   0.413  0.6294  0.0104 -0.2830
 3356TIP3    H131559   2.400   2.552   0.374  1.6062  0.3378  0.9111
 3356TIP3    H231560   2.392   2.405   0.341  0.6277  0.7793 -0.9724
 3357TIP3   OH231561   5.191   2.521  11.695  0.2906 -0.0677  0.1842
 3357TIP3    H131562   5.238   2.535  11.613 -0.1162 -0.6738 -0.1581
 3357TIP3    H231563   5.171   2.609  11.727 -1.2551  0.1858 -1.3651
 3358TIP3   OH231564   0.753   1.288  13.088 -0.2158  0.5237  0.0859
 3358TIP3    H131565   0.726   1.211  13.139  0.9739 -0.9200 -1.3612
 3358TIP3    H231566   0.688   1.355  13.111 -0.0873 -0.1969  3.0204
 3359TIP3   OH231567   2.942   1.824  12.996  0.2706  0.0060  0.0558
 3359TIP3    H131568   3.000   1.898  12.978  0.9490 -0.8897 -1.5854
 3359TIP3    H231569   2.868   1.863  13.043  1.7006  1.3347  1.3445
 3360TIP3   OH231570   6.263   6.669  14.269 -0.1288  0.1498  0.3569
 3360TIP3    H131571   6.263   6.715  14.353 -0.7754  0.5760  0.1349
 3360TIP3    H231572   6.287   6.579  14.290  3.1773  0.9596  0.5821
 3361TIP3   OH231573   0.973   1.114  11.928 -0.1446  0.0291  0.2705
 3361TIP3    H131574   0.989   1.186  11.989  3.6298  0.6954 -1.2692
 3361TIP3    H231575   0.997   1.149  11.842  0.6128 -2.6566 -0.7074
 3362TIP3   OH231576   1.477   6.350  12.199 -0.1253  0.0336 -0.3666
 3362TIP3    H131577   1.472   6.399  12.281  0.7368 -1.1154  0.4077
 3362TIP3    H231578   1.567   6.320  12.194 -0.8752 -2.5587 -0.0999
 3363TIP3   OH231579   3.520   1.769   3.728 -0.7157  0.4648  0.6039
 3363TIP3    H131580   3.488   1.683   3.701 -1.0351  0.1005  2.0409
 3363TIP3    H231581   3.501   1.826   3.654 -0.5866 -0.6812 -0.3348
 3364TIP3   OH231582   0.981   2.848  11.411 -0.3052  0.3416  0.3430
 3364TIP3    H131583   0.930   2.882  11.338  1.3656 -0.1216 -1.0980
 3364TIP3    H231584   0.963   2.754  11.412  1.3650 -0.0324 -0.9430
 3365TIP3   OH231585   5.782   6.388  13.570  0.4676 -0.3429 -0.2639
 3365TIP3    H131586   5.740   6.306  13.594  0.8854 -0.2498  0.8315
 3365TIP3    H231587   5.774   6.443  13.648 -0.6996  1.0360 -1.2874
 3366TIP3   OH231588   1.166   6.349   3.270  0.6651  0.4295  0.6259
 3366TIP3    H131589   1.210   6.431   3.293  0.5061  0.0317  2.5759
 3366TIP3    H231590   1.205   6.322   3.188  1.0600  2.2121  0.1845
 3367TIP3   OH231591   2.473   0.220  13.494  0.5675  0.0222  0.1198
 3367TIP3    H131592   2.405   0.237  13.559 -1.6682 -2.2286 -1.4514
 3367TIP3    H231593   2.503   0.131  13.512  0.5741 -0.2940 -1.3442
 3368TIP3   OH231594   1.097   4.739  14.808 -0.1094 -0.6617  0.2144
 3368TIP3    H131595   1.011   4.699  14.824  0.2515 -1.9778 -0.9339
 3368TIP3    H231596   1.124   4.705  14.723  2.0133 -1.1446  1.0100
 3369TIP3   OH231597   4.108   6.110  12.783 -0.0088  0.1897  0.2606
 3369TIP3    H131598   4.035   6.053  12.758  0.3212  0.3545 -1.1724
 3369TIP3    H231599   4.118   6.096  12.877 -1.6696 -0.0799  0.4253
 3370TIP3   OH231600   3.657   6.258  14.827  0.3481 -0.0093 -0.5970
 3370TIP3    H131601   3.651   6.177  14.878  2.5844 -0.0245 -0.2552
 3370TIP3    H231602   3.654   6.328  14.892  1.1315  0.0483 -0.6095
 3371TIP3   OH231603   5.146   4.945   1.150  0.0653  0.2267  0.2004
 3371TIP3    H131604   5.124   5.031   1.187 -0.4424  0.5670 -0.8379
 3371TIP3    H231605   5.132   4.956   1.056 -1.1798 -1.3507  0.1630
 3372TIP3   OH231606   4.293   2.159   5.218  0.2976  0.1686 -0.4058
 3372TIP3    H131607   4.378   2.124   5.246 -0.0488 -0.4789 -0.1311
 3372TIP3    H231608   4.274   2.112   5.137 -0.8555 -1.4209  0.7269
 3373TIP3   OH231609   4.415   1.718  11.530  0.1034  0.3238  0.5077
 3373TIP3    H131610   4.368   1.654  11.476 -0.3004  1.2408 -0.2574
 3373TIP3    H231611   4.490   1.670  11.565 -1.6787 -1.3591  2.2699
 3374TIP3   OH231612   6.121   4.656   2.959 -0.4414  0.0030  0.1815
 3374TIP3    H131613   6.147   4.679   3.048 -0.9027  1.7438 -0.0988
 3374TIP3    H231614   6.201   4.624   2.918  0.3116  1.3171  0.5701
 3375TIP3   OH231615   2.950   6.589  11.546  0.2377 -0.5279 -0.3556
 3375TIP3    H131616   2.890   6.547  11.608 -1.0107  2.3231  0.5110
 3375TIP3    H231617   2.901   6.595  11.465  0.8990 -1.8349 -0.8837
 3376TIP3   OH231618   1.784   6.634  13.467  0.5668  0.0137  0.1432
 3376TIP3    H131619   1.724   6.682  13.411  2.1365 -0.3682 -1.9979
 3376TIP3    H231620   1.831   6.701  13.516 -0.2363  0.3928  0.4140
 3377TIP3   OH231621   6.518   2.822   6.005  0.5401  0.2337  0.1397
 3377TIP3    H131622   6.532   2.739   5.958  0.4333 -0.0182  0.5511
 3377TIP3    H231623   6.527   2.799   6.097 -2.9920 -0.0686  0.5447
 3378TIP3   OH231624   1.706   1.172   3.810  0.3020 -0.3377  0.7366
 3378TIP3    H131625   1.779   1.182   3.750 -0.6332 -0.1922 -0.4285
 3378TIP3    H231626   1.742   1.124   3.885  2.0937  1.6156  1.2001
 3379TIP3   OH231627   1.177   4.431  13.243  0.2318 -1.0069 -0.5719
 3379TIP3    H131628   1.134   4.347  13.228 -0.7696 -1.0864  2.1236
 3379TIP3    H231629   1.250   4.410  13.301 -0.0540 -0.0424  0.1694
 3380TIP3   OH231630   3.145   1.231   2.444  0.0421 -0.2548 -0.4901
 3380TIP3    H131631   3.066   1.282   2.461  0.6238  1.0093 -1.4989
 3380TIP3    H231632   3.213   1.275   2.495  0.5024 -0.1563 -1.1835
 3381TIP3   OH231633   1.266   2.778   5.646  0.3892 -0.6581 -0.4015
 3381TIP3    H131634   1.241   2.859   5.603 -0.0051 -0.4934  0.1224
 3381TIP3    H231635   1.327   2.736   5.586 -0.2342 -0.4922 -1.1565
 3382TIP3   OH231636   3.946   3.178  11.852  0.0073  0.6221 -0.0345
 3382TIP3    H131637   3.943   3.179  11.756  1.0585 -0.0712 -0.0958
 3382TIP3    H231638   3.927   3.268  11.878  3.4081  1.7807 -1.0549
 3383TIP3   OH231639   1.534   0.166   1.024  0.3064 -0.0123 -0.3691
 3383TIP3    H131640   1.587   0.213   1.088  0.0977  0.6263 -0.6532
 3383TIP3    H231641   1.444   0.177   1.054  0.3046 -0.8834 -0.0216
 3384TIP3   OH231642   5.941   0.927   2.038 -0.2504  0.3281 -0.7190
 3384TIP3    H131643   5.998   0.994   2.075 -0.0949  0.4805 -1.2165
 3384TIP3    H231644   5.870   0.918   2.101 -2.0823  3.3377 -2.1243
 3385TIP3   OH231645   0.679   2.900  14.690 -0.8327 -0.1480 -0.1706
 3385TIP3    H131646   0.705   2.991  14.672  2.0165 -0.3854  2.0349
 3385TIP3    H231647   0.641   2.869  14.607 -0.2183  2.4830 -1.5437
 3386TIP3   OH231648   0.180   5.191   1.847 -0.0606  0.2080 -0.2883
 3386TIP3    H131649   0.193   5.203   1.753  1.5409  0.1334 -0.1114
 3386TIP3    H231650   0.215   5.271   1.887  0.4618 -0.2990  0.3009
 3387TIP3   OH231651   6.613   5.143  12.297  0.3015  0.4414 -0.3548
 3387TIP3    H131652   6.523   5.113  12.291  0.7668 -0.7978 -1.8591
 3387TIP3    H231653   6.663   5.065  12.320  1.1422  0.8080 -0.9006
 3388TIP3   OH231654   5.901   6.672  12.885  0.3181 -0.4344 -0.1159
 3388TIP3    H131655   5.875   6.666  12.977  0.2174 -0.2089 -0.1306
 3388TIP3    H231656   5.947   6.755  12.878 -1.1714  0.3926 -0.6390
 3389TIP3   OH231657   1.643   0.069   4.736 -0.1047  0.0142  0.0266
 3389TIP3    H131658   1.651   0.039   4.826 -1.6624 -3.0737 -0.7221
 3389TIP3    H231659   1.715   0.026   4.689 -2.2137 -2.6684 -1.0219
 3390TIP3   OH231660   1.763   0.690   4.084 -0.2234  0.0675  0.1720
 3390TIP3    H131661   1.697   0.666   4.149 -1.5365  1.4905 -0.5682
 3390TIP3    H231662   1.772   0.612   4.029 -0.9151 -0.3207  0.6013
 3391TIP3   OH231663   3.533   1.049  12.187 -0.3913  0.0982 -0.1133
 3391TIP3    H131664   3.462   1.062  12.250 -0.3229 -2.0173  0.4775
 3391TIP3    H231665   3.609   1.093  12.227 -0.8054  0.4203  0.3372
 3392TIP3   OH231666   6.668   3.886  13.233  0.5149  0.3347 -0.3515
 3392TIP3    H131667   6.616   3.839  13.167  1.5226  0.8330 -1.5411
 3392TIP3    H231668   6.759   3.874  13.205  0.9647  0.5405  0.9750
 3393TIP3   OH231669   4.268   6.090   0.111 -0.4833  0.1672  0.4937
 3393TIP3    H131670   4.339   6.031   0.137  0.5377 -0.4275 -3.1500
 3393TIP3    H231671   4.188   6.044   0.137  0.3251 -0.1115  2.7773
 3394TIP3   OH231672   6.279   5.225   0.353 -0.4854  0.1980 -0.0826
 3394TIP3    H131673   6.204   5.177   0.318 -0.0038 -0.7021  0.1077
 3394TIP3    H231674   6.241   5.306   0.388 -1.1674  0.4763 -1.3842
 3395TIP3   OH231675   4.667   0.550   4.112 -0.2318 -0.4077 -0.1217
 3395TIP3    H131676   4.618   0.620   4.155 -0.2710  0.1137 -0.9832
 3395TIP3    H231677   4.757   0.563   4.139 -0.2539 -0.0735 -0.1993
 3396TIP3   OH231678   0.607   0.084   0.783  0.2309  0.0180 -0.1824
 3396TIP3    H131679   0.552   0.113   0.710  1.1802 -0.2918 -1.0428
 3396TIP3    H231680   0.696   0.112   0.759  0.5987 -0.3434  0.7133
 3397TIP3   OH231681   1.052   5.111  10.924 -0.0877 -0.1053 -0.0990
 3397TIP3    H131682   1.113   5.152  10.863  1.2576  0.1998  1.3935
 3397TIP3    H231683   0.977   5.086  10.870  0.7723  0.7311 -1.7420
 3398TIP3   OH231684   2.228   4.062   1.329 -0.0577 -0.0977  0.3048
 3398TIP3    H131685   2.179   4.093   1.253  0.3456  0.9780  0.4739
 3398TIP3    H231686   2.320   4.080   1.308 -0.0214  1.4811  1.5731
 3399TIP3   OH231687   5.159   1.053  12.068 -0.4443  0.3191  0.0567
 3399TIP3    H131688   5.187   0.970  12.107 -2.4635  1.1036  3.5997
 3399TIP3    H231689   5.230   1.114  12.090 -0.8124  0.3804  1.1496
 3400TIP3   OH231690   0.514   4.703  12.133  0.0462  0.7232 -0.4480
 3400TIP3    H131691   0.495   4.779  12.079 -1.5961  1.5970  1.2404
 3400TIP3    H231692   0.429   4.666  12.154  0.7607 -0.9257 -0.2958
 3401TIP3   OH231693   0.877   3.429  13.660  0.1081 -0.1286 -0.6180
 3401TIP3    H131694   0.830   3.365  13.713  0.9640 -0.1077  0.1828
 3401TIP3    H231695   0.859   3.513  13.703  0.6151 -0.0823 -0.4927
 3402TIP3   OH231696   3.799   3.929   5.279  0.3064  0.6712 -0.0468
 3402TIP3    H131697   3.777   3.894   5.365 -0.0608  0.0936 -0.3660
 3402TIP3    H231698   3.875   3.985   5.294  0.8122 -0.1484  0.5027
 3403TIP3   OH231699   3.951   6.356   0.444 -0.3528 -0.4757  0.7194
 3403TIP3    H131700   3.999   6.274   0.458 -1.6738 -1.4833 -0.3463
 3403TIP3    H231701   3.861   6.328   0.429 -0.2299  0.7405 -3.5511
 3404TIP3   OH231702   6.441   4.108   3.973  0.1830  0.2520 -0.5597
 3404TIP3    H131703   6.502   4.034   3.980 -0.2107 -0.0757 -0.5588
 3404TIP3    H231704   6.493   4.184   3.997  0.4859 -0.0795 -0.1507
 3405TIP3   OH231705   6.361   0.127   2.180  0.0027  0.0515  0.4480
 3405TIP3    H131706   6.312   0.203   2.211  0.4528  0.8134 -0.6234
 3405TIP3    H231707   6.371   0.142   2.086  2.0538 -0.1793  0.5741
 3406TIP3   OH231708   2.702   6.684  11.760 -0.0478  0.7176  0.4136
 3406TIP3    H131709   2.720   6.676  11.666  0.8769 -0.4566  0.6761
 3406TIP3    H231710   2.644   6.760  11.766 -0.4739  0.5577 -1.1480
 3407TIP3   OH231711   4.827   3.623  14.755 -0.1093 -0.0776  0.1238
 3407TIP3    H131712   4.804   3.538  14.717  0.5267  0.0742 -0.6310
 3407TIP3    H231713   4.750   3.648  14.806 -0.6866 -0.6572 -0.4396
 3408TIP3   OH231714   6.377   3.481  11.586  0.1647 -0.0060  0.0307
 3408TIP3    H131715   6.363   3.387  11.599  1.3561 -0.0325  1.2815
 3408TIP3    H231716   6.330   3.523  11.658  0.1693  0.3399 -0.1644
 3409TIP3   OH231717   4.520   4.031  13.335  0.5386 -0.0699  0.2823
 3409TIP3    H131718   4.492   4.025  13.244 -0.5013  2.8182  0.3255
 3409TIP3    H231719   4.611   4.058  13.331  0.9399 -1.3530  0.1562
 3410TIP3   OH231720   2.932   6.092   2.525 -0.4338 -0.5547  0.3803
 3410TIP3    H131721   2.957   6.037   2.599 -0.1834  0.0841  0.7812
 3410TIP3    H231722   2.977   6.175   2.541  0.4212 -0.7237 -0.9965
 3411TIP3   OH231723   4.888   5.079   5.542 -0.0232  0.4169  0.3702
 3411TIP3    H131724   4.865   4.986   5.532 -1.7409  0.6699  1.4052
 3411TIP3    H231725   4.912   5.108   5.454 -0.2285 -0.8313 -0.1136
 3412TIP3   OH231726   5.630   4.467   2.211 -0.4006  0.4785  0.1453
 3412TIP3    H131727   5.700   4.509   2.261  1.8366 -2.7330 -0.0204
 3412TIP3    H231728   5.644   4.496   2.121 -0.2594  1.0026  0.3283
 3413TIP3   OH231729   6.301   1.228   4.510  0.1316 -0.5647 -0.1099
 3413TIP3    H131730   6.308   1.184   4.595  1.2822  0.5292  0.3764
 3413TIP3    H231731   6.287   1.320   4.531 -0.6554 -0.4259 -1.1248
 3414TIP3   OH231732   3.751   2.576  13.096  0.0284  0.2050 -0.4505
 3414TIP3    H131733   3.717   2.540  13.014 -0.9425  0.1155 -0.0221
 3414TIP3    H231734   3.741   2.671  13.086  3.2066  0.5171 -1.8538
 3415TIP3   OH231735   6.212   1.959  12.932  0.1553 -0.5167 -0.0445
 3415TIP3    H131736   6.250   2.024  12.873  0.4539 -1.2525 -0.6840
 3415TIP3    H231737   6.122   1.988  12.946  0.3618  0.1615 -0.1284
 3416TIP3   OH231738   0.772   1.015   0.560 -0.0634 -0.0994 -0.4617
 3416TIP3    H131739   0.765   0.930   0.603 -1.5180  0.1824 -0.0760
 3416TIP3    H231740   0.864   1.038   0.568  0.0097 -0.7852  1.1156
 3417TIP3   OH231741   4.167   6.342   3.873  0.2566 -0.7984  0.4844
 3417TIP3    H131742   4.205   6.396   3.941 -0.3267  0.0725  0.1358
 3417TIP3    H231743   4.074   6.338   3.894  0.2174 -1.2959  0.2513
 3418TIP3   OH231744   5.333   2.214  13.517  0.1598  0.1438  0.3609
 3418TIP3    H131745   5.377   2.168  13.589 -0.9397 -0.1259  0.8709
 3418TIP3    H231746   5.304   2.144  13.458  0.9671  0.3589 -0.3227
 3419TIP3   OH231747   2.253   2.498   4.287 -0.2152  0.4030 -0.3268
 3419TIP3    H131748   2.250   2.435   4.215 -1.4119 -0.7688  0.7050
 3419TIP3    H231749   2.325   2.557   4.264  0.5349 -0.9584 -1.6383
 3420TIP3   OH231750   4.417   6.606   3.425  0.4973  0.1018 -0.3103
 3420TIP3    H131751   4.399   6.591   3.518  0.4302 -0.4946 -0.4166
 3420TIP3    H231752   4.337   6.579   3.380  0.0011  1.6834 -0.4531
 3421TIP3   OH231753   0.709   6.282   6.465  0.8285  0.3436  0.1410
 3421TIP3    H131754   0.780   6.313   6.409 -1.1994  1.3781 -2.0184
 3421TIP3    H231755   0.709   6.187   6.454  1.5674  0.3774 -0.1950
 3422TIP3   OH231756   4.839   4.330   6.388 -0.0546  0.0939  0.3329
 3422TIP3    H131757   4.819   4.288   6.472 -0.0886  0.9730  0.7750
 3422TIP3    H231758   4.820   4.423   6.402  2.4473  0.7055  0.1983
 3423TIP3   OH231759   2.041   3.579  13.405  0.2943 -0.1945 -0.1565
 3423TIP3    H131760   1.968   3.596  13.464  1.4523 -0.9354  1.5700
 3423TIP3    H231761   2.077   3.665  13.386  0.6357 -0.0073  1.2365
 3424TIP3   OH231762   0.214   0.902   6.302  0.4557  0.0412 -0.1599
 3424TIP3    H131763   0.238   0.907   6.210 -0.5825  0.6260 -0.4210
 3424TIP3    H231764   0.131   0.855   6.303  1.6672 -2.2291  0.7396
 3425TIP3   OH231765   5.628   0.649  11.051 -0.4140 -0.0946 -0.1356
 3425TIP3    H131766   5.631   0.620  10.960 -0.6233  3.1349 -1.3074
 3425TIP3    H231767   5.720   0.655  11.077 -0.3707 -1.7185  0.1483
 3426TIP3   OH231768   6.794   3.921   0.401 -0.1884 -0.1678  0.3383
 3426TIP3    H131769   6.855   3.914   0.475  1.4842 -0.9216 -1.0199
 3426TIP3    H231770   6.707   3.918   0.440  0.6495 -0.3118  2.2764
 3427TIP3   OH231771   5.881   0.084   4.703  0.2617 -0.3483  1.0234
 3427TIP3    H131772   5.842   0.054   4.621  0.5625  1.0972  0.3150
 3427TIP3    H231773   5.830   0.042   4.771 -2.5013  1.3617  0.1598
 3428TIP3   OH231774   2.681   3.585  17.286 -0.3915  0.3494 -0.1717
 3428TIP3    H131775   2.612   3.534  17.330 -0.2512 -0.8336 -1.2680
 3428TIP3    H231776   2.753   3.587  17.349 -0.4446 -0.7274 -0.0564
 3429TIP3   OH231777   4.613   1.792  11.247 -0.2466 -0.1057  0.0143
 3429TIP3    H131778   4.638   1.840  11.325  0.0972 -1.4361  0.7568
 3429TIP3    H231779   4.658   1.708  11.254 -1.6053 -0.9466 -0.7103
 3430TIP3   OH231780   2.237   3.766   3.295  0.0230 -0.4050  0.1401
 3430TIP3    H131781   2.288   3.785   3.374  0.6071  1.1705 -0.5603
 3430TIP3    H231782   2.148   3.794   3.317 -0.0534 -0.9793  0.5864
 3431TIP3   OH231783   6.384   5.624  11.858 -0.2353  0.6416 -0.0785
 3431TIP3    H131784   6.320   5.615  11.788 -0.5522  1.1170  0.1422
 3431TIP3    H231785   6.373   5.545  11.910  1.1775 -0.5496 -1.4932
 3432TIP3   OH231786   6.094   3.758   0.651 -0.0432  0.5582 -0.1412
 3432TIP3    H131787   6.047   3.772   0.733 -0.6301 -1.2603 -0.1298
 3432TIP3    H231788   6.125   3.668   0.656 -1.3426 -0.1028 -2.5091
 3433TIP3   OH231789   5.556   0.467  13.902 -0.7892 -0.0593  0.1189
 3433TIP3    H131790   5.610   0.518  13.842 -0.0538 -0.9394  0.0206
 3433TIP3    H231791   5.619   0.416  13.954 -1.5369 -2.2828 -1.0469
 3434TIP3   OH231792   3.400   1.555   3.589 -0.0496  0.4970  0.0987
 3434TIP3    H131793   3.440   1.469   3.580  0.2047  0.6990 -0.8328
 3434TIP3    H231794   3.308   1.541   3.565  0.2742  0.7177 -1.3741
 3435TIP3   OH231795   5.960   3.058   2.841 -0.7479  0.5427 -0.6591
 3435TIP3    H131796   5.874   3.023   2.817 -1.1447  2.4512 -2.2246
 3435TIP3    H231797   5.994   3.096   2.761  0.4723  2.0595  0.5198
 3436TIP3   OH231798   1.888   4.685  12.606  0.1198 -0.5123  0.3052
 3436TIP3    H131799   1.957   4.732  12.561 -0.0344 -0.1482  0.4490
 3436TIP3    H231800   1.824   4.752  12.630  0.6758 -0.5418  1.9572
 3437TIP3   OH231801   4.095   4.159   1.920 -0.6123 -0.4498 -0.6435
 3437TIP3    H131802   4.131   4.234   1.967  0.8028 -2.2288  1.2741
 3437TIP3    H231803   4.007   4.147   1.957 -0.3415 -0.5067 -0.0048
 3438TIP3   OH231804   2.012   3.641   3.868  0.4428 -0.0745  0.0687
 3438TIP3    H131805   2.079   3.606   3.926  0.8506  0.5234 -0.0248
 3438TIP3    H231806   2.051   3.635   3.780 -0.1619 -0.9631 -0.1561
 3439TIP3   OH231807   6.570   0.550  12.776 -0.4509 -0.1882  0.4331
 3439TIP3    H131808   6.501   0.487  12.755 -0.7100 -0.0409  0.8193
 3439TIP3    H231809   6.645   0.496  12.801 -0.4581 -0.3479  0.1137
 3440TIP3   OH231810   1.101   4.729   5.425  0.0518 -0.8226 -0.4086
 3440TIP3    H131811   1.176   4.789   5.430 -0.0370 -0.7852  1.0984
 3440TIP3    H231812   1.089   4.699   5.515 -0.5465 -2.3271 -0.9648
 3441TIP3   OH231813   5.298   5.177  14.760  0.1769 -0.4118 -0.2859
 3441TIP3    H131814   5.374   5.167  14.702 -1.1196 -1.7468 -1.8316
 3441TIP3    H231815   5.262   5.263  14.737  0.3609 -0.4143 -0.5969
 3442TIP3   OH231816   4.288   3.360  12.796  0.1998 -0.3525  0.1328
 3442TIP3    H131817   4.361   3.413  12.829  0.1189 -0.2651  0.1696
 3442TIP3    H231818   4.320   3.325  12.713  0.7762 -1.3373  0.7389
 3443TIP3   OH231819   2.371   5.594  11.190 -0.0474  0.0814 -0.3530
 3443TIP3    H131820   2.445   5.654  11.180  0.4153 -0.4362 -0.0793
 3443TIP3    H231821   2.395   5.518  11.137 -0.9376  0.4118 -1.2584
 3444TIP3   OH231822   6.360   1.804   0.975 -0.0170  0.0981 -0.0029
 3444TIP3    H131823   6.450   1.827   0.954 -0.1458 -1.6888 -3.1793
 3444TIP3    H231824   6.367   1.729   1.034  0.6026 -0.0798 -0.2979
 3445TIP3   OH231825   2.701   3.602   5.932 -0.3724 -0.4325  0.2319
 3445TIP3    H131826   2.687   3.511   5.904  1.0715 -0.7237  0.3667
 3445TIP3    H231827   2.772   3.596   5.997 -1.4804  0.5961  1.6103
 3446TIP3   OH231828   6.491   3.554   1.974  0.0663  0.2061  0.5297
 3446TIP3    H131829   6.577   3.577   2.009 -0.5532  0.2916  2.0544
 3446TIP3    H231830   6.474   3.622   1.909  1.0556  0.2942  0.3344
 3447TIP3   OH231831   2.492   4.662   2.438 -0.0042  0.0960  0.3693
 3447TIP3    H131832   2.563   4.716   2.405  0.1529 -0.8812 -0.9593
 3447TIP3    H231833   2.431   4.724   2.478  1.1883  1.0231  0.7976
 3448TIP3   OH231834   4.948   3.707  17.137  0.5541 -0.3064  0.0103
 3448TIP3    H131835   4.919   3.794  17.165 -0.9664 -0.8488  0.2208
 3448TIP3    H231836   5.007   3.724  17.064 -1.7284  0.8691 -1.7040
 3449TIP3   OH231837   6.009   2.601   6.536 -0.0493  0.1740 -0.0885
 3449TIP3    H131838   6.060   2.677   6.566 -1.1322  1.7732 -2.0158
 3449TIP3    H231839   6.053   2.573   6.456 -0.8635  0.1362 -0.5356
 3450TIP3   OH231840   3.937   4.942  13.746 -0.3947 -0.1823  0.4288
 3450TIP3    H131841   3.847   4.972  13.728 -0.0996  0.4161 -0.0868
 3450TIP3    H231842   3.990   4.984  13.678  0.4148  0.1835  1.2697
 3451TIP3   OH231843   6.486   1.494  12.222 -0.1729  0.2907  0.8743
 3451TIP3    H131844   6.473   1.408  12.262  0.2933 -0.3188 -0.2341
 3451TIP3    H231845   6.401   1.515  12.183  0.1432 -0.4707 -0.3029
 3452TIP3   OH231846   2.326   6.670  11.828 -0.4093  0.7396  0.0058
 3452TIP3    H131847   2.379   6.719  11.891 -1.5196  0.8123  0.9239
 3452TIP3    H231848   2.297   6.593  11.878 -0.7857  0.4681 -0.6274
 3453TIP3   OH231849   3.754   5.035   1.582 -0.0438 -0.3301 -0.1756
 3453TIP3    H131850   3.810   5.067   1.653  2.1982  0.7797 -2.2915
 3453TIP3    H231851   3.676   5.091   1.586 -0.4925 -1.0280  2.0273
 3454TIP3   OH231852   1.013   1.264  16.840  0.1688 -0.3199 -0.2589
 3454TIP3    H131853   1.044   1.229  16.925 -0.0471 -1.2789 -0.5600
 3454TIP3    H231854   1.001   1.186  16.786  0.4289  0.2969 -1.2205
 3455TIP3   OH231855   3.212   4.272  14.366  0.0674 -0.3077 -0.3798
 3455TIP3    H131856   3.213   4.196  14.424  4.1882  0.8811  1.4580
 3455TIP3    H231857   3.242   4.239  14.281  0.2541 -0.9814 -0.0486
 3456TIP3   OH231858   6.276   0.745  10.928  0.2415 -0.0205  0.4300
 3456TIP3    H131859   6.186   0.760  10.899  1.1203  3.0342 -1.1098
 3456TIP3    H231860   6.278   0.779  11.017  0.0105  0.6349  0.1969
 3457TIP3   OH231861   0.088   4.811  15.122  0.5012  0.4502  0.4396
 3457TIP3    H131862   0.038   4.857  15.055  0.3130  0.6852  0.7415
 3457TIP3    H231863   0.027   4.800  15.195 -0.1164 -2.0483 -0.3411
 3458TIP3   OH231864   4.321   1.009  11.214  0.0233  0.3941 -0.1540
 3458TIP3    H131865   4.378   1.076  11.177  2.8693 -1.4206  0.5933
 3458TIP3    H231866   4.329   0.935  11.153 -0.6434 -0.2933  0.5749
 3459TIP3   OH231867   4.856   1.653  11.216  0.5002 -0.3750  0.1076
 3459TIP3    H131868   4.878   1.742  11.242 -1.7817  0.4119 -0.5011
 3459TIP3    H231869   4.879   1.648  11.123 -1.5582  0.3900 -0.4819
 3460TIP3   OH231870   4.619   4.922  12.122  0.3337 -0.3237  0.1841
 3460TIP3    H131871   4.571   4.958  12.048  1.7790  2.3245  0.3818
 3460TIP3    H231872   4.683   4.862  12.083  0.1127 -0.0722 -0.5794
 3461TIP3   OH231873   2.256   2.578   5.017 -0.0454 -0.1715 -0.2842
 3461TIP3    H131874   2.204   2.650   5.053 -1.5295 -1.3315 -0.0115
 3461TIP3    H231875   2.215   2.559   4.933  0.8074 -0.2109 -0.6972
 3462TIP3   OH231876   2.930   5.786   5.799 -0.3870 -0.2419  0.3462
 3462TIP3    H131877   2.924   5.853   5.730  0.4951  0.2056  0.7005
 3462TIP3    H231878   2.955   5.834   5.878  0.1241 -0.9635  0.6344
 3463TIP3   OH231879   3.323   2.007  13.933 -0.2949  0.5985  0.5060
 3463TIP3    H131880   3.393   2.049  13.982 -1.0653  2.5697  0.0592
 3463TIP3    H231881   3.321   2.055  13.850 -1.1173 -0.4963 -0.1248
 3464TIP3   OH231882   0.000   3.034   2.033  0.4701  0.1682  0.2788
 3464TIP3    H131883   0.011   3.048   2.127  0.5303  0.6259  0.2043
 3464TIP3    H231884  -0.055   3.107   2.004 -0.0143 -0.2813  0.0547
 3465TIP3   OH231885   6.661   6.103   4.082 -0.3382 -0.4976 -0.1778
 3465TIP3    H131886   6.619   6.169   4.027 -0.5667  0.1624  0.7824
 3465TIP3    H231887   6.742   6.082   4.035  0.5915  1.7074  0.3109
 3466TIP3   OH231888   5.105   4.983  16.001  0.1948 -0.0058  0.2668
 3466TIP3    H131889   5.190   5.021  15.981 -0.6436  1.5102 -0.5314
 3466TIP3    H231890   5.041   5.040  15.958 -1.2105 -1.4384  0.3394
 3467TIP3   OH231891   3.080   5.692   3.006 -0.2684  0.4140  0.2253
 3467TIP3    H131892   3.058   5.648   3.088 -1.5678 -0.5423 -0.6040
 3467TIP3    H231893   3.059   5.628   2.938  0.1384  1.4383 -0.8980
 3468TIP3   OH231894   4.909   3.351  10.436 -0.4131 -0.0612 -0.7920
 3468TIP3    H131895   4.993   3.396  10.448 -0.4052 -0.2898  0.0692
 3468TIP3    H231896   4.845   3.421  10.426 -0.5720  0.2165  1.6763
 3469TIP3   OH231897   5.439   3.477   2.401 -0.4551 -0.4098 -0.0218
 3469TIP3    H131898   5.348   3.478   2.430 -0.6502  0.6926 -0.6446
 3469TIP3    H231899   5.475   3.396   2.439 -1.8092 -1.1120 -0.1689
 3470TIP3   OH231900   3.158   4.058  13.715  0.0056 -0.1829  0.3897
 3470TIP3    H131901   3.146   4.104  13.632 -0.2171 -0.3872  0.3081
 3470TIP3    H231902   3.080   4.079  13.766 -0.4479 -1.0551  0.0726
 3471TIP3   OH231903   0.367   3.316  16.483 -0.9210 -0.4033 -0.1647
 3471TIP3    H131904   0.432   3.266  16.533 -1.3410 -0.3102  0.4813
 3471TIP3    H231905   0.297   3.253  16.465 -0.5028 -0.5946 -1.1579
 3472TIP3   OH231906   6.084   4.344  14.619  0.0265 -0.0801  0.0879
 3472TIP3    H131907   6.087   4.395  14.538 -1.4954  1.9037  1.1945
 3472TIP3    H231908   6.176   4.336  14.646  0.3623  1.8910 -0.3038
 3473TIP3   OH231909   2.799   5.557   1.613  0.0124  0.0719 -0.1356
 3473TIP3    H131910   2.780   5.501   1.688  0.4297 -1.0452 -0.8313
 3473TIP3    H231911   2.858   5.505   1.559 -0.1276  0.9255 -1.1453
 3474TIP3   OH231912   4.773   4.468  11.394 -0.3119 -0.1068 -0.0143
 3474TIP3    H131913   4.802   4.552  11.429  1.1134 -1.1263  1.4136
 3474TIP3    H231914   4.710   4.436  11.458 -1.7763  0.3629 -1.1629
 3475TIP3   OH231915   0.322   2.964   3.947  0.0913 -0.1493 -0.1513
 3475TIP3    H131916   0.309   3.055   3.973 -0.3670 -0.5952  1.3432
 3475TIP3    H231917   0.330   2.917   4.031  0.8085 -1.4074 -0.8994
 3476TIP3   OH231918   2.229   3.479   3.407 -0.9219  0.3488  0.1707
 3476TIP3    H131919   2.271   3.560   3.378 -0.9495  0.2276 -0.2223
 3476TIP3    H231920   2.245   3.417   3.335 -0.7084 -0.0589  0.5637
 3477TIP3   OH231921   2.276   3.164  12.715 -0.3485  0.1884  0.3871
 3477TIP3    H131922   2.365   3.129  12.729 -0.5735 -0.1594  1.0090
 3477TIP3    H231923   2.290   3.250  12.676  0.2757  0.2208  0.6557
 3478TIP3   OH231924   4.711   3.858   2.810  0.4944  0.1994 -0.1569
 3478TIP3    H131925   4.728   3.765   2.830  0.9549 -0.0034 -1.3969
 3478TIP3    H231926   4.628   3.877   2.852  0.3289 -0.8221  0.0088
 3479TIP3   OH231927   1.163   0.674  12.171 -0.0806 -0.2787  0.3360
 3479TIP3    H131928   1.183   0.647  12.081 -0.4884 -0.2077  0.2208
 3479TIP3    H231929   1.237   0.730  12.196  0.1380 -0.4674  0.1202
 3480TIP3   OH231930   6.501   4.682   5.322  0.1327 -0.7789 -0.0941
 3480TIP3    H131931   6.587   4.649   5.297 -0.1605 -0.7419 -1.1847
 3480TIP3    H231932   6.443   4.653   5.252 -0.6297 -0.2642  0.3114
 3481TIP3   OH231933   1.700   3.581  16.505  0.0515  0.3750  0.2635
 3481TIP3    H131934   1.660   3.504  16.546  0.6871  1.0135  2.2097
 3481TIP3    H231935   1.766   3.545  16.446  0.2357 -0.5977  1.0283
 3482TIP3   OH231936   4.689   4.954   1.186  0.6570 -0.2121  0.7805
 3482TIP3    H131937   4.760   4.990   1.135  2.3886 -0.0580  3.1332
 3482TIP3    H231938   4.726   4.877   1.229 -1.1462 -1.2031  0.6623
 3483TIP3   OH231939   2.217   1.105  14.269  0.1991 -0.1704  0.5400
 3483TIP3    H131940   2.287   1.042  14.251  0.2506  0.2905 -1.0300
 3483TIP3    H231941   2.149   1.085  14.205  1.1919  2.7998 -1.6891
 3484TIP3   OH231942   1.368   0.644  13.160  0.0843 -0.4796  0.1001
 3484TIP3    H131943   1.334   0.582  13.225  0.0626 -0.9591 -0.3625
 3484TIP3    H231944   1.346   0.605  13.076 -1.0191  0.7575 -0.2215
 3485TIP3   OH231945   6.756   0.550   3.439 -0.7667 -0.1464  0.0209
 3485TIP3    H131946   6.847   0.571   3.417 -0.1167 -3.6620 -1.3130
 3485TIP3    H231947   6.748   0.573   3.532  1.6749 -0.1857  0.3095
 3486TIP3   OH231948   1.749   4.529  12.238 -0.1858 -0.3844  1.0806
 3486TIP3    H131949   1.664   4.521  12.282 -1.6164 -0.1796 -1.4773
 3486TIP3    H231950   1.813   4.520  12.309 -2.3067 -0.6049  3.0992
 3487TIP3   OH231951   0.849   4.904   6.498  0.6249 -0.8238  0.6386
 3487TIP3    H131952   0.908   4.845   6.452  1.1799 -1.7491  2.4282
 3487TIP3    H231953   0.872   4.893   6.591 -0.7193  0.6142  1.1859
 3488TIP3   OH231954   2.200   6.518  12.036 -0.1124  0.1504 -0.0054
 3488TIP3    H131955   2.256   6.450  12.000 -0.3046 -0.5072  0.9004
 3488TIP3    H231956   2.124   6.471  12.071 -0.7315  0.9242 -0.2554
 3489TIP3   OH231957   3.025   1.863   2.644  0.3777 -0.2176 -0.1490
 3489TIP3    H131958   3.083   1.801   2.688  0.2032  0.2945  0.8075
 3489TIP3    H231959   2.944   1.814   2.630  1.1304 -1.0741 -1.8579
 3490TIP3   OH231960   5.196   5.044   4.921 -0.0103  0.2753  0.2660
 3490TIP3    H131961   5.183   4.970   4.980  1.7166 -0.0697  0.2660
 3490TIP3    H231962   5.272   5.091   4.956  2.2091 -0.9131 -2.5074
 3491TIP3   OH231963   2.516   2.696  11.401  0.6432 -0.3901 -0.0375
 3491TIP3    H131964   2.432   2.685  11.356 -0.0068  1.9099  0.4697
 3491TIP3    H231965   2.537   2.789  11.390  2.1654 -0.5001  1.4771
 3492TIP3   OH231966   5.671   0.262  16.613 -0.3336  0.1320 -0.3175
 3492TIP3    H131967   5.761   0.283  16.640 -0.1711 -1.4150  0.4451
 3492TIP3    H231968   5.637   0.345  16.578  0.8475  1.1537  0.8329
 3493TIP3   OH231969   3.757   2.951  11.875 -0.0103 -0.2226  0.1974
 3493TIP3    H131970   3.808   3.030  11.896  1.2527 -1.3848  1.7446
 3493TIP3    H231971   3.745   2.956  11.780  1.1480  1.1982  0.0802
 3494TIP3   OH231972   2.072   0.450  15.993  0.5532 -0.5139  0.2405
 3494TIP3    H131973   1.994   0.431  16.045 -0.0826  0.6617 -0.2507
 3494TIP3    H231974   2.062   0.396  15.914  0.6521 -0.9965  0.5601
 3495TIP3   OH231975   1.470   2.697   3.268 -0.0346 -0.1067  0.2926
 3495TIP3    H131976   1.549   2.685   3.321 -0.4825 -0.2056  0.9403
 3495TIP3    H231977   1.405   2.733   3.328 -0.6376 -0.4953 -0.1122
 3496TIP3   OH231978   5.883   1.720  15.438  0.2150 -0.5958  0.0953
 3496TIP3    H131979   5.826   1.771  15.496 -0.7293  0.6701 -1.8249
 3496TIP3    H231980   5.886   1.634  15.478 -2.5222 -0.5239  0.7058
 3497TIP3   OH231981   6.752   6.133  12.595  0.0582  0.7075 -0.2185
 3497TIP3    H131982   6.794   6.193  12.657 -0.1108 -1.0820  1.7168
 3497TIP3    H231983   6.780   6.046  12.622 -1.2297 -0.2475 -1.7474
 3498TIP3   OH231984   6.213   3.285   5.511  0.0026 -0.3505 -0.2347
 3498TIP3    H131985   6.219   3.249   5.423  2.2692 -1.9458  0.4817
 3498TIP3    H231986   6.227   3.209   5.569 -1.1925  0.6893  1.4950
 3499TIP3   OH231987   3.976   0.117  15.662 -0.2595  0.0952 -0.1200
 3499TIP3    H131988   3.917   0.183  15.698 -0.2368  0.2217 -0.3135
 3499TIP3    H231989   3.984   0.052  15.732 -0.5404  0.1318 -0.0503
 3500TIP3   OH231990   3.378   4.458   0.987  0.8996 -0.0528 -0.1326
 3500TIP3    H131991   3.427   4.530   1.028  0.7717 -0.3089  0.4727
 3500TIP3    H231992   3.390   4.473   0.893 -0.6810  1.8783 -0.1037
 3501TIP3   OH231993   2.526   5.092  16.191  0.1855 -0.0317 -0.2280
 3501TIP3    H131994   2.515   5.000  16.166 -1.0260  0.1028 -0.2532
 3501TIP3    H231995   2.448   5.136  16.155  0.0117  0.7350  1.0398
 3502TIP3   OH231996   6.074   3.618   4.398  0.2884 -0.6256  0.2667
 3502TIP3    H131997   6.088   3.536   4.446 -2.1983 -1.0579  0.3609
 3502TIP3    H231998   6.086   3.687   4.463 -1.0508 -1.1092  1.0471
 3503TIP3   OH231999   4.827   5.099  17.134 -0.5571  0.1664  0.1680
 3503TIP3    H132000   4.916   5.134  17.132  0.3769 -1.6505  3.2257
 3503TIP3    H232001   4.781   5.153  17.200 -0.6827 -0.9444  1.0176
 3504TIP3   OH232002   3.010   4.541   6.408 -0.3009  0.4488 -0.1003
 3504TIP3    H132003   3.065   4.488   6.466 -0.3419  1.8785  1.3046
 3504TIP3    H232004   3.041   4.630   6.420 -1.1041  0.9318 -1.4199
 3505TIP3   OH232005   0.515   6.766  13.298  0.5973  0.3469  0.6033
 3505TIP3    H132006   0.449   6.825  13.260  0.8225  1.5786  2.0466
 3505TIP3    H232007   0.487   6.679  13.270 -1.5511  0.8477  0.9927
 3506TIP3   OH232008   2.238   4.969   5.778 -0.6802 -0.4125 -0.2711
 3506TIP3    H132009   2.226   4.944   5.870  2.3460  0.3706  0.4408
 3506TIP3    H232010   2.303   4.907   5.745 -1.0912 -0.1347 -1.6600
 3507TIP3   OH232011   3.080   2.026  16.228 -0.0253  0.1823 -0.0052
 3507TIP3    H132012   3.025   2.074  16.166 -1.9817  1.1580  2.3150
 3507TIP3    H232013   3.037   2.039  16.313  3.3446  0.2739  1.8648
 3508TIP3   OH232014   4.387   5.934  12.805 -0.0094 -0.4304  0.3706
 3508TIP3    H132015   4.441   5.911  12.881  0.0543 -0.6512  0.2579
 3508TIP3    H232016   4.297   5.936  12.839  0.1509  0.9430  0.8018
 3509TIP3   OH232017   1.561   5.198   4.644 -0.3918  0.2826  0.3709
 3509TIP3    H132018   1.477   5.242   4.655 -2.2973 -2.5818 -1.3203
 3509TIP3    H232019   1.581   5.161   4.730  0.7587  3.3235  1.5566
 3510TIP3   OH232020   0.612   4.942   6.687 -0.0436 -0.3447 -0.1829
 3510TIP3    H132021   0.706   4.952   6.672 -0.0756  1.4272  0.5005
 3510TIP3    H232022   0.598   4.847   6.692  1.6155 -0.6544 -0.7383
 3511TIP3   OH232023   1.883   3.354   3.352  0.3721  0.0109  0.1579
 3511TIP3    H132024   1.840   3.274   3.322  1.3729 -0.4415 -0.0830
 3511TIP3    H232025   1.813   3.419   3.353 -0.5034 -0.9136  0.5698
 3512TIP3   OH232026   4.667   1.034   2.054 -0.4804  0.8397  0.1174
 3512TIP3    H132027   4.735   1.079   2.004  0.6806 -0.4175  0.4820
 3512TIP3    H232028   4.591   1.091   2.049  0.8249  2.6666  0.3156
 3513TIP3   OH232029   5.705   4.899   1.799  0.3042  0.1818 -0.3743
 3513TIP3    H132030   5.686   4.848   1.877  0.2049 -2.7966 -2.2011
 3513TIP3    H232031   5.649   4.976   1.806 -1.5225 -1.2247  1.3124
 3514TIP3   OH232032   5.854   3.118   1.079  0.5185 -0.0152 -0.3128
 3514TIP3    H132033   5.782   3.142   1.020  1.1195  0.4189 -0.8863
 3514TIP3    H232034   5.822   3.141   1.166 -0.2275 -0.2864 -0.5037
 3515TIP3   OH232035   6.650   1.524  11.574 -0.7354 -0.1348 -0.5598
 3515TIP3    H132036   6.675   1.432  11.579  0.8714  0.1459 -2.2273
 3515TIP3    H232037   6.649   1.554  11.665  1.8826 -1.0416 -0.1545
 3516TIP3   OH232038   0.175   2.876   4.663  0.4584  0.3458  0.9214
 3516TIP3    H132039   0.210   2.873   4.752 -1.5945 -0.4237  1.7641
 3516TIP3    H232040   0.134   2.962   4.656 -0.5993 -0.1170  1.2445
 3517TIP3   OH232041   5.289   0.799  11.427 -0.1838  0.4832  0.6600
 3517TIP3    H132042   5.382   0.802  11.450 -0.3258  0.7424  1.2120
 3517TIP3    H232043   5.247   0.761  11.504 -0.5849  0.7521  0.5713
 3518TIP3   OH232044   3.782   0.759   4.401 -0.4321  0.3874  0.2489
 3518TIP3    H132045   3.802   0.816   4.475  1.1158  0.9287 -0.5253
 3518TIP3    H232046   3.756   0.820   4.331 -0.0033  0.0538 -0.2056
 3519TIP3   OH232047   5.550   5.031   3.564 -0.1254 -0.4093 -0.1231
 3519TIP3    H132048   5.591   5.106   3.520 -2.0383  0.6345 -0.2207
 3519TIP3    H232049   5.519   5.066   3.647  2.2131 -2.0377  1.5774
 3520TIP3   OH232050   0.948   2.352   3.960  0.1272 -0.3669  0.1513
 3520TIP3    H132051   0.966   2.394   3.876  1.5422  0.2354  0.7270
 3520TIP3    H232052   0.853   2.348   3.965  0.0163 -0.5960 -1.5615
 3521TIP3   OH232053   0.265   4.264   3.312 -0.2659  0.4451  0.5080
 3521TIP3    H132054   0.340   4.207   3.296 -0.9875 -0.5717  0.6005
 3521TIP3    H232055   0.286   4.311   3.392  0.3123  0.2380  0.4797
 3522TIP3   OH232056   1.632   3.512  11.425  0.5772  0.2233 -0.2710
 3522TIP3    H132057   1.593   3.487  11.341 -0.6834  0.0714  0.3343
 3522TIP3    H232058   1.669   3.599  11.410  0.1579  0.2937 -0.9238
 3523TIP3   OH232059   4.105   3.307   1.544  0.1643  0.1416 -0.2679
 3523TIP3    H132060   4.098   3.255   1.624 -1.4580 -1.7359 -1.5489
 3523TIP3    H232061   4.099   3.397   1.574  0.1047 -0.4860  1.7674
 3524TIP3   OH232062   2.425   6.580  16.997  0.0198  0.3970 -0.0314
 3524TIP3    H132063   2.334   6.607  16.984 -0.7909 -1.4818  1.1840
 3524TIP3    H232064   2.426   6.540  17.084  1.4582 -1.6635 -0.8895
 3525TIP3   OH232065   2.563   6.754  12.287 -0.3334 -0.3586  0.3909
 3525TIP3    H132066   2.507   6.786  12.358 -1.6103 -2.0722  0.2308
 3525TIP3    H232067   2.627   6.698  12.330  0.6543  0.7591  0.4476
 3526TIP3   OH232068   3.884   4.665   0.637 -0.5609 -0.0645 -0.1642
 3526TIP3    H132069   3.796   4.658   0.600  0.1028 -0.7806 -1.6881
 3526TIP3    H232070   3.940   4.687   0.563  0.8591 -1.7673  0.3290
 3527TIP3   OH232071   0.350   1.220  11.819 -0.0901 -0.2091  0.1453
 3527TIP3    H132072   0.332   1.238  11.727 -0.1744  1.1279  0.4056
 3527TIP3    H232073   0.430   1.268  11.838  0.5500 -1.3772  0.5062
 3528TIP3   OH232074   2.526   5.412  17.015  0.8905 -0.0938  1.0055
 3528TIP3    H132075   2.486   5.496  17.037  0.3786 -0.2191  0.5861
 3528TIP3    H232076   2.591   5.432  16.948  0.3906 -0.0928  0.5092
 3529TIP3   OH232077   6.466   0.845  11.397  0.2559 -0.6835  0.2994
 3529TIP3    H132078   6.439   0.853  11.489  0.0980  1.2548  0.1288
 3529TIP3    H232079   6.387   0.864  11.348  0.3347 -1.7487 -0.2650
 3530TIP3   OH232080   3.913   3.018  13.660 -0.0783  0.2797 -0.3854
 3530TIP3    H132081   3.966   3.049  13.734  1.6053  0.8756 -1.7927
 3530TIP3    H232082   3.840   3.081  13.656  0.4313  0.9199  0.0607
 3531TIP3   OH232083   4.670   4.268  11.795  0.1462  0.4335  1.0561
 3531TIP3    H132084   4.679   4.293  11.887 -1.6532 -2.1059  2.0597
 3531TIP3    H232085   4.653   4.350  11.749 -1.0443  1.5683  3.3314
 3532TIP3   OH232086   5.985   6.113  14.978 -1.0828  0.0083  0.3539
 3532TIP3    H132087   5.956   6.067  15.057 -4.1278 -0.4208 -0.8419
 3532TIP3    H232088   6.027   6.046  14.925 -1.9920 -0.5244  0.2741
 3533TIP3   OH232089   1.508   3.866   2.503 -0.1986 -0.4374 -0.4196
 3533TIP3    H132090   1.418   3.868   2.473 -0.7548 -1.4963  1.0134
 3533TIP3    H232091   1.502   3.879   2.598  1.0760 -1.1532 -0.2105
 3534TIP3   OH232092   6.065   0.352  12.828  0.2934  0.2638  0.8040
 3534TIP3    H132093   6.084   0.435  12.783  0.4452  0.0769  0.5232
 3534TIP3    H232094   6.031   0.379  12.913  0.0036  0.6216  0.5797
 3535TIP3   OH232095   6.694   3.465   3.814  0.5960 -0.1690 -0.0589
 3535TIP3    H132096   6.714   3.445   3.723  1.9319  1.2335 -0.1403
 3535TIP3    H232097   6.715   3.558   3.823 -0.1806 -0.1007  1.5113
 3536TIP3   OH232098   1.896   5.091  16.194  0.7836 -0.1135 -0.0253
 3536TIP3    H132099   1.895   5.187  16.186 -1.8246  0.2147  2.6170
 3536TIP3    H232100   1.955   5.074  16.268  0.4674 -0.4360  0.1574
 3537TIP3   OH232101   6.313   2.684   5.060 -0.2390 -0.1804 -0.2154
 3537TIP3    H132102   6.327   2.669   5.153 -1.0275 -0.7812 -0.1824
 3537TIP3    H232103   6.307   2.779   5.051 -0.9888 -0.1469  0.4823
 3538TIP3   OH232104   2.946   0.687  14.674  0.0286  0.0803  0.3120
 3538TIP3    H132105   2.983   0.763  14.719  1.6160  0.5539 -1.6572
 3538TIP3    H232106   2.855   0.712  14.658 -0.2916  0.3344  2.1874
 3539TIP3   OH232107   2.055   1.182   1.056  0.0919  0.1217 -0.3080
 3539TIP3    H132108   2.109   1.113   1.095  3.5696  1.5653 -2.1379
 3539TIP3    H232109   2.002   1.137   0.991 -1.0813 -1.3732  1.5961
 3540TIP3   OH232110   4.477   6.487  10.455 -0.3792 -0.2783  0.2002
 3540TIP3    H132111   4.418   6.412  10.464  0.2045 -1.1545 -2.4278
 3540TIP3    H232112   4.422   6.563  10.474 -2.2735 -1.0820 -1.6742
 3541TIP3   OH232113   1.097   6.586  13.596  0.4098  0.1727 -0.2411
 3541TIP3    H132114   1.177   6.621  13.555  0.0846  0.0380 -1.0192
 3541TIP3    H232115   1.026   6.635  13.555 -0.1707 -2.2262 -2.3982
 3542TIP3   OH232116   4.238   6.048  16.612  0.3063 -0.2666  0.4914
 3542TIP3    H132117   4.225   6.143  16.617  0.8896  0.0998 -2.7578
 3542TIP3    H232118   4.213   6.016  16.699  0.8871  2.9201  1.9970
 3543TIP3   OH232119   2.931   5.745   1.981 -0.0682  0.4274  0.7672
 3543TIP3    H132120   2.877   5.674   1.945 -0.4589  0.9230  0.3606
 3543TIP3    H232121   2.987   5.772   1.908  1.1398 -0.4527  1.3369
 3544TIP3   OH232122   6.179   6.809  11.992  0.4714  0.4226  0.1274
 3544TIP3    H132123   6.092   6.848  11.982  0.5626  0.5664 -0.1313
 3544TIP3    H232124   6.167   6.740  12.057 -0.2634 -0.8518 -1.2852
 3545TIP3   OH232125   2.556   5.819  11.091 -0.1106 -0.2702 -0.1667
 3545TIP3    H132126   2.626   5.765  11.129 -2.8574 -2.9535  1.5063
 3545TIP3    H232127   2.553   5.792  10.999  0.9391 -0.1922 -0.2430
 3546TIP3   OH232128   2.565   5.262  16.567  0.1097  0.0300 -0.0755
 3546TIP3    H132129   2.628   5.281  16.637  1.1831 -1.3067 -0.6274
 3546TIP3    H232130   2.610   5.286  16.486 -0.3698 -0.2666 -0.4355
 3547TIP3   OH232131   5.928   0.617   1.304  0.0134 -0.4029 -0.4115
 3547TIP3    H132132   5.990   0.668   1.357  1.2924 -1.6095 -0.6724
 3547TIP3    H232133   5.902   0.545   1.361 -1.5213  0.2973 -0.1648
 3548TIP3   OH232134   0.437   5.805   4.249 -0.4272  0.5695  0.0193
 3548TIP3    H132135   0.364   5.813   4.188 -0.7932  0.3756  0.4279
 3548TIP3    H232136   0.468   5.715   4.237 -1.0144  0.2675  0.6854
 3549TIP3   OH232137   0.853   2.823  11.895 -0.7892 -0.1962 -0.0540
 3549TIP3    H132138   0.785   2.777  11.846 -1.4587 -0.2141  0.8659
 3549TIP3    H232139   0.810   2.902  11.928 -0.6457 -0.6354  1.2739
 3550TIP3   OH232140   6.712   3.642  14.288  0.8424 -0.1409  0.4205
 3550TIP3    H132141   6.698   3.646  14.193  1.3605 -1.5137  0.2711
 3550TIP3    H232142   6.624   3.641  14.325  0.4682 -3.2065 -0.2611
 3551TIP3   OH232143   1.071   5.023   4.014 -0.5699  0.0265 -0.5281
 3551TIP3    H132144   1.027   5.098   3.975  1.8439 -0.7837 -5.6194
 3551TIP3    H232145   1.163   5.050   4.022 -0.4287 -0.9307  2.1451
 3552TIP3   OH232146   3.513   3.258  13.041 -0.4014  0.2008 -0.1353
 3552TIP3    H132147   3.487   3.349  13.031 -3.3985 -0.6314 -0.9003
 3552TIP3    H232148   3.571   3.241  12.967  0.5801  1.5727  0.2863
 3553TIP3   OH232149   3.094   1.500   2.003  0.4225  0.4807 -0.1916
 3553TIP3    H132150   3.067   1.511   2.094 -1.8304  1.1281 -0.8869
 3553TIP3    H232151   3.076   1.409   1.982 -1.1064  0.8449 -0.5737
 3554TIP3   OH232152   3.935   1.097  12.722 -0.1430 -0.4796 -0.4502
 3554TIP3    H132153   3.900   1.155  12.791 -1.2731  0.6205 -1.8884
 3554TIP3    H232154   4.025   1.127  12.708  0.0239 -0.5687  0.3727
 3555TIP3   OH232155   1.128   5.044  17.292  0.9820  0.2695 -0.0167
 3555TIP3    H132156   1.037   5.018  17.306  0.9110  0.5476  0.0356
 3555TIP3    H232157   1.162   4.979  17.230  0.7155  0.2344 -0.1261
 3556TIP3   OH232158   5.473   1.806   4.511 -0.2047 -0.0142  0.1140
 3556TIP3    H132159   5.538   1.739   4.490  0.7778  1.0431 -0.3282
 3556TIP3    H232160   5.427   1.771   4.587  1.1233 -0.6345  0.6655
 3557TIP3   OH232161   3.215   5.689   2.585 -0.6957 -0.2499  0.3424
 3557TIP3    H132162   3.247   5.718   2.500  1.5549 -2.2064  0.4259
 3557TIP3    H232163   3.229   5.765   2.643  1.4308 -0.1376 -0.2325
 3558TIP3   OH232164   0.694   3.812   1.616  0.3206  0.1914 -0.1062
 3558TIP3    H132165   0.737   3.738   1.571  1.9157  2.0050 -1.7613
 3558TIP3    H232166   0.653   3.862   1.545 -0.7992  0.8685  0.9872
 3559TIP3   OH232167   2.855   5.688  15.825 -0.3459 -0.3869 -0.6553
 3559TIP3    H132168   2.917   5.760  15.820  0.4305 -0.8774  1.0224
 3559TIP3    H232169   2.900   5.614  15.784 -0.2354 -0.4733 -0.3817
 3560TIP3   OH232170   6.542   5.900  14.781  0.5195 -0.3007  0.1224
 3560TIP3    H132171   6.617   5.959  14.785  0.1683  0.0963  0.9210
 3560TIP3    H232172   6.479   5.945  14.724  0.1017  0.2837  1.0261
 3561TIP3   OH232173   5.171   1.027  15.048 -0.1597  0.2691 -0.1751
 3561TIP3    H132174   5.247   1.021  14.991 -0.0365 -0.0521  0.0143
 3561TIP3    H232175   5.154   0.936  15.075 -0.8117  0.2921 -0.4745
 3562TIP3   OH232176   0.067   4.955   4.058 -0.1300 -0.3297  0.0939
 3562TIP3    H132177  -0.002   4.893   4.078 -1.8184  0.1951 -3.4919
 3562TIP3    H232178   0.081   5.003   4.140 -2.5839 -1.7853  1.4490
 3563TIP3   OH232179   0.898   1.045   3.406  0.2527 -0.6814  0.5296
 3563TIP3    H132180   0.845   1.102   3.351 -0.5748 -1.8926  0.0383
 3563TIP3    H232181   0.989   1.071   3.389  0.0234 -1.1222 -1.5135
 3564TIP3   OH232182   6.655   5.912  11.974  0.2189  0.2607 -0.2191
 3564TIP3    H132183   6.621   5.860  12.047 -0.9105  1.0613 -0.1460
 3564TIP3    H232184   6.650   5.854  11.898  1.0938 -0.4689  0.2661
 3565TIP3   OH232185   5.361   0.854   3.263 -0.5159 -0.0975  0.0245
 3565TIP3    H132186   5.387   0.796   3.335  2.6044 -0.6940 -1.3897
 3565TIP3    H232187   5.334   0.795   3.193 -4.8727  0.4926  0.9109
 3566TIP3   OH232188   0.228   2.935  13.196  0.2702 -0.2588  0.8456
 3566TIP3    H132189   0.208   2.842  13.185 -1.6189  0.3155 -1.5014
 3566TIP3    H232190   0.321   2.943  13.175  0.0419 -1.3979 -0.7627
 3567TIP3   OH232191   2.889   2.813   3.791 -0.0244 -0.0532  0.2427
 3567TIP3    H132192   2.970   2.775   3.757  0.2072  2.2988 -2.1915
 3567TIP3    H232193   2.820   2.774   3.737 -0.3799 -0.8470  1.2375
 3568TIP3   OH232194   1.446   6.600   4.778  0.3499  0.4700 -0.0755
 3568TIP3    H132195   1.375   6.551   4.821  1.9222 -0.0785  2.0864
 3568TIP3    H232196   1.475   6.544   4.707 -0.9371  0.4172 -0.5872
 3569TIP3   OH232197   0.989   1.583   2.971  0.4671  0.2442  0.4561
 3569TIP3    H132198   0.914   1.535   2.934 -0.3662  0.8943  1.2343
 3569TIP3    H232199   1.035   1.518   3.024 -0.1719  0.0859  0.8297
 3570TIP3   OH232200   1.081   3.003  14.352  0.3370 -0.1762 -0.5610
 3570TIP3    H132201   1.163   3.029  14.392  0.8910 -0.1090 -1.6866
 3570TIP3    H232202   1.094   3.018  14.258 -0.0779 -2.4371 -1.0527
 3571TIP3   OH232203   5.367   2.906   5.259 -0.4966 -0.2157  0.2627
 3571TIP3    H132204   5.446   2.927   5.210 -0.3699  1.0681  0.9710
 3571TIP3    H232205   5.295   2.940   5.205 -0.5491 -1.0804 -0.2216
 3572TIP3   OH232206   2.657   0.798  14.188  0.0931 -0.3885  0.3935
 3572TIP3    H132207   2.701   0.787  14.103 -1.1328  1.6031 -0.5717
 3572TIP3    H232208   2.646   0.709  14.221 -1.8765 -1.5294 -2.8837
 3573TIP3   OH232209   1.652   4.136   4.559  0.5286 -0.1574 -0.2971
 3573TIP3    H132210   1.660   4.040   4.564  2.7572  0.0133  1.1148
 3573TIP3    H232211   1.583   4.157   4.622  0.2357 -0.8022 -0.3872
 3574TIP3   OH232212   1.540   0.258  16.003 -0.0949  0.1977  0.4476
 3574TIP3    H132213   1.465   0.264  16.063 -0.5127  0.1103 -0.0653
 3574TIP3    H232214   1.509   0.204  15.931  0.1182  1.0311 -0.2842
 3575TIP3   OH232215   3.417   6.151   0.729 -0.0831 -0.6743 -0.2049
 3575TIP3    H132216   3.414   6.067   0.774 -0.6899 -0.4337  0.2251
 3575TIP3    H232217   3.332   6.157   0.684 -0.3550  0.0190  0.3707
 3576TIP3   OH232218   1.351   3.127  12.305 -0.5189 -0.5643  0.0342
 3576TIP3    H132219   1.277   3.166  12.352  0.7007  0.0742  1.5192
 3576TIP3    H232220   1.418   3.196  12.305 -0.1987 -0.8208 -2.0402
 3577TIP3   OH232221   6.776   5.206  11.633  0.3118  0.5111 -0.4292
 3577TIP3    H132222   6.856   5.238  11.590  0.3170 -0.7594 -1.4437
 3577TIP3    H232223   6.780   5.111  11.624 -0.4091  0.2950  1.1902
 3578TIP3   OH232224   6.153   4.312   0.660 -0.4406  0.1659 -0.2578
 3578TIP3    H132225   6.112   4.396   0.640  0.2864  0.8162  0.9141
 3578TIP3    H232226   6.122   4.291   0.749  0.1033 -0.3593 -0.1863
 3579TIP3   OH232227   6.502   5.934  17.009 -0.3516 -0.0117  0.1593
 3579TIP3    H132228   6.593   5.922  16.983  0.1653  2.7172  0.4057
 3579TIP3    H232229   6.459   5.854  16.982  1.9730 -1.1055 -0.6074
 3580TIP3   OH232230   3.992   4.756   3.206  0.5610  0.3353  0.9995
 3580TIP3    H132231   3.898   4.735   3.206  0.4159  0.9493  0.5298
 3580TIP3    H232232   4.009   4.791   3.118  1.4575 -0.7183  0.7317
 3581TIP3   OH232233   1.586   4.899   3.556  0.6531 -0.3363 -0.5427
 3581TIP3    H132234   1.632   4.818   3.535  0.6927 -0.5863  0.4586
 3581TIP3    H232235   1.655   4.960   3.583  0.5391 -0.2625 -0.4157
 3582TIP3   OH232236   6.487   1.770   0.515  0.2458 -0.6702  0.2814
 3582TIP3    H132237   6.433   1.807   0.445 -0.5636  0.8282  1.6160
 3582TIP3    H232238   6.572   1.813   0.506  0.1161 -0.4191  0.2545
 3583TIP3   OH232239   4.268   5.884  10.814 -0.0699  0.3445  0.1485
 3583TIP3    H132240   4.260   5.979  10.820  1.3721  0.5466 -0.6858
 3583TIP3    H232241   4.280   5.867  10.720 -0.9172 -0.7248  0.2194
 3584TIP3   OH232242   0.839   0.472   4.051  0.2666 -0.3091  0.1113
 3584TIP3    H132243   0.905   0.467   3.982 -0.3180  1.8465 -0.6902
 3584TIP3    H232244   0.774   0.407   4.026  0.1707  0.2909 -1.2815
 3585TIP3   OH232245   0.262   0.800   2.308 -0.6494 -0.4846  0.8209
 3585TIP3    H132246   0.313   0.756   2.240 -0.2990  0.6607  0.3121
 3585TIP3    H232247   0.173   0.803   2.274 -0.1265  1.8354 -0.5559
 3586TIP3   OH232248   6.459   0.518  15.933  0.4777 -0.5227 -0.1245
 3586TIP3    H132249   6.498   0.506  15.846 -0.1250 -0.4166 -0.4188
 3586TIP3    H232250   6.402   0.442  15.944  2.0423 -1.5737  1.0265
 3587TIP3   OH232251   0.536   4.620  12.991  0.2993  0.3026  0.8110
 3587TIP3    H132252   0.485   4.612  12.910  2.9215  0.2269 -0.9353
 3587TIP3    H232253   0.573   4.708  12.987  0.6025  0.2305  1.8605
 3588TIP3   OH232254   5.224   4.780  11.531  0.4859 -0.2842 -0.7017
 3588TIP3    H132255   5.164   4.848  11.501  0.1973  0.8886  2.1851
 3588TIP3    H232256   5.281   4.764  11.456 -0.6718  1.7331 -2.1216
 3589TIP3   OH232257   5.653   5.047   4.184  0.3278 -0.2513 -0.2461
 3589TIP3    H132258   5.644   5.111   4.255 -0.6891  0.2381 -0.7985
 3589TIP3    H232259   5.718   5.085   4.125  0.6735 -0.3451  0.0657
 3590TIP3   OH232260   4.298   6.119   5.407  1.3846  0.5154 -0.4516
 3590TIP3    H132261   4.228   6.102   5.344  2.9943  0.2638 -2.2608
 3590TIP3    H232262   4.340   6.034   5.419  0.8570  0.4790  1.3205
 3591TIP3   OH232263   6.028   0.523   0.554 -0.5363  0.7773 -0.2302
 3591TIP3    H132264   6.029   0.591   0.621  0.7485  0.9328 -0.3935
 3591TIP3    H232265   6.119   0.496   0.545 -0.8483 -0.0572 -1.0984
 3592TIP3   OH232266   0.861   3.956   3.685  0.1011 -0.3075  0.2858
 3592TIP3    H132267   0.847   3.915   3.771 -0.1116  0.6846  0.7362
 3592TIP3    H232268   0.798   3.913   3.628  0.9381 -1.7058  0.3732
 3593TIP3   OH232269   4.510   4.423   3.604 -0.4016 -0.1183  0.2165
 3593TIP3    H132270   4.446   4.391   3.540 -0.2978  3.2615 -1.8742
 3593TIP3    H232271   4.589   4.370   3.588 -0.7682 -0.1555 -1.7048
 3594TIP3   OH232272   0.805   0.100  12.342  0.5099  0.0977  0.5134
 3594TIP3    H132273   0.795   0.067  12.253  0.1764  3.1869 -0.7418
 3594TIP3    H232274   0.717   0.096  12.379  0.5443 -0.6996  0.5215
 3595TIP3   OH232275   6.249   4.945   2.857 -0.1978  0.1969  0.3393
 3595TIP3    H132276   6.173   5.002   2.869  0.9754  2.0496 -0.5437
 3595TIP3    H232277   6.276   4.961   2.766  1.3815 -0.2383  0.7110
 3596TIP3   OH232278   2.763   4.079  16.559  0.0998 -0.2324 -0.7767
 3596TIP3    H132279   2.725   4.021  16.493  1.1922 -1.2301 -0.5537
 3596TIP3    H232280   2.838   4.118  16.515  0.4940 -0.4599 -0.3116
 3597TIP3   OH232281   4.759   6.587  11.877  0.2860  0.1536  0.9249
 3597TIP3    H132282   4.853   6.581  11.859 -0.0098  1.5792 -1.5745
 3597TIP3    H232283   4.749   6.672  11.921  0.0279  0.7520 -0.2524
 3598TIP3   OH232284   0.503   5.198  15.589  0.0340 -0.2029  0.0604
 3598TIP3    H132285   0.488   5.110  15.556 -2.1793  0.2289 -0.3029
 3598TIP3    H232286   0.447   5.205  15.666 -0.4068  1.0833 -0.3335
 3599TIP3   OH232287   5.988   5.806   2.088  0.4818  0.1868 -0.3212
 3599TIP3    H132288   6.000   5.872   2.156 -0.9667  0.8803 -0.7000
 3599TIP3    H232289   6.069   5.755   2.089  1.6118  1.9240  0.0143
 3600TIP3   OH232290   0.982   3.678   5.303 -0.0174  0.1697 -0.3493
 3600TIP3    H132291   1.050   3.639   5.358  0.7016  1.4217 -0.3213
 3600TIP3    H232292   0.929   3.730   5.365 -0.7282 -0.4176 -0.4477
 3601TIP3   OH232293   4.802   6.275  16.713  0.1219 -0.0368 -0.2658
 3601TIP3    H132294   4.727   6.242  16.664 -0.1370  0.6801 -0.3606
 3601TIP3    H232295   4.767   6.347  16.765  0.6920  0.1317 -0.1066
 3602TIP3   OH232296   3.528   3.731  16.057 -0.5380 -0.1025  0.7273
 3602TIP3    H132297   3.520   3.756  15.965  3.2551 -0.0441  0.2476
 3602TIP3    H232298   3.502   3.809  16.105  0.7272  1.1286 -0.4585
 3603TIP3   OH232299   3.612   0.564  12.359 -0.2323  0.7833  0.1181
 3603TIP3    H132300   3.607   0.542  12.266 -0.9774  0.9651  0.1020
 3603TIP3    H232301   3.705   0.562  12.380 -0.1635 -1.1080 -0.1812
 3604TIP3   OH232302   3.398   3.841  12.822 -0.5826 -0.2307 -0.8093
 3604TIP3    H132303   3.491   3.820  12.810  0.2749  2.6854 -0.1043
 3604TIP3    H232304   3.395   3.937  12.825 -3.8789 -0.1271 -2.6542
 3605TIP3   OH232305   4.232   4.803   6.013  0.3545 -0.2455  0.4080
 3605TIP3    H132306   4.317   4.766   5.991 -0.2984 -2.7337  1.7067
 3605TIP3    H232307   4.242   4.834   6.103 -0.0201 -0.2810  0.4630
 3606TIP3   OH232308   2.089   0.569  12.144  0.2411  0.0485 -0.1604
 3606TIP3    H132309   2.104   0.521  12.062  0.6996 -0.1953  0.0659
 3606TIP3    H232310   2.027   0.638  12.120  0.0445 -0.2804 -0.6233
 3607TIP3   OH232311   0.283   5.862   2.808  0.5787  0.1101  0.2438
 3607TIP3    H132312   0.239   5.836   2.727  0.2957 -0.3073  0.5245
 3607TIP3    H232313   0.320   5.780   2.842  1.0707  0.3584  0.3134
 3608TIP3   OH232314   2.222   3.922  14.154  0.7277 -0.7421 -0.2567
 3608TIP3    H132315   2.285   3.961  14.094  0.6312  0.5145  0.4342
 3608TIP3    H232316   2.274   3.869  14.214  1.3729  1.4259  1.2267
 3609TIP3   OH232317   5.397   0.825   3.843 -0.2422 -0.1797 -0.0119
 3609TIP3    H132318   5.369   0.749   3.791  0.3113  0.8368 -1.8948
 3609TIP3    H232319   5.363   0.900   3.795 -0.2961  0.7947  1.5176
 3610TIP3   OH232320   3.676   0.118   5.319 -0.5616 -0.3124 -0.0640
 3610TIP3    H132321   3.641   0.111   5.407 -0.8126 -0.5406 -0.1805
 3610TIP3    H232322   3.648   0.038   5.275  2.6839 -2.0768  0.7269
 3611TIP3   OH232323   5.003   2.667   2.517 -0.3136 -0.8023  0.2074
 3611TIP3    H132324   5.014   2.621   2.601 -1.7314 -1.1377  0.2285
 3611TIP3    H232325   5.091   2.667   2.479  0.3873 -0.5661  1.7232
 3612TIP3   OH232326   4.162   0.018   0.359  0.4170  0.5939  0.1965
 3612TIP3    H132327   4.250   0.050   0.338  0.3204 -0.2696 -1.7299
 3612TIP3    H232328   4.108   0.098   0.360  0.8669  0.9248 -0.6590
 3613TIP3   OH232329   0.255   0.893  14.442  0.0837 -0.0857 -0.4456
 3613TIP3    H132330   0.190   0.928  14.503  1.7306 -0.8417  1.9165
 3613TIP3    H232331   0.204   0.859  14.369 -2.2616 -0.9992  1.4761
 3614TIP3   OH232332   2.600   3.652   5.484 -0.0008  0.2540  0.1324
 3614TIP3    H132333   2.649   3.605   5.552  0.2214 -0.3001 -0.4070
 3614TIP3    H232334   2.531   3.698   5.532  0.8294  0.7652  0.8710
 3615TIP3   OH232335   1.997   0.854  17.136 -0.4495  0.6148  0.3450
 3615TIP3    H132336   1.926   0.913  17.108 -0.1035  0.0901 -1.8440
 3615TIP3    H232337   2.041   0.902  17.206 -1.3563  2.1203 -0.0449
 3616TIP3   OH232338   2.946   2.021  16.471 -0.2107 -0.0822  0.7059
 3616TIP3    H132339   2.931   2.103  16.519 -0.1996  0.2799  0.1046
 3616TIP3    H232340   2.865   1.971  16.482  0.6550 -1.1111  3.1901
 3617TIP3   OH232341   3.829   2.074  14.104 -0.1410  0.0313  0.0285
 3617TIP3    H132342   3.851   2.155  14.059 -0.9016 -0.0611 -0.5235
 3617TIP3    H232343   3.809   2.012  14.034  0.1176 -0.5481  0.4518
 3618TIP3   OH232344   3.494   0.219  12.348 -0.0913 -0.1943 -0.0481
 3618TIP3    H132345   3.496   0.310  12.319 -1.5042  0.9760  3.0614
 3618TIP3    H232346   3.496   0.168  12.267 -1.9531  2.6533 -2.0745
 3619TIP3   OH232347   6.639   4.945   1.112 -0.4591 -0.2664 -0.0738
 3619TIP3    H132348   6.618   5.036   1.091 -2.0077 -0.8361 -1.1489
 3619TIP3    H232349   6.718   4.927   1.061 -0.4311  0.3270 -0.2544
 3620TIP3   OH232350   4.148   5.543   3.575  0.3031  0.4484 -0.6163
 3620TIP3    H132351   4.126   5.603   3.646 -1.6620 -2.1586  1.1520
 3620TIP3    H232352   4.154   5.599   3.497 -4.1645  2.7117  0.3429
 3621TIP3   OH232353   6.415   6.615  15.171  0.2019  0.2524 -0.0378
 3621TIP3    H132354   6.392   6.675  15.242  0.8855 -0.3427  0.7045
 3621TIP3    H232355   6.371   6.533  15.192 -0.4198  0.3625 -0.8497
 3622TIP3   OH232356   6.577   1.079  16.370 -0.1588 -0.0901 -0.1633
 3622TIP3    H132357   6.552   1.129  16.292 -2.7966  1.8624  1.7767
 3622TIP3    H232358   6.507   1.015  16.381 -0.5558  0.5788  1.3564
 3623TIP3   OH232359   3.390   6.480   2.080  0.4826 -0.1588 -0.0943
 3623TIP3    H132360   3.453   6.516   2.142  0.4359  0.0145 -0.1468
 3623TIP3    H232361   3.335   6.422   2.133  0.8048 -0.4644 -0.0842
 3624TIP3   OH232362   0.398   1.849  14.813  0.1249 -0.6368  0.2425
 3624TIP3    H132363   0.327   1.796  14.776  0.6223 -0.5045 -0.9510
 3624TIP3    H232364   0.356   1.899  14.883 -0.5942 -1.7622  0.6497
 3625TIP3   OH232365   3.495   5.169   3.946 -0.4811 -0.1267  0.1104
 3625TIP3    H132366   3.483   5.077   3.923 -2.5382  0.0884  0.1264
 3625TIP3    H232367   3.407   5.200   3.970  0.4459  1.3761  1.8840
 3626TIP3   OH232368   5.503   6.569   1.309  0.2191 -0.5217  0.8502
 3626TIP3    H132369   5.465   6.653   1.334 -0.0580 -0.3718 -0.0479
 3626TIP3    H232370   5.548   6.587   1.226  0.8213 -1.0839  1.0461
 3627TIP3   OH232371   3.633   1.127  11.048 -0.1865 -0.2629 -0.4450
 3627TIP3    H132372   3.586   1.107  10.967 -0.8321 -0.6705  0.0123
 3627TIP3    H232373   3.675   1.211  11.032 -1.1136  0.1317 -0.8646
 3628TIP3   OH232374   2.941   3.372  13.831 -0.7922  0.4436 -0.2724
 3628TIP3    H132375   2.917   3.440  13.893  1.1320  0.8590  0.0757
 3628TIP3    H232376   2.932   3.414  13.745 -1.0896  0.6509 -0.1407
 3629TIP3   OH232377   2.449   2.454   5.482 -0.2040  0.0086 -0.2494
 3629TIP3    H132378   2.360   2.452   5.517  0.0775 -1.9901  0.4782
 3629TIP3    H232379   2.438   2.463   5.388 -1.1141  1.1377 -0.0522
 3630TIP3   OH232380   1.228   4.758   0.794  0.4595 -0.2724  0.2371
 3630TIP3    H132381   1.199   4.670   0.769 -0.3035 -0.3200  1.2202
 3630TIP3    H232382   1.182   4.776   0.876  0.6025  1.0510  0.0513
 3631TIP3   OH232383   3.218   4.380  14.933  0.4904 -0.2621 -0.1133
 3631TIP3    H132384   3.205   4.355  14.841 -0.0612 -2.1943  0.4430
 3631TIP3    H232385   3.275   4.312  14.968 -0.5760 -0.4330  1.3601
 3632TIP3   OH232386   2.946   6.346  13.700 -0.2392  0.4786  0.3161
 3632TIP3    H132387   2.949   6.315  13.609 -0.0404  1.1803  0.0727
 3632TIP3    H232388   2.914   6.271  13.750 -0.2685  0.0542 -0.3211
 3633TIP3   OH232389   0.903   6.334  16.289 -0.3594 -0.6182  0.5236
 3633TIP3    H132390   0.840   6.406  16.291 -0.2455 -0.5119  0.2086
 3633TIP3    H232391   0.943   6.338  16.202  1.0278  0.1241  1.1711
 3634TIP3   OH232392   0.281   0.872   3.154 -0.5911  0.2563  0.5403
 3634TIP3    H132393   0.327   0.791   3.134  0.8186  1.3163 -0.7136
 3634TIP3    H232394   0.324   0.939   3.101 -1.0535  2.0270  2.2475
 3635TIP3   OH232395   5.258   5.599   2.371 -0.4469 -0.0005  0.4657
 3635TIP3    H132396   5.309   5.613   2.451 -1.1497  2.1811  0.5908
 3635TIP3    H232397   5.322   5.563   2.309  0.5345 -0.0603  1.4665
 3636TIP3   OH232398   1.376   1.171  13.350 -0.2923 -0.8927  0.6102
 3636TIP3    H132399   1.394   1.226  13.426  0.1201  0.2852 -0.3140
 3636TIP3    H232400   1.356   1.232  13.279 -0.3669 -1.9453 -0.3189
 3637TIP3   OH232401   2.591   5.353   4.516  0.0986  0.1572 -0.5242
 3637TIP3    H132402   2.543   5.273   4.498  0.4292 -0.3401  0.6588
 3637TIP3    H232403   2.619   5.384   4.430  0.1475 -1.1112 -0.9969
 3638TIP3   OH232404   2.076   1.086   1.632  0.1380  0.3926  0.4022
 3638TIP3    H132405   2.109   1.065   1.544 -1.8924  0.8552 -0.5219
 3638TIP3    H232406   2.106   1.013   1.687  0.0104 -0.7872 -1.0371
 3639TIP3   OH232407   4.917   1.752  16.399 -0.2194  0.2609 -1.0785
 3639TIP3    H132408   4.876   1.838  16.391  2.0050  1.5561  0.3110
 3639TIP3    H232409   4.868   1.708  16.467  0.1620  1.4729  0.0213
 3640TIP3   OH232410   1.232   4.756  15.503 -0.5047  0.1837 -0.2484
 3640TIP3    H132411   1.139   4.757  15.527 -0.4869  0.8534 -0.2066
 3640TIP3    H232412   1.241   4.678  15.448 -0.5984 -1.2622  1.6632
 3641TIP3   OH232413   2.918   4.948  16.066 -0.1718  0.1750  0.5650
 3641TIP3    H132414   2.895   5.017  16.127  1.0600  0.4237  0.7658
 3641TIP3    H232415   2.934   4.993  15.983  0.7833  0.1631  0.7334
 3642TIP3   OH232416   5.384   3.585  14.274 -0.2906 -0.1238 -0.0448
 3642TIP3    H132417   5.328   3.646  14.322  0.7458  1.7541 -1.0939
 3642TIP3    H232418   5.363   3.601  14.182  0.0274 -1.3752 -0.3535
 3643TIP3   OH232419   0.870   3.860  12.313 -0.1247 -0.2336 -0.0074
 3643TIP3    H132420   0.900   3.935  12.262 -0.7938 -0.5395 -0.8758
 3643TIP3    H232421   0.899   3.878  12.403  1.0449  0.3283 -0.4821
 3644TIP3   OH232422   5.976   1.045   5.773 -0.4204  0.5771 -0.6536
 3644TIP3    H132423   5.888   1.009   5.762 -0.8391  1.5234 -0.5030
 3644TIP3    H232424   6.017   1.036   5.687 -0.4194 -0.4652 -0.5633
 3645TIP3   OH232425   3.446   3.399  11.701 -0.7548 -0.4202  0.3084
 3645TIP3    H132426   3.391   3.401  11.623  0.4834 -0.6744 -0.5877
 3645TIP3    H232427   3.444   3.308  11.731  0.5610 -0.8230 -0.7527
 3646TIP3   OH232428   0.734   1.068  12.564  0.4534  0.6138 -0.4855
 3646TIP3    H132429   0.643   1.073  12.537  0.1562 -0.8003  0.1473
 3646TIP3    H232430   0.745   0.979  12.596  2.7214 -0.0702 -2.8057
 3647TIP3   OH232431   1.324   0.971  12.038 -0.1494  0.0017  0.4045
 3647TIP3    H132432   1.342   0.928  12.122  0.5052  2.2093  1.4671
 3647TIP3    H232433   1.276   1.050  12.062 -2.7101 -0.7888 -1.5935
 3648TIP3   OH232434   1.337   1.254  15.332  0.2304 -0.6126 -0.3693
 3648TIP3    H132435   1.340   1.328  15.271 -0.9215 -0.4629 -0.2596
 3648TIP3    H232436   1.384   1.285  15.410  0.8609 -0.4602 -0.8066
 3649TIP3   OH232437   4.537   1.608   0.522  0.1954 -0.0198  0.0553
 3649TIP3    H132438   4.606   1.556   0.563 -0.1782 -0.6219 -0.0819
 3649TIP3    H232439   4.582   1.685   0.489  0.4462  0.8163  2.1451
 3650TIP3   OH232440   4.259   1.240  10.985 -0.3340 -0.4688 -0.2020
 3650TIP3    H132441   4.335   1.215  11.037  0.0444  0.8952 -0.0732
 3650TIP3    H232442   4.265   1.185  10.906  1.3304  0.2901 -0.6464
 3651TIP3   OH232443   0.804   0.902   0.102 -0.4798 -0.5228 -0.1931
 3651TIP3    H132444   0.763   0.858   0.176  2.1510  1.3535  2.6106
 3651TIP3    H232445   0.864   0.838   0.065 -0.8311 -1.0518  0.1421
 3652TIP3   OH232446   3.241   1.814  16.295 -0.1234 -0.2826  0.3522
 3652TIP3    H132447   3.304   1.826  16.224 -2.0594 -1.8101 -1.7822
 3652TIP3    H232448   3.180   1.888  16.285  0.2414  0.1519  1.2222
 3653TIP3   OH232449   4.775   5.053   5.874 -0.2742 -0.1727  0.6168
 3653TIP3    H132450   4.719   5.026   5.947  0.8153 -1.0578  1.1569
 3653TIP3    H232451   4.854   5.000   5.884  0.1720  0.1819 -0.8248
 3654TIP3   OH232452   2.570   2.138   0.964 -0.0303  0.6810  0.1984
 3654TIP3    H132453   2.570   2.043   0.959 -1.3303  0.6098  1.0144
 3654TIP3    H232454   2.624   2.166   0.890 -1.0849 -0.6465 -1.1573
 3655TIP3   OH232455   0.627   4.591  11.317 -0.3577 -0.3964  0.3422
 3655TIP3    H132456   0.609   4.592  11.223 -0.4426 -2.0320  0.3131
 3655TIP3    H232457   0.652   4.681  11.338  0.1417 -0.1153 -1.3414
 3656TIP3   OH232458   2.259   5.712   2.375 -0.0280  0.0045 -0.1577
 3656TIP3    H132459   2.318   5.659   2.322 -0.0424 -1.6077  1.3326
 3656TIP3    H232460   2.190   5.739   2.314  0.5808 -0.7497 -1.2199
 3657TIP3   OH232461   5.220   1.869  14.167  0.4784 -0.0147  0.4394
 3657TIP3    H132462   5.282   1.896  14.235  0.4643  2.5553 -0.4479
 3657TIP3    H232463   5.137   1.856  14.214  0.8451  0.1642  1.1453
 3658TIP3   OH232464   6.576   4.508  11.418  0.5392 -0.1609 -0.1968
 3658TIP3    H132465   6.613   4.539  11.336  1.0390  1.3098  0.5378
 3658TIP3    H232466   6.487   4.543  11.418  0.7937  0.5187  0.2087
 3659TIP3   OH232467   1.682   4.779  11.609 -0.2394  0.6690  0.5874
 3659TIP3    H132468   1.769   4.762  11.573  0.5840  0.2900  2.6149
 3659TIP3    H232469   1.696   4.848  11.674 -1.3247  0.1158  1.4366
 3660TIP3   OH232470   3.288   6.188   1.435  0.1506 -0.3090 -0.1350
 3660TIP3    H132471   3.226   6.131   1.479 -0.7637  0.4980 -0.3517
 3660TIP3    H232472   3.362   6.193   1.495 -0.3293 -0.6406  0.4946
 3661TIP3   OH232473   2.519   0.664   2.296  0.2686  0.2582 -0.3807
 3661TIP3    H132474   2.586   0.616   2.345  0.2616  0.0669 -0.5573
 3661TIP3    H232475   2.469   0.711   2.363 -0.4236 -0.8395 -0.0847
 3662TIP3   OH232476   1.381   1.068   4.615 -0.0497  0.0359 -1.0782
 3662TIP3    H132477   1.384   1.087   4.709 -2.2149 -0.4429 -0.8694
 3662TIP3    H232478   1.443   0.997   4.602  0.2662  0.1090 -0.0133
 3663TIP3   OH232479   2.860   5.185   1.884  0.5509 -0.0374 -0.3476
 3663TIP3    H132480   2.823   5.189   1.973  0.9446  2.4453 -0.2115
 3663TIP3    H232481   2.878   5.092   1.869 -2.0031 -0.8597  1.1122
 3664TIP3   OH232482   1.281   6.568  10.989  0.1497 -0.2793 -0.2596
 3664TIP3    H132483   1.232   6.630  11.044  1.1994  1.5306 -1.2443
 3664TIP3    H232484   1.238   6.574  10.903  0.2194 -1.0008 -0.3524
 3665TIP3   OH232485   1.570   3.269   0.950 -0.5553 -0.2511 -0.0047
 3665TIP3    H132486   1.540   3.262   1.040  0.7660 -1.7158  0.3610
 3665TIP3    H232487   1.511   3.211   0.901  0.2241 -1.3601  0.3402
 3666TIP3   OH232488   5.044   6.303  12.765  0.0271  0.1895 -0.3213
 3666TIP3    H132489   5.018   6.266  12.849 -0.2379 -0.6625 -0.7608
 3666TIP3    H232490   4.963   6.310  12.715  0.0090  1.8023 -0.1025
 3667TIP3   OH232491   1.618   0.385   2.803  0.1013  0.4684 -0.3214
 3667TIP3    H132492   1.576   0.380   2.888  1.4733  3.4128  0.6632
 3667TIP3    H232493   1.546   0.400   2.741 -0.7130  0.3841  0.5924
 3668TIP3   OH232494   2.796   5.142   2.172 -0.2922  0.7450  0.1046
 3668TIP3    H132495   2.762   5.142   2.262  0.7034  2.9166  0.5572
 3668TIP3    H232496   2.891   5.142   2.183 -0.1076 -1.3056 -1.0528
 3669TIP3   OH232497   5.911   4.751   0.685 -0.1648 -0.0239 -0.0492
 3669TIP3    H132498   5.968   4.827   0.675  1.3061 -1.1278 -0.4561
 3669TIP3    H232499   5.867   4.764   0.768  0.4708  1.0053  0.1395
 3670TIP3   OH232500   2.470   4.386   0.986 -0.5720 -0.2627 -0.3009
 3670TIP3    H132501   2.481   4.294   0.959 -2.1378 -1.2331  2.0375
 3670TIP3    H232502   2.376   4.402   0.977 -0.8714 -0.0228  2.3660
 3671TIP3   OH232503   1.697   2.143  12.671  0.0590  0.7061 -0.2720
 3671TIP3    H132504   1.768   2.123  12.609 -1.1676  2.3774 -2.3639
 3671TIP3    H232505   1.628   2.081  12.649 -0.1801  0.9490 -0.2037
 3672TIP3   OH232506   3.345   0.514   5.168  0.4254  0.1926  0.3882
 3672TIP3    H132507   3.405   0.568   5.217  0.0229  0.4747  0.5760
 3672TIP3    H232508   3.388   0.429   5.161  1.1910  0.6146 -0.1678
 3673TIP3   OH232509   6.800   3.181  11.804 -0.3184  0.2461  0.4196
 3673TIP3    H132510   6.779   3.266  11.844  0.0944  1.4495 -1.7851
 3673TIP3    H232511   6.877   3.150  11.853 -1.0756  0.6040  1.9163
 3674TIP3   OH232512   0.029   2.119   5.535  0.4664  0.2827  0.2484
 3674TIP3    H132513   0.095   2.133   5.603  0.7011 -0.2328  0.1300
 3674TIP3    H232514  -0.011   2.205   5.523  0.4782  0.3968  0.9797
 3675TIP3   OH232515   2.630   0.630  11.487 -0.5718  0.0813  0.8929
 3675TIP3    H132516   2.632   0.591  11.400  2.8633  0.6351  0.6122
 3675TIP3    H232517   2.646   0.557  11.547  0.0238  0.1596  0.8288
 3676TIP3   OH232518   2.978   5.120   0.350 -0.3396  0.0507 -0.0454
 3676TIP3    H132519   2.944   5.097   0.263 -0.2020  1.8761 -0.6257
 3676TIP3    H232520   3.056   5.173   0.332 -0.2768  0.4086  1.1935
 3677TIP3   OH232521   1.225   0.683   0.171  0.3265  0.2031 -0.2979
 3677TIP3    H132522   1.139   0.677   0.129  0.0858  0.7040  0.1167
 3677TIP3    H232523   1.287   0.685   0.098 -0.0133 -0.0770 -0.6015
 3678TIP3   OH232524   5.154   4.055  13.321 -0.0415 -0.4562 -0.2334
 3678TIP3    H132525   5.069   4.012  13.321 -0.5883  0.5789 -0.9862
 3678TIP3    H232526   5.217   3.984  13.332 -0.7838 -1.7804 -3.4095
 3679TIP3   OH232527   2.363   1.815  12.555  0.2219  0.2250 -0.4274
 3679TIP3    H132528   2.269   1.830  12.544  0.1532  1.3802  1.2960
 3679TIP3    H232529   2.381   1.735  12.506 -1.7505 -0.2489 -0.4466
 3680TIP3   OH232530   4.013   6.299  13.444 -0.5537  0.2047 -0.1096
 3680TIP3    H132531   4.042   6.216  13.482  0.6015  0.8950  0.6020
 3680TIP3    H232532   3.921   6.285  13.423 -0.3780 -1.2564 -0.0293
 3681TIP3   OH232533   4.473   3.711   0.169 -0.3106 -0.1627 -0.2443
 3681TIP3    H132534   4.538   3.662   0.119 -0.3824 -1.9381  1.2566
 3681TIP3    H232535   4.389   3.674   0.143 -0.8378  2.1979 -2.2616
 3682TIP3   OH232536   6.823   6.480   2.317 -0.2129  0.4729 -0.1362
 3682TIP3    H132537   6.839   6.394   2.357  0.6697  0.7646  0.1615
 3682TIP3    H232538   6.748   6.515   2.365 -0.4266 -0.0283 -0.0968
 3683TIP3   OH232539   2.899   1.589  16.937 -0.1973 -0.3753  0.1639
 3683TIP3    H132540   2.994   1.589  16.922 -0.4330  0.3874 -1.5406
 3683TIP3    H232541   2.888   1.627  17.024  0.9877  1.0000 -0.2554
 3684TIP3   OH232542   1.136   1.755  15.986 -0.1017 -0.4374  0.0183
 3684TIP3    H132543   1.214   1.713  15.950  0.0071 -0.6102  0.4436
 3684TIP3    H232544   1.100   1.806  15.914 -0.0324 -0.9837 -0.4029
 3685TIP3   OH232545   4.913   1.030  13.659 -0.2821  0.2463 -0.2237
 3685TIP3    H132546   4.872   1.099  13.711  0.1270  0.5510 -0.3031
 3685TIP3    H232547   4.884   0.948  13.700  1.1764  0.4936  1.3616
 3686TIP3   OH232548   4.875   1.394   1.531  0.4520 -0.4147 -0.4511
 3686TIP3    H132549   4.827   1.312   1.547 -0.9711  0.1811 -1.4834
 3686TIP3    H232550   4.903   1.388   1.440 -0.1267  0.4710 -0.6924
 3687TIP3   OH232551   2.877   0.594  16.447 -0.2206 -0.1087 -0.7519
 3687TIP3    H132552   2.782   0.601  16.458 -0.1648 -1.0399  0.6578
 3687TIP3    H232553   2.889   0.556  16.360 -1.0748  1.0772 -1.4138
 3688TIP3   OH232554   0.284   1.187   4.112 -0.1503 -0.0602  0.4899
 3688TIP3    H132555   0.335   1.266   4.094 -0.6379 -0.2053 -2.0141
 3688TIP3    H232556   0.202   1.220   4.150  0.0371  0.5771  0.3538
 3689TIP3   OH232557   6.454   4.185   1.591  0.4685  0.0382 -0.1456
 3689TIP3    H132558   6.503   4.180   1.673  0.7515  0.1746 -0.3028
 3689TIP3    H232559   6.363   4.175   1.616  0.5360  0.3065  0.2102
 3690TIP3   OH232560   2.638   1.912   5.797 -0.3464 -0.3780 -0.1223
 3690TIP3    H132561   2.581   1.987   5.783 -0.7937 -0.8540 -0.9155
 3690TIP3    H232562   2.586   1.851   5.849 -0.2895 -0.5030 -0.2119
 3691TIP3   OH232563   4.639   4.392   4.904 -0.6518 -0.2383  0.2339
 3691TIP3    H132564   4.646   4.367   4.812  0.1438 -1.8619  0.7026
 3691TIP3    H232565   4.619   4.486   4.901 -2.1580 -0.5304 -1.6047
 3692TIP3   OH232566   0.553   3.091  12.822  0.3674 -0.5584 -0.1894
 3692TIP3    H132567   0.638   3.134  12.814  0.4579 -0.9504 -1.4968
 3692TIP3    H232568   0.528   3.105  12.914  0.6005  1.8231 -0.4293
 3693TIP3   OH232569   0.640   2.894   3.079 -0.0662  0.5780  0.5607
 3693TIP3    H132570   0.668   2.814   3.036  0.3242  1.1333 -0.2568
 3693TIP3    H232571   0.594   2.943   3.011 -0.5760  0.9081  1.1329
 3694TIP3   OH232572   2.037   5.062  15.623  0.0001  0.6860 -0.0604
 3694TIP3    H132573   2.082   5.090  15.543  1.5154 -0.3176  0.3883
 3694TIP3    H232574   1.961   5.012  15.592  0.4093  0.5458 -0.8698
 3695TIP3   OH232575   6.084   0.239   1.024  0.4626 -0.1440  0.2571
 3695TIP3    H132576   6.138   0.297   0.970  0.1150  1.2566  1.3400
 3695TIP3    H232577   6.078   0.284   1.108  1.0797 -2.2814  1.5432
 3696TIP3   OH232578   1.488   2.385   2.598 -0.4370  0.3881  0.3622
 3696TIP3    H132579   1.567   2.362   2.647 -0.1388 -1.2000 -0.7691
 3696TIP3    H232580   1.434   2.434   2.660  0.6342 -0.1155  1.7363
 3697TIP3   OH232581   2.922   1.953  12.368 -0.1799 -0.0202  0.8540
 3697TIP3    H132582   2.946   2.014  12.298  0.5398 -0.7801  0.4151
 3697TIP3    H232583   2.975   1.981  12.443  0.4721 -0.3554  0.5294
 3698TIP3   OH232584   0.760   4.991   0.359  0.3235 -0.0058  0.0550
 3698TIP3    H132585   0.754   5.051   0.433  2.2617  0.4162 -0.0669
 3698TIP3    H232586   0.812   4.918   0.391  0.8859  0.0183 -0.7649
 3699TIP3   OH232587   0.786   5.547  16.730 -0.0871 -0.2282 -0.3808
 3699TIP3    H132588   0.880   5.549  16.712 -0.5125 -0.1638 -3.0277
 3699TIP3    H232589   0.752   5.481  16.670 -1.8777  0.6193 -0.3682
 3700TIP3   OH232590   5.484   2.450   3.558  0.2895  0.2048 -0.5679
 3700TIP3    H132591   5.398   2.434   3.520  0.5983 -2.0794 -0.3986
 3700TIP3    H232592   5.469   2.520   3.622 -1.6750 -0.8969  0.2705
 3701TIP3   OH232593   3.012   6.541  11.148 -0.1151 -0.8460 -0.2251
 3701TIP3    H132594   3.032   6.545  11.055  0.6891 -1.8309 -0.1113
 3701TIP3    H232595   3.072   6.475  11.183 -0.1049 -0.1885  1.0722
 3702TIP3   OH232596   3.331   1.877  12.981 -0.0713  0.0226  0.0018
 3702TIP3    H132597   3.333   1.781  12.980  1.7885  0.0193  0.1480
 3702TIP3    H232598   3.325   1.900  13.074 -1.9391  0.0893 -0.0940
 3703TIP3   OH232599   2.089   0.448   4.130 -0.2902  0.1679 -0.2094
 3703TIP3    H132600   2.060   0.508   4.198 -1.3605  1.6342 -1.8846
 3703TIP3    H232601   2.180   0.428   4.152 -0.7839  0.1214  1.9318
 3704TIP3   OH232602   3.330   0.182   0.941  0.5652  0.2808  0.0763
 3704TIP3    H132603   3.297   0.217   0.858  1.3752 -0.3790 -0.5354
 3704TIP3    H232604   3.312   0.088   0.937 -0.3039  0.3841  1.1002
 3705TIP3   OH232605   1.528   4.912   4.677  0.4095 -0.4592 -0.4092
 3705TIP3    H132606   1.616   4.906   4.712  0.6687 -1.4241 -1.1876
 3705TIP3    H232607   1.498   4.822   4.669  0.2111 -0.2772 -2.2470
 3706TIP3   OH232608   5.699   3.075   5.103  0.3295 -0.1291  0.3645
 3706TIP3    H132609   5.673   3.132   5.031 -0.1985 -0.3773  0.3542
 3706TIP3    H232610   5.734   2.997   5.061  0.0893 -0.2441  0.3808
 3707TIP3   OH232611   2.861   0.352   1.058 -0.0667  0.1738  0.1208
 3707TIP3    H132612   2.929   0.381   0.998  2.2943 -2.2115  1.4379
 3707TIP3    H232613   2.824   0.274   1.016 -1.6832  1.0963 -0.2891
 3708TIP3   OH232614   2.322   3.290   2.772  0.1882  0.1138 -0.6679
 3708TIP3    H132615   2.360   3.208   2.803  0.9790  0.7439  0.0895
 3708TIP3    H232616   2.361   3.303   2.686  0.5021 -0.0169 -0.5472
 3709TIP3   OH232617   2.820   3.812   4.534  0.1940  0.3406 -0.0328
 3709TIP3    H132618   2.815   3.809   4.629 -0.0372 -0.4658 -0.0661
 3709TIP3    H232619   2.899   3.863   4.516 -0.7850  2.1559  0.5627
 3710TIP3   OH232620   1.410   3.341  11.661  0.1545 -0.4586  0.4428
 3710TIP3    H132621   1.406   3.274  11.593  0.1917 -0.4218  0.4044
 3710TIP3    H232622   1.493   3.322  11.707  0.9961  0.5588 -0.6042
 3711TIP3   OH232623   2.224   6.226   4.723  0.3093 -0.0510 -0.0625
 3711TIP3    H132624   2.155   6.172   4.761  2.1217 -1.4104  1.5028
 3711TIP3    H232625   2.212   6.217   4.629 -0.5962 -1.6884  0.1676
 3712TIP3   OH232626   3.290   3.299  12.666 -0.1346 -0.2795  0.1729
 3712TIP3    H132627   3.316   3.381  12.625  0.6091  0.5686  2.1959
 3712TIP3    H232628   3.361   3.279  12.728 -0.7560 -1.9428  0.4234
 3713TIP3   OH232629   5.832   0.809   1.634  0.0809  0.6089  0.1679
 3713TIP3    H132630   5.837   0.891   1.683  0.7058  0.9898 -0.5190
 3713TIP3    H232631   5.910   0.760   1.661 -1.2883 -0.6347  2.0744
 3714TIP3   OH232632   3.828   2.166   2.434 -0.4459  0.0255 -0.4275
 3714TIP3    H132633   3.809   2.133   2.346 -0.2614  0.8539 -0.7859
 3714TIP3    H232634   3.808   2.260   2.429 -0.0304  0.1585  0.2944
 3715TIP3   OH232635   6.618   0.393   5.392  0.0232 -0.2516 -0.7752
 3715TIP3    H132636   6.679   0.336   5.439  0.5405  0.0621 -1.0697
 3715TIP3    H232637   6.672   0.461   5.353 -0.7933  2.3939  2.2379
 3716TIP3   OH232638   2.763   6.151  14.128 -0.2274  0.3059  0.0355
 3716TIP3    H132639   2.667   6.153  14.128 -0.2323  0.5322  0.9139
 3716TIP3    H232640   2.787   6.122  14.216  0.5166  0.9596  0.0691
 3717TIP3   OH232641   0.230   0.494   1.036 -0.3233  0.4061 -0.2499
 3717TIP3    H132642   0.218   0.558   1.106  0.2743  0.0854  0.1507
 3717TIP3    H232643   0.313   0.450   1.057  0.2612  0.8308 -1.5604
 3718TIP3   OH232644   3.701   4.363   2.354  0.7895 -0.2668 -0.0771
 3718TIP3    H132645   3.623   4.335   2.307  0.6419 -0.4018  0.2423
 3718TIP3    H232646   3.759   4.397   2.287  0.2462  0.3205 -0.2563
 3719TIP3   OH232647   0.691   1.699  11.703 -0.3363  0.4629  0.6854
 3719TIP3    H132648   0.735   1.709  11.618 -0.2733  2.0811  0.8725
 3719TIP3    H232649   0.606   1.660  11.682  0.7314 -1.7204  0.2076
 3720TIP3   OH232650   4.234   3.851  11.768  0.0679  0.4615  0.4476
 3720TIP3    H132651   4.222   3.925  11.708  1.2424  0.5330  0.2789
 3720TIP3    H232652   4.287   3.887  11.839  0.1520 -0.0728  0.6557
 3721TIP3   OH232653   2.546   1.076   3.003  0.5220 -0.0754 -0.0098
 3721TIP3    H132654   2.613   1.143   3.018  0.7650 -0.5219  0.9709
 3721TIP3    H232655   2.558   1.049   2.912  0.6397  0.9630 -0.3157
 3722TIP3   OH232656   4.409   6.282  13.591  0.0766 -0.2433  0.1043
 3722TIP3    H132657   4.333   6.319  13.636  0.5391  0.0598  0.6639
 3722TIP3    H232658   4.483   6.333  13.625  0.9362 -2.5048  1.9088
 3723TIP3   OH232659   4.574   5.689  13.982  0.0750  0.2962  0.2615
 3723TIP3    H132660   4.488   5.688  14.024  0.1570 -1.1881  0.4609
 3723TIP3    H232661   4.634   5.657  14.049  0.6942  0.7792 -0.0579
 3724TIP3   OH232662   1.771   0.300   5.329 -0.7979 -0.3727 -0.1536
 3724TIP3    H132663   1.800   0.209   5.322  1.1372  0.0477  1.7534
 3724TIP3    H232664   1.756   0.327   5.238 -2.9425 -3.0032 -0.6950
 3725TIP3   OH232665   4.860   0.656   0.041 -0.2456 -0.4267  0.2648
 3725TIP3    H132666   4.924   0.612   0.098  0.2081  0.7503  0.7025
 3725TIP3    H232667   4.857   0.602  -0.038  2.3325  0.1623 -0.3414
 3726TIP3   OH232668   5.459   6.387   5.503 -0.0522 -0.0653 -0.6143
 3726TIP3    H132669   5.536   6.418   5.552  0.1784 -0.5518 -0.6562
 3726TIP3    H232670   5.486   6.391   5.411 -0.3297  0.4338 -0.6744
 3727TIP3   OH232671   4.600   2.785   0.030  0.5007 -0.1550 -0.5347
 3727TIP3    H132672   4.677   2.832   0.060  2.5850 -1.7247 -3.0709
 3727TIP3    H232673   4.526   2.832   0.071  2.7170  1.1831  2.2816
 3728TIP3   OH232674   6.297   4.761   3.483 -0.1772 -0.6690 -0.4708
 3728TIP3    H132675   6.207   4.785   3.506 -0.2584 -0.9002 -0.5521
 3728TIP3    H232676   6.301   4.667   3.496  0.6103 -0.4143  1.4227
 3729TIP3   OH232677   1.687   2.147   1.920 -0.2101 -0.2060 -0.3375
 3729TIP3    H132678   1.638   2.103   1.990 -0.0417 -0.2810 -0.2638
 3729TIP3    H232679   1.629   2.147   1.845 -1.1063  1.4748  0.3029
 3730TIP3   OH232680   5.550   6.359  16.364 -0.5241  0.0476  0.6557
 3730TIP3    H132681   5.596   6.316  16.437 -1.2446 -0.0333  1.0639
 3730TIP3    H232682   5.615   6.418  16.327 -0.3586  0.6030  1.7965
 3731TIP3   OH232683   6.079   6.032   1.926  0.7590 -0.5572  0.0705
 3731TIP3    H132684   6.040   5.955   1.968  1.5779 -0.7484  0.5175
 3731TIP3    H232685   6.007   6.094   1.917  0.6792 -0.1464  2.6391
 3732TIP3   OH232686   4.606   1.355  13.827  0.1044  0.1997  0.2414
 3732TIP3    H132687   4.682   1.331  13.880  2.0920  0.9299 -2.0669
 3732TIP3    H232688   4.622   1.446  13.803 -1.1494  0.1473 -0.9083
 3733TIP3   OH232689   2.105   0.375  14.271 -0.0387 -0.1989 -0.8243
 3733TIP3    H132690   2.090   0.286  14.238 -1.9698 -0.3816  0.3399
 3733TIP3    H232691   2.023   0.421  14.252  0.5539  1.0206 -0.4922
 3734TIP3   OH232692   4.442   5.157   6.149  0.2890 -0.2559  0.4494
 3734TIP3    H132693   4.365   5.115   6.187 -0.0874 -1.2962 -1.3040
 3734TIP3    H232694   4.409   5.196   6.067  1.3462  0.4908  0.3657
 3735TIP3   OH232695   1.925   6.379  16.523  0.2487 -0.0845  0.2655
 3735TIP3    H132696   1.992   6.388  16.455 -0.0170  1.0060  0.1178
 3735TIP3    H232697   1.975   6.373  16.605  0.5451  0.2876  0.1167
 3736TIP3   OH232698   6.280   2.437  11.073 -0.3456  0.1797  0.4726
 3736TIP3    H132699   6.342   2.403  11.137 -1.0757 -1.8132  0.1731
 3736TIP3    H232700   6.335   2.477  11.005  0.5187  0.0987  1.1112
 3737TIP3   OH232701   3.015   3.808  15.865  0.2488  0.4316  0.0994
 3737TIP3    H132702   2.932   3.805  15.817  0.8781 -0.0316 -0.9896
 3737TIP3    H232703   2.993   3.853  15.947 -1.0202  0.5439 -0.2754
 3738TIP3   OH232704   1.610   2.829  13.313 -0.1094  0.2398  0.1976
 3738TIP3    H132705   1.627   2.828  13.407 -0.2581  0.1902  0.2235
 3738TIP3    H232706   1.548   2.757  13.299  0.6242 -0.3565 -0.0690
 3739TIP3   OH232707   1.172   1.205   6.379  0.0364 -0.3337 -0.4184
 3739TIP3    H132708   1.167   1.138   6.312 -2.3037 -0.5643 -0.1097
 3739TIP3    H232709   1.209   1.161   6.455 -0.3882 -0.9734 -0.5774
 3740TIP3   OH232710   2.234   3.458   3.944  0.8408 -0.1087 -0.4097
 3740TIP3    H132711   2.190   3.431   4.024 -0.0525 -1.8969 -1.4578
 3740TIP3    H232712   2.328   3.447   3.963  0.6142 -0.9662  0.2589
 3741TIP3   OH232713   1.347   4.851  16.781 -0.1054 -0.2786 -0.1976
 3741TIP3    H132714   1.348   4.862  16.686  0.4465  0.6764 -0.0996
 3741TIP3    H232715   1.271   4.796  16.798  0.4906 -1.4685 -1.2800
 3742TIP3   OH232716   5.618   2.205   4.237 -0.4445 -0.8662  0.5398
 3742TIP3    H132717   5.679   2.133   4.225  0.8095  0.1510  0.6500
 3742TIP3    H232718   5.549   2.169   4.293 -0.4563 -2.2957 -0.3571
 3743TIP3   OH232719   4.131   1.285  12.616  0.2078 -0.1370  0.5269
 3743TIP3    H132720   4.187   1.363  12.610  0.0641 -0.1204 -1.3700
 3743TIP3    H232721   4.192   1.212  12.627  0.5502  0.0044 -0.3174
 3744TIP3   OH232722   1.713   1.304   1.761 -0.0166  0.5105 -0.2951
 3744TIP3    H132723   1.766   1.337   1.833  0.2061  1.6567 -0.9559
 3744TIP3    H232724   1.775   1.289   1.690 -0.3580  0.3313 -0.5594
 3745TIP3   OH232725   1.397   4.027  14.468 -0.1213  0.0196  0.2969
 3745TIP3    H132726   1.343   4.095  14.509 -1.0926 -0.4677 -0.1508
 3745TIP3    H232727   1.452   3.994  14.540 -0.6251  0.3163  0.8287
 3746TIP3   OH232728   0.759   2.261  11.455 -0.0778  0.5216 -0.4382
 3746TIP3    H132729   0.846   2.286  11.487  0.1186 -0.3105 -0.2972
 3746TIP3    H232730   0.769   2.171  11.425 -1.2722 -0.1853  1.1111
 3747TIP3   OH232731   4.602   4.850  11.104 -0.4635  0.2572  0.9098
 3747TIP3    H132732   4.648   4.930  11.132  0.0288  0.0428  0.7244
 3747TIP3    H232733   4.672   4.787  11.088 -0.6719  0.5137 -1.2988
 3748TIP3   OH232734   0.516   6.321  16.281  0.1822  0.4837 -0.1032
 3748TIP3    H132735   0.532   6.235  16.321  0.1150 -0.1492 -1.4023
 3748TIP3    H232736   0.603   6.358  16.268  0.4176 -0.7618 -2.4379
 3749TIP3   OH232737   2.955   0.962  10.445  0.2073 -0.0822 -0.2157
 3749TIP3    H132738   2.868   1.000  10.458 -0.8348 -2.3470 -0.0970
 3749TIP3    H232739   2.953   0.880  10.495  3.1389  0.7271  1.4767
 3750TIP3   OH232740   0.422   1.153   0.779 -0.3215  0.4891  0.4222
 3750TIP3    H132741   0.505   1.162   0.733 -0.3317 -0.1746  0.2578
 3750TIP3    H232742   0.436   1.080   0.839 -1.7300 -1.8486 -1.8438
 3751TIP3   OH232743   1.516   3.624  13.213 -0.9996  0.1500 -0.8382
 3751TIP3    H132744   1.577   3.551  13.199  0.7553  1.5069 -0.5793
 3751TIP3    H232745   1.434   3.582  13.239  0.2023 -1.7041  0.1603
 3752TIP3   OH232746   6.487   1.677   3.643 -0.6285  0.6807  0.1143
 3752TIP3    H132747   6.562   1.728   3.613  0.1319 -0.9070 -0.8009
 3752TIP3    H232748   6.419   1.692   3.577  0.0341 -0.4674 -0.8565
 3753TIP3   OH232749   2.231   6.087   5.954 -0.5575  0.0539 -0.2488
 3753TIP3    H132750   2.140   6.111   5.973  0.0566  2.8625 -0.3866
 3753TIP3    H232751   2.277   6.101   6.036 -0.1598 -0.9891 -0.2846
 3754TIP3   OH232752   1.751   2.980   6.558  0.1183  0.4261  0.2957
 3754TIP3    H132753   1.825   2.939   6.604 -1.0934  0.5787  2.4857
 3754TIP3    H232754   1.688   2.909   6.546  0.5696  0.2808 -1.6355
 3755TIP3   OH232755   3.158   1.550  11.898 -0.0838  1.1066  0.5587
 3755TIP3    H132756   3.226   1.500  11.852  0.0384  1.0587  0.7862
 3755TIP3    H232757   3.174   1.531  11.991 -1.4608 -0.2854  0.5510
 3756TIP3   OH232758   5.712   0.874  12.261  0.3037  0.3107 -0.2013
 3756TIP3    H132759   5.700   0.969  12.259 -0.0011  0.2693 -0.4716
 3756TIP3    H232760   5.804   0.861  12.235  0.9153  0.6196  1.6448
 3757TIP3   OH232761   6.013   5.704  13.189  0.0403 -0.4051 -0.0504
 3757TIP3    H132762   6.027   5.610  13.203  1.6787 -0.0834  0.6295
 3757TIP3    H232763   6.036   5.744  13.273  1.3229  0.7670 -0.9238
 3758TIP3   OH232764   4.139   6.824  11.208  0.0871  0.1541 -0.4206
 3758TIP3    H132765   4.193   6.889  11.252 -0.8391 -0.3558  1.5795
 3758TIP3    H232766   4.184   6.807  11.125  1.0267  2.3513 -0.4162
 3759TIP3   OH232767   0.959   3.923   0.169 -0.4552  0.1909  0.3049
 3759TIP3    H132768   0.966   3.851   0.232 -1.5238 -0.8364 -0.6999
 3759TIP3    H232769   0.865   3.939   0.161 -0.6388 -1.4277 -2.7931
 3760TIP3   OH232770   2.511   4.040   2.757  0.8944  0.2548 -0.0401
 3760TIP3    H132771   2.523   3.962   2.703  0.5813  0.4494 -0.3989
 3760TIP3    H232772   2.582   4.099   2.732 -0.7208  1.4569 -2.2502
 3761TIP3   OH232773   1.048   1.275   0.071 -0.0934  0.2115 -0.4740
 3761TIP3    H132774   0.989   1.266  -0.004  0.8522 -2.5099 -1.0221
 3761TIP3    H232775   1.131   1.301   0.032 -0.2114  1.2390 -0.0510
 3762TIP3   OH232776   4.725   6.650   0.048  0.0476 -0.0874  0.0360
 3762TIP3    H132777   4.762   6.673  -0.038  2.6326 -1.5028  0.6582
 3762TIP3    H232778   4.800   6.653   0.108 -1.4861 -0.1950  2.0586
 3763TIP3   OH232779   6.514   2.326   1.942 -0.2866 -0.3345  0.6456
 3763TIP3    H132780   6.579   2.275   1.893 -1.6112  0.5715 -2.2852
 3763TIP3    H232781   6.430   2.301   1.903 -1.6069 -0.2946  3.2382
 3764TIP3   OH232782   5.975   2.273  13.794 -0.8987  0.1814  0.2611
 3764TIP3    H132783   6.035   2.343  13.768  0.0100 -1.2023 -1.6468
 3764TIP3    H232784   5.936   2.304  13.875  2.5239  1.1253  1.7298
 3765TIP3   OH232785   5.385   4.896   3.202 -0.1094  0.5389  0.5448
 3765TIP3    H132786   5.458   4.957   3.195  0.4512 -0.2877 -1.2549
 3765TIP3    H232787   5.319   4.944   3.252  0.7823  2.1538  0.2399
 3766TIP3   OH232788   6.699   4.478   4.840  0.4997 -0.0454 -0.1872
 3766TIP3    H132789   6.709   4.563   4.882 -1.4551 -1.0388  2.4964
 3766TIP3    H232790   6.789   4.453   4.816  1.2894  2.0560  0.3593
 3767TIP3   OH232791   6.487   5.640   0.805 -0.1642 -0.6417  0.2222
 3767TIP3    H132792   6.495   5.545   0.796  2.0020 -0.2958 -3.8364
 3767TIP3    H232793   6.401   5.660   0.768 -0.1540 -0.9225  0.0444
 3768TIP3   OH232794   3.772   3.945  14.746  0.0968 -0.0504 -0.2019
 3768TIP3    H132795   3.721   3.913  14.821 -1.3772 -2.6418 -2.1487
 3768TIP3    H232796   3.863   3.933  14.773 -0.3743 -0.1807  1.4626
 3769TIP3   OH232797   6.134   3.513  13.653 -0.5525  0.3922  0.1747
 3769TIP3    H132798   6.156   3.453  13.724  0.7382  1.5202  0.7758
 3769TIP3    H232799   6.167   3.470  13.574 -0.4420 -0.0882  0.4747
 3770TIP3   OH232800   4.566   6.764   2.289  0.1581 -0.2150 -0.0052
 3770TIP3    H132801   4.577   6.857   2.271  0.8801 -0.0066  1.3779
 3770TIP3    H232802   4.635   6.744   2.353 -0.1376 -1.6400 -0.1074
 3771TIP3   OH232803   2.264   2.911   1.749 -0.1416 -0.1319  0.8268
 3771TIP3    H132804   2.320   2.890   1.674  1.1935  1.3006  1.3723
 3771TIP3    H232805   2.184   2.862   1.733  0.9100 -1.5405 -0.4518
 3772TIP3   OH232806   0.762   0.484  16.260  0.1230 -0.8101  0.0273
 3772TIP3    H132807   0.703   0.414  16.288  0.2384 -0.3571  1.4434
 3772TIP3    H232808   0.765   0.475  16.164 -1.2624 -1.6010  0.0330
 3773TIP3   OH232809   5.143   1.396   1.032 -0.4547 -0.0223 -0.0617
 3773TIP3    H132810   5.070   1.454   1.053  0.1348  0.7664 -0.1428
 3773TIP3    H232811   5.182   1.434   0.953  1.5985  1.0677  1.3980
 3774TIP3   OH232812   1.359   1.316  12.038 -0.2609 -0.4443  0.0926
 3774TIP3    H132813   1.328   1.279  12.121  0.9107  1.0980  1.2702
 3774TIP3    H232814   1.359   1.410  12.052  0.2356 -0.1636 -1.5870
 3775TIP3   OH232815   3.697   0.935   4.176  0.5614 -0.0306 -0.0728
 3775TIP3    H132816   3.646   0.894   4.106  0.3591 -0.1623  0.1523
 3775TIP3    H232817   3.674   1.028   4.171  0.2379 -0.1026  0.0820
 3776TIP3   OH232818   5.203   3.381  16.506 -0.4523  0.1468  0.1802
 3776TIP3    H132819   5.236   3.311  16.450 -0.0053  1.4045 -1.1840
 3776TIP3    H232820   5.115   3.399  16.474 -0.2397  0.7951 -0.0530
 3777TIP3   OH232821   0.697   0.754  14.051 -0.0786 -0.6080  0.5428
 3777TIP3    H132822   0.767   0.816  14.030 -0.1867 -0.9741 -1.0080
 3777TIP3    H232823   0.703   0.742  14.146 -1.6988  3.7386  1.4254
 3778TIP3   OH232824   6.214   1.930  14.623  0.1808 -0.4296 -0.2434
 3778TIP3    H132825   6.300   1.890  14.638 -0.3654 -1.9661 -1.0029
 3778TIP3    H232826   6.170   1.870  14.562 -0.7108  1.3261 -1.4040
 3779TIP3   OH232827   3.687   0.545  14.224  0.2499 -0.0346 -0.5116
 3779TIP3    H132828   3.770   0.590  14.234 -0.9268  2.0676  0.2711
 3779TIP3    H232829   3.664   0.516  14.312 -0.3526  0.3248 -0.5502
 3780TIP3   OH232830   2.939   0.360  11.283  0.3725 -0.5752  0.0459
 3780TIP3    H132831   2.892   0.401  11.210  0.9919 -1.4160 -0.8431
 3780TIP3    H232832   2.873   0.307  11.327 -0.0751  0.1588  0.2847
 3781TIP3   OH232833   3.406   2.105   0.957 -0.2841  0.4463  0.4288
 3781TIP3    H132834   3.455   2.153   0.891 -0.4712  0.8193  0.5609
 3781TIP3    H232835   3.412   2.159   1.036 -1.6499  0.9320  0.2197
 3782TIP3   OH232836   5.693   5.705  16.818  0.2141  0.6217  0.0391
 3782TIP3    H132837   5.667   5.639  16.754  2.6185  0.4826 -0.9294
 3782TIP3    H232838   5.786   5.721  16.799  1.0025  0.7275  3.3866
 3783TIP3   OH232839   2.855   2.312  13.379 -0.3481  0.0918 -0.2588
 3783TIP3    H132840   2.800   2.386  13.352  1.3519  1.8141  0.7228
 3783TIP3    H232841   2.876   2.331  13.470  0.0132 -1.7285  0.0686
 3784TIP3   OH232842   2.626   3.605   6.620  0.1699  0.0092 -0.3080
 3784TIP3    H132843   2.533   3.588   6.636  0.0036  1.1908  0.0581
 3784TIP3    H232844   2.634   3.609   6.525 -0.3754  1.0134 -0.3229
 3785TIP3   OH232845   0.171   4.525  13.376  0.0462 -0.6300  0.2741
 3785TIP3    H132846   0.150   4.615  13.400 -1.1316 -0.6674 -0.5443
 3785TIP3    H232847   0.254   4.507  13.420  0.7748  1.1584 -0.3022
 3786TIP3   OH232848   1.966   1.487   3.857  0.0354 -0.1301  0.1513
 3786TIP3    H132849   1.925   1.501   3.942  1.7245 -0.7025  1.1180
 3786TIP3    H232850   1.987   1.575   3.826 -3.5827  0.3525 -1.3306
 3787TIP3   OH232851   5.699   4.918  16.367 -0.4411  0.6100 -0.5291
 3787TIP3    H132852   5.616   4.891  16.405 -0.0136 -1.4001 -0.9280
 3787TIP3    H232853   5.765   4.872  16.418  0.3036  0.4159 -1.6377
 3788TIP3   OH232854   4.011   1.350   0.874  0.1216  0.5216 -0.4520
 3788TIP3    H132855   4.067   1.380   0.946  2.0291  2.1720 -2.4801
 3788TIP3    H232856   3.945   1.418   0.865 -1.2108 -0.5418  0.7701
 3789TIP3   OH232857   0.364   5.566   2.934 -0.0281 -0.2188  0.2581
 3789TIP3    H132858   0.370   5.544   2.841  0.6043 -0.4267  0.3471
 3789TIP3    H232859   0.274   5.543   2.958 -0.7900  1.4908 -0.7207
 3790TIP3   OH232860   1.536   0.745  14.613 -0.2586  0.4463 -0.0895
 3790TIP3    H132861   1.615   0.696  14.634 -0.1715  0.7372  0.2788
 3790TIP3    H232862   1.566   0.816  14.555 -0.2894  0.4048 -0.1555
 3791TIP3   OH232863   4.036   3.211   0.828 -0.5313 -0.2855 -0.4470
 3791TIP3    H132864   4.130   3.223   0.838 -0.4375  0.8251 -2.2825
 3791TIP3    H232865   4.007   3.177   0.913  1.3399  0.4054  0.5202
 3792TIP3   OH232866   6.007   5.705   4.751  0.4518  0.2425 -0.4043
 3792TIP3    H132867   5.946   5.637   4.780 -1.6995  1.6669 -1.3119
 3792TIP3    H232868   6.051   5.734   4.831 -0.1659 -0.7436  0.3060
 3793TIP3   OH232869   5.537   0.785  16.808 -0.9304 -0.1902 -0.0683
 3793TIP3    H132870   5.458   0.741  16.841  1.1847 -3.2574  1.3239
 3793TIP3    H232871   5.574   0.723  16.745  0.0409  1.5267 -1.2591
 3794TIP3   OH232872   4.401   5.189   0.120 -0.2280  0.6204  0.1272
 3794TIP3    H132873   4.460   5.161   0.190 -0.0031 -0.2809 -0.4155
 3794TIP3    H232874   4.356   5.266   0.157  0.2393  0.4578  1.0754
 3795TIP3   OH232875   1.280   2.736  13.556  0.0039  0.3058  0.1740
 3795TIP3    H132876   1.300   2.822  13.519  0.3045 -0.0403 -0.4751
 3795TIP3    H232877   1.303   2.744  13.648  3.4074 -0.1039 -0.5304
 3796TIP3   OH232878   5.859   0.286  12.622  0.1103 -0.0431  0.0830
 3796TIP3    H132879   5.917   0.332  12.683  0.3730 -0.4077  0.1113
 3796TIP3    H232880   5.773   0.327  12.634  0.1900 -0.0273  0.6049
 3797TIP3   OH232881   2.461   6.627  15.216 -0.0773 -0.1301  0.5130
 3797TIP3    H132882   2.472   6.714  15.178  0.9850 -1.2024 -1.8585
 3797TIP3    H232883   2.368   6.608  15.205  0.2562 -0.5724 -2.1647
 3798TIP3   OH232884   5.020   6.807  13.936  0.1441  0.2636 -0.1778
 3798TIP3    H132885   5.068   6.890  13.930 -1.0305  0.9440 -0.4052
 3798TIP3    H232886   4.994   6.788  13.846 -0.3704  0.1190  0.0012
 3799TIP3   OH232887   6.695   2.784   3.578 -0.3941  0.3628  0.5853
 3799TIP3    H132888   6.698   2.713   3.642 -0.1626  1.0894  1.3933
 3799TIP3    H232889   6.666   2.742   3.497  2.2817 -1.1647  0.3293
 3800TIP3   OH232890   6.412   3.813  13.374 -0.4996  0.6642  0.6203
 3800TIP3    H132891   6.476   3.805  13.304  0.0132 -0.8890  1.2191
 3800TIP3    H232892   6.343   3.750  13.351  0.9235 -1.8855  2.7148
 3801TIP3   OH232893   4.859   1.942  12.365  0.0854 -0.2916  0.2480
 3801TIP3    H132894   4.820   1.860  12.397  1.8832 -1.0832  0.5415
 3801TIP3    H232895   4.802   2.010  12.400 -0.1921 -1.3195  1.9453
 3802TIP3   OH232896   6.480   5.928  15.633 -0.5468  0.2173 -0.1949
 3802TIP3    H132897   6.493   5.940  15.727 -1.4326  0.1636 -0.0635
 3802TIP3    H232898   6.555   5.972  15.593  1.9325 -2.9301  0.6156
 3803TIP3   OH232899   6.003   0.285   3.665  0.3855 -0.5744  0.3751
 3803TIP3    H132900   6.015   0.220   3.595 -0.8404 -1.1197  0.6335
 3803TIP3    H232901   5.937   0.345   3.630 -2.5470 -2.5298  2.0644
 3804TIP3   OH232902   2.748   5.033  16.350 -0.2003  0.3968  0.2397
 3804TIP3    H132903   2.778   5.109  16.398 -1.3920  1.4172 -0.5643
 3804TIP3    H232904   2.674   5.065  16.298 -0.0834 -1.0626 -0.8929
 3805TIP3   OH232905   4.448   3.714  12.882 -0.4630  0.1995  0.0095
 3805TIP3    H132906   4.509   3.741  12.814 -1.5830  0.8521 -0.7744
 3805TIP3    H232907   4.497   3.723  12.964  0.2450  1.4289 -0.5265
 3806TIP3   OH232908   4.469   0.907  10.773  0.0969 -0.5019 -0.1631
 3806TIP3    H132909   4.496   0.863  10.692  0.3650 -1.7887  0.5959
 3806TIP3    H232910   4.387   0.864  10.798 -0.5060  0.5598 -0.2536
 3807TIP3   OH232911   1.754   1.892   1.106 -0.5384  0.8764 -0.4354
 3807TIP3    H132912   1.822   1.943   1.150 -0.0826 -0.6343  0.7254
 3807TIP3    H232913   1.689   1.875   1.174 -0.3480 -0.6037 -0.5748
 3808TIP3   OH232914   1.389   5.045   0.071 -0.6098  0.7126 -0.8170
 3808TIP3    H132915   1.429   4.979   0.016 -0.7010  1.3903 -1.7091
 3808TIP3    H232916   1.296   5.042   0.049 -0.4384  2.0012 -1.8024
 3809TIP3   OH232917   2.109   1.212  16.530 -0.0582  0.0655  0.0679
 3809TIP3    H132918   2.134   1.211  16.622  0.5634  1.4082 -0.0545
 3809TIP3    H232919   2.024   1.169  16.527  0.6147 -1.4123  1.0262
 3810TIP3   OH232920   0.003   6.700  14.469 -0.0649 -0.1866  0.0966
 3810TIP3    H132921   0.018   6.654  14.386 -1.2579  0.6476 -0.6263
 3810TIP3    H232922   0.039   6.787  14.455 -1.0682  0.2494  0.1032
 3811TIP3   OH232923   4.192   3.764  15.866  0.4648  0.7939 -0.1764
 3811TIP3    H132924   4.138   3.689  15.892  0.2962  0.7030 -0.7744
 3811TIP3    H232925   4.280   3.728  15.859  0.9155  1.2484  2.2365
 3812TIP3   OH232926   0.698   1.877   1.385 -0.2066 -0.6182  0.9009
 3812TIP3    H132927   0.640   1.868   1.310  1.1638  0.4996 -0.3745
 3812TIP3    H232928   0.686   1.797   1.436 -2.1753 -0.7919  0.2203
 3813TIP3   OH232929   1.683   3.691   1.314 -0.0667 -0.2639 -0.3328
 3813TIP3    H132930   1.670   3.649   1.399 -0.3094 -0.9043 -0.6869
 3813TIP3    H232931   1.707   3.781   1.336  1.3416 -0.7953  0.4582
 3814TIP3   OH232932   2.786   2.447   4.194 -0.0186  0.0808  0.3407
 3814TIP3    H132933   2.753   2.514   4.134 -1.4956 -0.8498  0.0822
 3814TIP3    H232934   2.807   2.495   4.274 -0.4643  0.9396 -0.0408
 3815TIP3   OH232935   2.828   2.226  16.591 -0.4108  0.3872  0.1328
 3815TIP3    H132936   2.781   2.159  16.641  0.6289  0.3996  1.1760
 3815TIP3    H232937   2.793   2.309  16.623 -0.4432  0.3731  0.1343
 3816TIP3   OH232938   3.384   2.965   0.039 -0.3342 -0.2458 -0.1800
 3816TIP3    H132939   3.453   3.002  -0.017 -0.1625 -0.9611 -0.4441
 3816TIP3    H232940   3.398   3.006   0.124 -0.2451  0.4229 -0.5094
 3817TIP3   OH232941   0.852   3.715   1.871  0.3650  0.4477  0.2701
 3817TIP3    H132942   0.895   3.789   1.913 -0.9314  0.8020  1.0405
 3817TIP3    H232943   0.759   3.735   1.876 -0.1230 -1.7812  1.5952
 3818TIP3   OH232944   1.489   6.114  14.960  0.1903 -0.4907  0.1795
 3818TIP3    H132945   1.445   6.088  15.041  2.2760 -0.6919  1.2995
 3818TIP3    H232946   1.556   6.047  14.946  0.9558  0.4394 -0.8167
 3819TIP3   OH232947   3.019   6.186   5.784  0.4138 -0.0108  0.5092
 3819TIP3    H132948   3.050   6.176   5.694 -2.7977 -0.0871 -0.7310
 3819TIP3    H232949   2.998   6.279   5.791  0.4170 -0.0547  1.1162
 3820TIP3   OH232950   2.287   1.484   5.952  0.3285 -0.0533  0.5965
 3820TIP3    H132951   2.312   1.427   6.025  0.4203 -0.9587 -0.1178
 3820TIP3    H232952   2.192   1.491   5.959  0.1785 -1.2926 -0.0010
 3821TIP3   OH232953   6.342   6.710   4.600 -0.2406 -0.2474  0.1094
 3821TIP3    H132954   6.291   6.684   4.677 -0.7004  0.2866 -0.0064
 3821TIP3    H232955   6.277   6.720   4.530  0.3105 -1.8687 -0.6693
 3822TIP3   OH232956   3.672   0.146   2.229 -0.1524  0.6648  0.1735
 3822TIP3    H132957   3.632   0.159   2.315 -1.6375  0.4005 -0.4481
 3822TIP3    H232958   3.723   0.226   2.214 -0.0629  0.8141  1.1887
 3823TIP3   OH232959   5.708   6.155   2.598  0.3508  0.6046  0.6420
 3823TIP3    H132960   5.686   6.064   2.579 -0.2993  0.8628  0.1157
 3823TIP3    H232961   5.731   6.193   2.513  0.8978  0.8622  0.8988
 3824TIP3   OH232962   1.760   3.923  16.865 -0.3212 -0.4146  0.0715
 3824TIP3    H132963   1.777   3.983  16.793  0.7905  0.1055  0.7426
 3824TIP3    H232964   1.846   3.907  16.904 -0.9834  0.0775  1.8596
 3825TIP3   OH232965   0.235   4.520  17.229 -0.0212  0.0984 -0.4521
 3825TIP3    H132966   0.313   4.574  17.216  0.3469 -0.0806  0.8792
 3825TIP3    H232967   0.168   4.581  17.260  0.1154 -0.0359  0.1200
 3826TIP3   OH232968   1.396   5.253  16.517  0.8002 -0.3170  0.0674
 3826TIP3    H132969   1.476   5.254  16.569  0.1092 -0.1185  1.1442
 3826TIP3    H232970   1.408   5.325  16.454 -0.0132  2.1605  2.5585
 3827TIP3   OH232971   0.278   6.426   2.149  0.3375  0.3661 -0.2666
 3827TIP3    H132972   0.196   6.454   2.191 -0.1305 -0.1413 -0.8157
 3827TIP3    H232973   0.306   6.350   2.201  0.6047  0.7044  0.0848
 3828TIP3   OH232974   1.485   0.090  13.553  0.0275  0.3897  0.4922
 3828TIP3    H132975   1.555   0.152  13.529 -1.2667  1.7669  0.1141
 3828TIP3    H232976   1.468   0.108  13.646  0.9533 -0.7808  0.9159
 3829TIP3   OH232977   0.567   1.329  14.381 -0.1479  0.2555  0.3497
 3829TIP3    H132978   0.519   1.304  14.460 -1.6962  0.2698 -0.5470
 3829TIP3    H232979   0.510   1.301  14.309  0.9163  0.8570 -0.7548
 3830TIP3   OH232980   4.466   6.584   0.394 -0.5821 -0.2945  0.1402
 3830TIP3    H132981   4.391   6.536   0.360 -1.8059  1.5486  0.1028
 3830TIP3    H232982   4.541   6.527   0.377 -1.6212 -1.0767 -2.2615
 3831TIP3   OH232983   0.902   4.224   2.293  0.3181  0.5530 -0.7041
 3831TIP3    H132984   0.922   4.131   2.298 -0.7374  0.2470 -1.7775
 3831TIP3    H232985   0.807   4.229   2.296  0.3358  1.5481 -1.2661
 3832TIP3   OH232986   4.963   5.666   2.959 -0.4287 -0.5204  0.1317
 3832TIP3    H132987   4.909   5.713   2.895  0.9094  0.7253 -0.1370
 3832TIP3    H232988   4.990   5.586   2.914 -0.3810 -0.1680 -0.4698
 3833TIP3   OH232989   3.947   6.758   0.196  0.4468 -0.0960  0.1034
 3833TIP3    H132990   3.954   6.833   0.137 -0.6984  1.0974  1.4040
 3833TIP3    H232991   4.028   6.760   0.246 -0.2721  1.3565  1.2932
 3834TIP3   OH232992   5.345   5.771   3.300  0.3004 -0.5513 -0.4428
 3834TIP3    H132993   5.406   5.832   3.258  1.7267 -1.5521  0.0987
 3834TIP3    H232994   5.274   5.761   3.237  0.1369  1.4656 -0.6469
 3835TIP3   OH232995   5.356   0.274   4.747 -0.1934  0.7693  0.1915
 3835TIP3    H132996   5.321   0.310   4.665 -0.0420 -0.3313 -0.3855
 3835TIP3    H232997   5.307   0.193   4.760 -0.5900  1.1883  1.5028
 3836TIP3   OH232998   4.975   3.359  16.005  0.0901  0.1472  0.5334
 3836TIP3    H132999   4.979   3.318  15.919  0.5606 -0.9278  1.0463
 3836TIP3    H233000   5.056   3.332  16.048 -0.4466  0.1137  1.5501
 3837TIP3   OH233001   5.678   4.462  14.428 -0.3919  0.2744 -0.6938
 3837TIP3    H133002   5.676   4.507  14.343 -0.5665  0.6138 -0.5116
 3837TIP3    H233003   5.588   4.434  14.442 -0.4925  0.7749 -0.3250
 3838TIP3   OH233004   2.111   2.758   0.859 -0.1148  0.0716  0.0405
 3838TIP3    H133005   2.109   2.851   0.880  0.4115 -0.0449  0.6246
 3838TIP3    H233006   2.154   2.754   0.773  3.3507  0.1527  1.5688
 3839TIP3   OH233007   1.542   4.693   4.409 -0.1235 -0.1217 -0.9351
 3839TIP3    H133008   1.466   4.639   4.389 -0.7133 -0.3064  1.4459
 3839TIP3    H233009   1.580   4.653   4.488  1.4990  0.9059 -1.1321
 3840TIP3   OH233010   1.802   4.121  14.584 -0.3898  0.2544  0.0727
 3840TIP3    H133011   1.788   4.212  14.558  3.2196  0.6277 -0.9870
 3840TIP3    H233012   1.872   4.125  14.649  0.9544 -1.8404 -1.1365
 3841TIP3   OH233013   1.338   3.126   3.418  0.3012 -0.1835  0.3542
 3841TIP3    H133014   1.412   3.178   3.386  1.3121  0.0340  2.7608
 3841TIP3    H233015   1.283   3.112   3.342  1.1688  2.4532 -0.8798
 3842TIP3   OH233016   4.073   5.353  12.044 -0.2549 -0.2111 -0.2250
 3842TIP3    H133017   4.082   5.373  12.137 -0.0043  0.7287 -0.4402
 3842TIP3    H233018   4.006   5.285  12.041  0.4660 -0.9941  0.7129
 3843TIP3   OH233019   3.950   3.106   2.717 -0.3436 -0.5507  0.0912
 3843TIP3    H133020   3.959   3.194   2.752 -0.5256  0.1269 -1.4961
 3843TIP3    H233021   3.899   3.116   2.637 -2.1095 -2.3647  0.8936
 3844TIP3   OH233022   1.947   2.122  13.154  0.2530  0.0996 -0.0963
 3844TIP3    H133023   1.881   2.155  13.092  0.4115 -1.0126 -0.8773
 3844TIP3    H233024   2.007   2.196  13.164  0.4677  0.1771 -1.6220
 3845TIP3   OH233025   5.827   4.889  11.896  0.0122  0.0907 -0.0037
 3845TIP3    H133026   5.822   4.863  11.988  0.4644 -0.6461 -0.1768
 3845TIP3    H233027   5.901   4.950  11.892  1.1334 -1.2336 -0.1631
 3846TIP3   OH233028   5.474   6.161  13.564  0.2623  0.2243 -0.1487
 3846TIP3    H133029   5.402   6.108  13.600 -0.9438  2.8667  1.6755
 3846TIP3    H233030   5.449   6.176  13.473 -0.2356 -0.8934 -0.2112
 3847TIP3   OH233031   1.449   3.734   4.003  0.0536  0.0236  0.4229
 3847TIP3    H133032   1.388   3.669   3.968 -1.7059  0.7554  2.0034
 3847TIP3    H233033   1.482   3.694   4.084  2.3485 -0.6822 -0.7492
 3848TIP3   OH233034   4.484   1.408  11.532  0.5550  0.1417  0.3057
 3848TIP3    H133035   4.545   1.469  11.574  1.9232 -0.4878 -0.6982
 3848TIP3    H233036   4.495   1.423  11.438 -3.4448  2.5307 -0.0490
 3849TIP3   OH233037   2.975   4.894  14.545  0.3296  0.3203 -0.1758
 3849TIP3    H133038   3.049   4.880  14.486 -0.1589 -2.8301 -0.1738
 3849TIP3    H233039   2.921   4.959  14.500  1.7301  0.6759 -1.4386
 3850TIP3   OH233040   2.226   1.985   4.469  0.4335  0.0407  0.1068
 3850TIP3    H133041   2.275   2.057   4.429  3.0581 -1.8079 -0.2220
 3850TIP3    H233042   2.284   1.951   4.537 -0.2445 -2.4111 -0.4521
 3851TIP3   OH233043   2.414   3.285  11.415  0.0292 -0.2580 -0.2029
 3851TIP3    H133044   2.401   3.373  11.379 -0.5780  0.1424  0.9397
 3851TIP3    H233045   2.505   3.264  11.394  0.5354  1.1050  0.4351
 3852TIP3   OH233046   5.237   1.269   6.025 -0.1373 -0.0007 -0.0097
 3852TIP3    H133047   5.209   1.193   5.974  2.2543 -0.1738 -1.1912
 3852TIP3    H233048   5.222   1.244   6.116 -2.6652 -0.4573 -0.4790
 3853TIP3   OH233049   0.646   1.289   1.953  0.1153 -0.7669 -0.2786
 3853TIP3    H133050   0.712   1.289   2.023 -1.4520 -0.5733  1.2730
 3853TIP3    H233051   0.575   1.342   1.988 -0.4996 -0.1966 -2.2863
 3854TIP3   OH233052   4.193   0.252  13.898 -0.6931 -0.1877  0.6966
 3854TIP3    H133053   4.157   0.270  13.984 -0.4947  1.1898  0.5218
 3854TIP3    H233054   4.287   0.243  13.912 -0.5660  0.7698  0.5469
 3855TIP3   OH233055   3.240   6.639  10.678 -0.1983  0.2082 -0.2307
 3855TIP3    H133056   3.246   6.732  10.698  3.0367  0.1279 -0.2176
 3855TIP3    H233057   3.199   6.635  10.592 -1.1495  1.5715  0.1310
 3856TIP3   OH233058   3.957   4.972  14.584 -0.2864  0.5802 -0.1437
 3856TIP3    H133059   3.935   4.885  14.549  0.3673  0.3270  0.0583
 3856TIP3    H233060   4.051   4.980  14.570  0.0268  0.4075  1.7109
 3857TIP3   OH233061   0.841   2.340   6.434 -0.1798 -0.1303 -0.7672
 3857TIP3    H133062   0.807   2.315   6.520 -0.3755 -0.5063 -0.9537
 3857TIP3    H233063   0.814   2.269   6.376  1.4265 -0.7300 -0.8192
 3858TIP3   OH233064   4.386   3.787  14.309  0.5568 -0.8471  0.3997
 3858TIP3    H133065   4.371   3.692  14.309  0.4285 -0.8399  1.1980
 3858TIP3    H233066   4.304   3.824  14.339  0.7814 -0.5181  0.6182
 3859TIP3   OH233067   2.200   1.669  11.905 -0.0348 -0.1000 -0.6063
 3859TIP3    H133068   2.250   1.685  11.985 -1.1941 -0.4528  0.2125
 3859TIP3    H233069   2.246   1.598  11.861  1.9919  1.6567 -1.5044
 3860TIP3   OH233070   5.908   0.079   2.963 -0.0507  0.1115 -0.1390
 3860TIP3    H133071   5.992   0.101   3.003  0.5113 -0.0814 -1.1742
 3860TIP3    H233072   5.925   0.082   2.868 -1.2591  0.2625 -0.3660
 3861TIP3   OH233073   1.425   6.520  14.395  0.4295  0.0194  0.0045
 3861TIP3    H133074   1.436   6.483  14.482  0.9173 -1.8192 -0.7882
 3861TIP3    H233075   1.332   6.540  14.389  0.1702 -1.0066  0.5063
 3862TIP3   OH233076   3.987   3.092  11.220 -0.0887 -0.1976  0.0285
 3862TIP3    H133077   4.079   3.084  11.248 -0.5814 -1.2311  1.4410
 3862TIP3    H233078   3.956   3.171  11.264 -0.1285 -0.3336  0.2410
 3863TIP3   OH233079   5.818   6.374   1.826  0.6868  0.1711 -0.2551
 3863TIP3    H133080   5.773   6.355   1.743 -1.2059  0.9565  0.5252
 3863TIP3    H233081   5.775   6.453   1.858  1.3726 -0.1247  1.4873
 3864TIP3   OH233082   2.067   1.936   1.184  0.9280  0.0178 -0.5503
 3864TIP3    H133083   2.052   1.981   1.268  0.8408 -1.1455  0.0769
 3864TIP3    H233084   2.116   1.999   1.132 -1.5177  1.9400 -0.7328
 3865TIP3   OH233085   3.049   0.548   4.085 -0.2725  1.3254  0.8495
 3865TIP3    H133086   2.967   0.540   4.037 -0.2955 -1.9946  1.2312
 3865TIP3    H233087   3.106   0.480   4.049  1.4774  1.9746  2.2069
 3866TIP3   OH233088   1.251   2.156   2.857 -0.6336  0.0879 -0.1774
 3866TIP3    H133089   1.267   2.248   2.839 -0.2076  0.0783  0.1279
 3866TIP3    H233090   1.156   2.149   2.867 -0.6928  0.4371 -0.4950
 3867TIP3   OH233091   4.759   6.285  12.156  0.4456  0.0377  0.2411
 3867TIP3    H133092   4.708   6.364  12.175 -0.7324 -1.0090  1.7540
 3867TIP3    H233093   4.774   6.288  12.062 -0.9782  1.2490  0.0100
 3868TIP3   OH233094   5.543   6.781  16.187 -0.3684 -0.6648 -0.2062
 3868TIP3    H133095   5.508   6.720  16.251 -0.3373 -1.2612 -0.7464
 3868TIP3    H233096   5.476   6.787  16.119  0.1766 -1.1208 -0.8023
 3869TIP3   OH233097   6.795   5.875  14.981  0.4463 -0.0238 -0.3996
 3869TIP3    H133098   6.804   5.957  15.031  0.2784 -0.7217  0.8027
 3869TIP3    H233099   6.735   5.822  15.032  2.0780 -1.6937 -0.1216
 3870TIP3   OH233100   5.834   1.165   1.762  0.7258 -0.2541 -0.1919
 3870TIP3    H133101   5.831   1.152   1.667  0.0714 -1.2789 -0.0469
 3870TIP3    H233102   5.829   1.260   1.773  0.7135 -0.1293 -1.1836
 3871TIP3   OH233103   5.356   5.929  11.700 -0.3836 -0.3445 -0.3740
 3871TIP3    H133104   5.280   5.958  11.651 -0.1261  0.8547 -0.0899
 3871TIP3    H233105   5.424   5.915  11.634 -0.4008  0.0827 -0.4832
 3872TIP3   OH233106   6.149   3.330   3.388 -0.0244  0.4392 -0.1226
 3872TIP3    H133107   6.237   3.309   3.417  0.5931  0.3787 -1.9784
 3872TIP3    H233108   6.154   3.420   3.356 -0.9531  0.8975  0.9243
 3873TIP3   OH233109   2.806   4.230   5.483  0.3510  0.5519 -0.5847
 3873TIP3    H133110   2.756   4.175   5.543 -0.3427 -0.1715 -1.7718
 3873TIP3    H233111   2.760   4.314   5.483 -1.4717 -0.3614 -2.3059
 3874TIP3   OH233112   4.623   2.185   1.876 -0.4668 -0.0563  0.2664
 3874TIP3    H133113   4.623   2.118   1.808 -1.3704 -0.8129  0.9949
 3874TIP3    H233114   4.641   2.138   1.957 -1.7358  0.4746  0.8778
 3875TIP3   OH233115   1.288   5.847  12.694 -0.3566 -0.0794  0.2378
 3875TIP3    H133116   1.325   5.760  12.712  0.3583  0.2144  0.2439
 3875TIP3    H233117   1.225   5.832  12.623  0.4814 -0.4601 -0.4594
 3876TIP3   OH233118   6.492   2.424  15.687 -0.0764  0.0521 -0.4266
 3876TIP3    H133119   6.533   2.408  15.772 -1.6241 -0.9814  0.1755
 3876TIP3    H233120   6.400   2.402  15.701 -0.5159  0.6653 -2.1634
 3877TIP3   OH233121   5.294   2.549  11.459  0.1219 -0.2001  0.4059
 3877TIP3    H133122   5.361   2.600  11.414  0.8412  0.1196  1.7933
 3877TIP3    H233123   5.317   2.457  11.442  0.1829 -0.0791 -0.1584
 3878TIP3   OH233124   1.560   4.885   3.015 -0.1708 -0.4112  0.0093
 3878TIP3    H133125   1.547   4.790   3.024  2.0626 -1.2814 -3.9638
 3878TIP3    H233126   1.630   4.905   3.078 -2.1389 -0.7777  2.5134
 3879TIP3   OH233127   0.373   2.496   2.268  0.6573 -0.5504  0.4132
 3879TIP3    H133128   0.314   2.490   2.343  0.7878 -2.5854  0.4299
 3879TIP3    H233129   0.445   2.551   2.298 -0.9545  1.5930  0.5461
 3880TIP3   OH233130   1.990   3.062  15.908 -0.1815  0.3729 -0.7278
 3880TIP3    H133131   2.014   3.060  15.815  2.2277 -1.0956 -0.1438
 3880TIP3    H233132   2.013   3.150  15.937 -1.9814  1.2316 -1.6926
 3881TIP3   OH233133   4.450   6.671  11.684  0.6982  0.6763  0.7431
 3881TIP3    H133134   4.483   6.732  11.618 -0.8969  0.5148 -0.2574
 3881TIP3    H233135   4.381   6.622  11.639 -0.3890  0.5013  2.4951
 3882TIP3   OH233136   0.626   1.326   1.672  0.5743  0.0865 -0.5140
 3882TIP3    H133137   0.547   1.278   1.645  0.0791  0.7518 -0.2907
 3882TIP3    H233138   0.624   1.323   1.768 -0.2247  1.6938 -0.4356
 3883TIP3   OH233139   1.460   0.515   3.002 -0.2347 -0.5174 -0.2107
 3883TIP3    H133140   1.415   0.598   2.986  0.3290 -0.3361 -0.8733
 3883TIP3    H233141   1.525   0.536   3.069  0.0302 -0.3889 -0.5116
 3884TIP3   OH233142   5.795   2.701   4.306  0.0278 -0.2556 -0.4848
 3884TIP3    H133143   5.768   2.636   4.241 -0.7116 -0.3344 -0.1120
 3884TIP3    H233144   5.728   2.696   4.374  0.2326  0.5429 -0.2122
 3885TIP3   OH233145   0.902   0.105  13.664 -0.1257 -0.2613 -0.1226
 3885TIP3    H133146   0.845   0.038  13.704  0.6585 -0.7226  0.2326
 3885TIP3    H233147   0.840   0.167  13.625 -0.9900  0.8916  2.8258
 3886TIP3   OH233148   3.857   4.635  13.898  0.3564 -0.5056 -0.5296
 3886TIP3    H133149   3.811   4.599  13.822  0.9109  1.3976 -1.8450
 3886TIP3    H233150   3.789   4.679  13.949  0.1473 -0.8832 -0.4786
 3887TIP3   OH233151   4.212   0.759   1.189  0.0236  0.0137  0.0072
 3887TIP3    H133152   4.264   0.829   1.227  1.1139 -1.2148  0.8778
 3887TIP3    H233153   4.198   0.786   1.098 -1.1029  2.1612  0.7533
 3888TIP3   OH233154   5.468   5.130  10.379  0.3144 -0.2593 -0.3237
 3888TIP3    H133155   5.512   5.194  10.434  0.0011  0.1411 -0.5351
 3888TIP3    H233156   5.536   5.100  10.318 -0.0178  1.4519 -1.6352
 3889TIP3   OH233157   0.375   0.714  14.846  0.2756 -0.2625  0.1696
 3889TIP3    H133158   0.470   0.715  14.850  0.3807 -2.1206 -0.8457
 3889TIP3    H233159   0.353   0.784  14.785  0.7504  2.0815  2.4926
 3890TIP3   OH233160   0.375   0.963  11.561 -0.1774  0.0729  0.3151
 3890TIP3    H133161   0.279   0.961  11.570 -0.1178  1.0438  1.6097
 3890TIP3    H233162   0.391   0.948  11.468 -1.6638  1.1902 -0.1681
 3891TIP3   OH233163   3.522   4.519  12.859  0.1205 -0.0700  0.9203
 3891TIP3    H133164   3.601   4.528  12.911 -0.3364  2.1018  1.3455
 3891TIP3    H233165   3.501   4.609  12.832  1.1668 -1.1055 -4.3426
 3892TIP3   OH233166   4.913   5.197   6.207 -0.0370 -0.6958 -0.1116
 3892TIP3    H133167   4.984   5.174   6.147  0.1581 -3.2420  0.9666
 3892TIP3    H233168   4.951   5.193   6.294 -0.4005  2.6549  0.3382
 3893TIP3   OH233169   2.243   1.967   1.486  0.0319  0.4069  0.0783
 3893TIP3    H133170   2.178   1.965   1.556 -0.3235  1.0594 -0.2236
 3893TIP3    H233171   2.284   2.053   1.494  1.1586 -0.1603  0.5238
 3894TIP3   OH233172   1.714   0.916  11.586 -0.1962  0.3320 -0.1659
 3894TIP3    H133173   1.732   0.822  11.582 -2.1669 -0.2269  2.0167
 3894TIP3    H233174   1.759   0.945  11.666  1.7854  1.6619 -1.6765
 3895TIP3   OH233175   0.877   3.504   5.542 -0.4366 -0.2426 -0.1753
 3895TIP3    H133176   0.857   3.485   5.451  0.4491 -1.3745 -0.1460
 3895TIP3    H233177   0.889   3.418   5.583 -3.0761  0.0919  1.5726
 3896TIP3   OH233178   4.381   4.905  15.916 -0.1354 -0.1955 -0.6412
 3896TIP3    H133179   4.404   4.814  15.933 -0.1655  0.1712  1.6848
 3896TIP3    H233180   4.462   4.945  15.885  0.0820 -0.8162 -0.8963
 3897TIP3   OH233181   3.429   4.450  14.290 -0.3373 -0.4187 -0.3881
 3897TIP3    H133182   3.340   4.430  14.321 -0.7857  0.5870 -0.9705
 3897TIP3    H233183   3.470   4.364  14.280 -0.1418 -0.8326  2.9420
 3898TIP3   OH233184   2.818   2.642   4.383 -0.3199  0.1676 -0.1425
 3898TIP3    H133185   2.759   2.704   4.340  1.4940  2.3404  0.2845
 3898TIP3    H233186   2.815   2.666   4.476 -0.6112 -1.3305  0.2685
 3899TIP3   OH233187   3.093   0.801   3.908  0.1641 -0.0993 -0.0854
 3899TIP3    H133188   3.150   0.726   3.890 -0.1160 -0.0240 -1.4361
 3899TIP3    H233189   3.024   0.795   3.841  0.2853  1.4988 -0.3996
 3900TIP3   OH233190   0.091   1.652  16.946 -0.2275 -0.1944 -0.6793
 3900TIP3    H133191   0.010   1.681  16.986  0.6449  1.6088 -0.1353
 3900TIP3    H233192   0.154   1.646  17.018  0.2110 -1.3553 -1.1207
 3901TIP3   OH233193   5.407   4.675  11.696  0.3246  0.4595 -0.3449
 3901TIP3    H133194   5.318   4.687  11.664  0.2382 -0.5796 -0.5431
 3901TIP3    H233195   5.445   4.608  11.638  1.3413  1.1158 -0.4719
 3902TIP3   OH233196   4.726   2.775   4.384  0.0602  0.0578  0.2707
 3902TIP3    H133197   4.664   2.848   4.378  0.5010  0.4324  0.2901
 3902TIP3    H233198   4.676   2.699   4.352  0.1514  0.6889 -1.4614
 3903TIP3   OH233199   5.399   4.973  11.641 -0.2884  0.2611  1.0142
 3903TIP3    H133200   5.314   4.996  11.679  0.3496  3.4296  0.7776
 3903TIP3    H233201   5.409   4.879  11.659 -2.7374  0.3121  3.1692
 3904TIP3   OH233202   5.107   2.120   4.399 -0.0664  0.0814 -0.0641
 3904TIP3    H133203   5.160   2.041   4.387 -0.0459  0.3214 -1.9632
 3904TIP3    H233204   5.170   2.192   4.399 -0.2794  0.2948 -1.3575
 3905TIP3   OH233205   5.714   2.771  15.589 -0.2733 -0.2513 -0.1832
 3905TIP3    H133206   5.698   2.796  15.498  0.2755  1.1134  0.0742
 3905TIP3    H233207   5.666   2.836  15.640 -0.1043 -0.6652  0.5115
 3906TIP3   OH233208   5.790   2.569   2.414  0.1950 -0.0114  1.1492
 3906TIP3    H133209   5.739   2.500   2.374 -0.2531  0.4744  0.8667
 3906TIP3    H233210   5.865   2.581   2.356 -2.0246  2.8812 -1.4511
 3907TIP3   OH233211   4.408   4.819  14.189 -0.2696 -0.4662  0.2714
 3907TIP3    H133212   4.503   4.820  14.205 -0.2093  0.9209 -0.0633
 3907TIP3    H233213   4.376   4.748  14.244  0.8558 -0.3919  1.0730
 3908TIP3   OH233214   4.361   2.256  15.909  0.0010 -0.0104  0.6362
 3908TIP3    H133215   4.427   2.234  15.974  0.7178 -0.7866 -0.3260
 3908TIP3    H233216   4.370   2.190  15.841 -0.4958  0.9616 -0.4228
 3909TIP3   OH233217   4.032   2.699   3.411  0.3522  0.2013 -0.0120
 3909TIP3    H133218   4.063   2.732   3.495  0.9028  0.9896 -0.5163
 3909TIP3    H233219   4.110   2.670   3.365 -0.1113 -1.9068  0.4226
 3910TIP3   OH233220   2.733   4.607  14.109  0.5889 -0.2789  0.3820
 3910TIP3    H133221   2.710   4.593  14.017  2.5414 -0.3471 -0.1388
 3910TIP3    H233222   2.708   4.526  14.152 -2.3737  0.5363  0.4029
 3911TIP3   OH233223   1.834   5.409  15.642 -0.1723  0.1960  0.6553
 3911TIP3    H133224   1.749   5.367  15.658 -1.7506  2.6963 -0.4042
 3911TIP3    H233225   1.827   5.494  15.686  1.9429  0.3276  0.8225
 3912TIP3   OH233226   0.392   3.043  13.509 -0.6390  0.3750  0.6811
 3912TIP3    H133227   0.373   3.072  13.598 -0.5834  1.7486  0.2743
 3912TIP3    H233228   0.380   2.948  13.511  0.0851  0.2851  2.3303
 3913TIP3   OH233229   3.626   6.519  12.456 -0.3106  0.3526  0.0740
 3913TIP3    H133230   3.693   6.577  12.421 -0.2197  0.4755  0.4463
 3913TIP3    H233231   3.597   6.561  12.537  0.4645 -0.6010  0.8782
 3914TIP3   OH233232   4.782   4.802  12.416  0.5535  0.0891 -0.4119
 3914TIP3    H133233   4.858   4.855  12.438 -1.5981  2.1226  3.0116
 3914TIP3    H233234   4.746   4.843  12.337  1.2314  1.1259 -0.1933
 3915TIP3   OH233235   4.339   2.341  14.861  0.0473 -0.0578 -0.2288
 3915TIP3    H133236   4.368   2.284  14.933  1.4146  0.3249 -0.4478
 3915TIP3    H233237   4.338   2.284  14.784 -1.4755 -0.4826  0.0842
 3916TIP3   OH233238   2.924   0.500  12.701 -0.1585 -0.0185 -0.0898
 3916TIP3    H133239   2.832   0.506  12.728 -0.5807 -1.1810 -1.1869
 3916TIP3    H233240   2.943   0.407  12.701  0.4578  0.0711 -1.6286
 3917TIP3   OH233241   5.793   3.313   4.308 -1.0570 -0.2371  0.4003
 3917TIP3    H133242   5.729   3.324   4.237 -0.9221  0.3384  0.3681
 3917TIP3    H233243   5.872   3.357   4.277 -0.6030 -1.0391  0.4000
 3918TIP3   OH233244   4.339   0.407   4.580 -0.5851 -1.0349 -0.1613
 3918TIP3    H133245   4.292   0.422   4.661 -2.0051  1.7197 -1.3924
 3918TIP3    H233246   4.271   0.382   4.517 -0.6155  2.8137 -1.9178
 3919TIP3   OH233247   4.124   1.484   4.066 -0.5356  0.1015  0.5703
 3919TIP3    H133248   4.075   1.443   3.995  1.5490  0.8847 -1.4298
 3919TIP3    H233249   4.183   1.545   4.022  0.5316  0.9643  3.0369
 3920TIP3   OH233250   6.082   3.065  12.576 -0.1426  0.2470  0.0394
 3920TIP3    H133251   6.067   3.157  12.556 -1.0082  0.3882  1.2403
 3920TIP3    H233252   6.019   3.045  12.646  1.5583 -0.6404  1.3946
 3921TIP3   OH233253   0.466   1.167   1.463  0.0649  0.1077 -0.5082
 3921TIP3    H133254   0.467   1.256   1.429 -0.2910  0.3710  0.1496
 3921TIP3    H233255   0.519   1.117   1.401 -1.8488  0.2294 -2.3666
 3922TIP3   OH233256   0.756   6.119   4.789  0.2622 -0.0597 -0.1695
 3922TIP3    H133257   0.667   6.089   4.770  0.5324 -0.9911 -0.0467
 3922TIP3    H233258   0.777   6.079   4.874  0.8548  0.0076 -0.2761
 3923TIP3   OH233259   4.495   6.210  13.149  0.4425 -0.1739  0.0218
 3923TIP3    H133260   4.402   6.217  13.170  0.4833 -0.1327  0.1872
 3923TIP3    H233261   4.540   6.248  13.224  0.5509  1.2857 -0.7512
 3924TIP3   OH233262   5.748   0.491   1.717  0.6851  0.6050  0.2098
 3924TIP3    H133263   5.733   0.586   1.717 -0.7205  0.4190  1.5363
 3924TIP3    H233264   5.720   0.463   1.630  0.8740  1.3718 -0.1098
 3925TIP3   OH233265   2.749   5.625  11.269  0.1651  0.5348  0.3932
 3925TIP3    H133266   2.783   5.583  11.348  0.5842  0.5328  0.2141
 3925TIP3    H233267   2.746   5.555  11.204 -0.3222  0.5025  0.4496
 3926TIP3   OH233268   2.100   0.730  13.743 -0.4952  0.0546  0.0158
 3926TIP3    H133269   2.126   0.676  13.669 -1.9861 -2.2429  1.0622
 3926TIP3    H233270   2.152   0.697  13.816 -1.0170  0.4413  0.5694
 3927TIP3   OH233271   4.654   1.933  11.497 -0.1313 -1.0620 -0.2264
 3927TIP3    H133272   4.707   1.942  11.576 -0.1051  1.8285 -0.4705
 3927TIP3    H233273   4.565   1.920  11.530 -0.2732  1.0573  0.3878
 3928TIP3   OH233274   5.929   1.517  15.615  0.0115 -0.1704  0.5276
 3928TIP3    H133275   5.958   1.567  15.691  3.3114  0.6771 -1.1055
 3928TIP3    H233276   5.962   1.428  15.631 -2.0081 -0.8306  1.3966
 3929TIP3   OH233277   5.175   3.486   4.274 -0.1295 -0.0343 -0.7083
 3929TIP3    H133278   5.112   3.479   4.203 -0.3503  0.9141 -0.6284
 3929TIP3    H233279   5.146   3.563   4.323  0.4402 -0.2527 -0.0166
 3930TIP3   OH233280   5.769   1.298  10.813  0.9319 -0.6231  0.4050
 3930TIP3    H133281   5.794   1.241  10.740  2.8992  0.0996  0.4686
 3930TIP3    H233282   5.685   1.263  10.842  1.7098 -3.0694 -0.0134
 3931TIP3   OH233283   4.127   6.797  16.659  0.3003  0.2654 -0.5183
 3931TIP3    H133284   4.078   6.811  16.740  1.0349  0.1481 -0.0454
 3931TIP3    H233285   4.197   6.736  16.683 -0.5543 -1.2112 -1.6709
 3932TIP3   OH233286   2.579   5.627  12.063 -0.1022  0.0225  0.5347
 3932TIP3    H133287   2.549   5.580  11.985  0.9025  0.4906 -0.1595
 3932TIP3    H233288   2.674   5.617  12.062  0.0799  1.4516  0.7353
 3933TIP3   OH233289   0.404   1.776  13.994  0.5302  0.6221 -0.5144
 3933TIP3    H133290   0.315   1.753  13.967  0.4617  0.1990  0.0505
 3933TIP3    H233291   0.392   1.827  14.074  0.8099 -0.0446 -0.0330
 3934TIP3   OH233292   5.173   2.173   2.663 -0.1533 -0.3203 -1.0516
 3934TIP3    H133293   5.206   2.112   2.597 -0.5547 -1.4402 -0.2461
 3934TIP3    H233294   5.146   2.117   2.736 -2.0353  0.6918 -0.9102
 3935TIP3   OH233295   1.191   2.701   3.893 -0.1615 -0.0503 -0.2556
 3935TIP3    H133296   1.231   2.639   3.953  0.4501  0.1054 -0.4880
 3935TIP3    H233297   1.103   2.714   3.926  0.5171  0.8803  1.2445
 3936TIP3   OH233298   1.957   0.719  15.746  0.3267 -0.6317  0.0527
 3936TIP3    H133299   2.016   0.794  15.753  0.4781 -0.7430 -0.0199
 3936TIP3    H233300   1.871   0.758  15.732  0.4036 -0.4700  0.0224
 3937TIP3   OH233301   1.239   0.001   1.415 -0.2105  0.3240  0.1957
 3937TIP3    H133302   1.226   0.090   1.448 -0.5438  0.8392 -1.2740
 3937TIP3    H233303   1.255  -0.051   1.494 -0.1481  1.6506  1.0927
 3938TIP3   OH233304   2.137   1.942  16.395 -0.2486  0.2300  0.5998
 3938TIP3    H133305   2.180   1.976  16.317  1.6052  1.0255  1.8986
 3938TIP3    H233306   2.167   1.851  16.400 -2.4936 -0.6997 -0.9910
 3939TIP3   OH233307   0.795   6.089   2.283 -0.1886  0.1444 -0.3082
 3939TIP3    H133308   0.714   6.114   2.240 -0.4848 -2.3061 -1.3420
 3939TIP3    H233309   0.864   6.129   2.230 -0.6497  2.2956  0.6169
 3940TIP3   OH233310   5.303   1.469   2.097  0.6025  0.0735 -0.4580
 3940TIP3    H133311   5.286   1.381   2.061 -1.1147  0.6375 -1.1316
 3940TIP3    H233312   5.289   1.528   2.023  1.0590  0.9806  0.1604
 3941TIP3   OH233313   1.931   0.332  14.968  0.2842  0.1167 -0.1587
 3941TIP3    H133314   2.024   0.318  14.986 -0.1805 -1.4538  1.3426
 3941TIP3    H233315   1.915   0.288  14.884  0.7025 -0.5726  0.1137
 3942TIP3   OH233316   4.566   6.791  16.618 -0.1429 -1.0128 -0.6617
 3942TIP3    H133317   4.535   6.861  16.560 -2.0258 -0.0875  1.3455
 3942TIP3    H233318   4.524   6.808  16.702  1.9542 -2.6759  0.8582
 3943TIP3   OH233319   3.628   0.505   1.288 -0.0257  0.5086  0.0293
 3943TIP3    H133320   3.593   0.430   1.241  1.5155  0.8368 -1.7175
 3943TIP3    H233321   3.692   0.468   1.348 -1.1677  0.2118  1.1202
 3944TIP3   OH233322   2.570   5.940  11.977 -0.5183  0.1140  0.3135
 3944TIP3    H133323   2.642   5.896  11.931  1.4155  2.8664  0.4568
 3944TIP3    H233324   2.498   5.877  11.975  0.6060 -1.3394 -3.2680
 3945TIP3   OH233325   4.791   1.496  12.617 -0.1071 -0.3676  0.2068
 3945TIP3    H133326   4.800   1.434  12.545  0.6371 -0.0853  0.0448
 3945TIP3    H233327   4.697   1.511  12.624 -0.1990 -0.4983 -0.6224
 3946TIP3   OH233328   3.758   1.830  16.446 -0.0249 -0.2050 -0.2269
 3946TIP3    H133329   3.803   1.828  16.531  1.1176  2.1969 -0.6858
 3946TIP3    H233330   3.667   1.810  16.467  0.1595  0.6645  1.6465
 3947TIP3   OH233331   0.708   2.809   4.497  0.2395  0.6709  0.1503
 3947TIP3    H133332   0.675   2.726   4.532  0.7464  0.5030  0.2506
 3947TIP3    H233333   0.800   2.791   4.478  0.5751  1.4513  0.9599
 3948TIP3   OH233334   3.922   1.016   1.574  0.0245  0.6308 -0.7662
 3948TIP3    H133335   3.862   1.074   1.526  0.5341  1.4218 -0.4676
 3948TIP3    H233336   3.960   1.072   1.642 -0.3321 -0.3486  0.2821
 3949TIP3   OH233337   4.379   5.162  11.789  0.0562 -0.0603  0.4771
 3949TIP3    H133338   4.287   5.155  11.818  0.5882 -1.3585  1.9908
 3949TIP3    H233339   4.388   5.253  11.761 -1.4351  0.3743  1.2949
 3950TIP3   OH233340   1.948   1.407   0.904 -0.3992 -0.0220 -0.3208
 3950TIP3    H133341   1.987   1.344   0.965 -0.1981 -1.2964 -1.6884
 3950TIP3    H233342   1.866   1.433   0.945  0.2869  0.1114  1.0390
 3951TIP3   OH233343   6.186   2.512  14.773  0.8341  0.2716 -0.0258
 3951TIP3    H133344   6.094   2.525  14.748  0.0077 -0.3809  2.3875
 3951TIP3    H233345   6.195   2.418  14.784  1.5346  0.3998  0.6022
 3952TIP3   OH233346   1.766   2.076   2.984  0.2215  0.0448  0.3244
 3952TIP3    H133347   1.738   2.001   3.036 -1.0596  1.8548  2.4291
 3952TIP3    H233348   1.709   2.148   3.013  2.5404  2.2720 -0.2545
 3953TIP3   OH233349   4.732   1.988  12.742  0.0742 -0.0301  0.7809
 3953TIP3    H133350   4.739   2.083  12.736 -0.2941  0.0831  1.9573
 3953TIP3    H233351   4.797   1.963  12.808  1.3403 -0.7920 -0.6750
 3954TIP3   OH233352   1.211   4.434  12.332  0.2364 -0.1603  0.2672
 3954TIP3    H133353   1.246   4.369  12.392  0.4861  0.1830  0.5002
 3954TIP3    H233354   1.215   4.516  12.381 -1.1518 -0.1508  0.3934
 3955TIP3   OH233355   1.412   5.475   0.730  0.3677 -0.0262  0.4609
 3955TIP3    H133356   1.420   5.383   0.706  2.3956 -0.3113  1.8989
 3955TIP3    H233357   1.436   5.523   0.651  2.3421 -0.8353  0.5015
 3956TIP3   OH233358   5.760   4.325   3.070  0.2407  0.4126 -0.6184
 3956TIP3    H133359   5.743   4.413   3.036 -0.7121  0.4628 -0.0300
 3956TIP3    H233360   5.809   4.281   3.000  2.1167  1.8897 -0.3259
 3957TIP3   OH233361   1.738   2.520  15.702  0.1135 -0.2284 -0.0496
 3957TIP3    H133362   1.712   2.510  15.611 -2.7928 -0.2490  0.6610
 3957TIP3    H233363   1.760   2.431  15.731 -0.1936 -0.4277 -0.4184
 3958TIP3   OH233364   2.359   4.452  14.598  0.2820  0.2010 -0.5739
 3958TIP3    H133365   2.272   4.456  14.638  1.1564 -0.8508  1.6044
 3958TIP3    H233366   2.392   4.365  14.621  1.1510 -0.2249 -3.1275
 3959TIP3   OH233367   0.126   1.636   1.139  0.2315 -0.5310  0.1472
 3959TIP3    H133368   0.065   1.593   1.199 -0.7684  1.1698  0.3993
 3959TIP3    H233369   0.080   1.638   1.056 -1.0831  2.6659  0.8178
 3960TIP3   OH233370   4.626   2.387   2.647 -0.0091 -0.0850 -0.1727
 3960TIP3    H133371   4.623   2.463   2.705  0.2529 -1.3312  1.5779
 3960TIP3    H233372   4.717   2.358   2.650 -0.2825 -0.9810 -0.0680
 3961TIP3   OH233373   2.876   6.427  16.956  0.5322 -0.5025  0.5511
 3961TIP3    H133374   2.831   6.444  17.039  0.8644 -1.2461  0.8861
 3961TIP3    H233375   2.965   6.458  16.970  0.9408 -1.7823  0.9164
 3962TIP3   OH233376   3.811   2.648   4.497  0.2850  0.2367  0.2704
 3962TIP3    H133377   3.852   2.640   4.410  0.6921  1.3687  0.3340
 3962TIP3    H233378   3.878   2.688   4.551 -0.4785  0.9539  0.7101
 3963TIP3   OH233379   5.138   2.199  15.505  0.6571 -0.3450  0.2295
 3963TIP3    H133380   5.123   2.263  15.574  1.2639 -1.6061  1.5861
 3963TIP3    H233381   5.057   2.149  15.501  0.9771 -0.9202  0.7577
 3964TIP3   OH233382   2.880   5.737  13.894 -0.0276 -0.3923  0.5048
 3964TIP3    H133383   2.876   5.796  13.818 -0.2431 -0.5983  0.3564
 3964TIP3    H233384   2.953   5.771  13.946  0.0432 -0.1742  0.2682
 3965TIP3   OH233385   3.437   3.567   1.487  0.1749 -0.2932 -0.2172
 3965TIP3    H133386   3.430   3.624   1.564 -0.6214 -1.1464  0.3679
 3965TIP3    H233387   3.456   3.481   1.523  1.2403 -0.4380 -1.0864
 3966TIP3   OH233388   4.413   1.977   0.001 -0.2504 -0.4681 -0.3147
 3966TIP3    H133389   4.373   1.978  -0.086 -3.2458 -0.1652  0.9225
 3966TIP3    H233390   4.363   2.042   0.051  1.3129 -0.6891  1.6638
 3967TIP3   OH233391   3.965   1.733   4.333 -0.0845  0.2999  0.2435
 3967TIP3    H133392   3.950   1.639   4.340 -1.7749  0.3455 -1.9277
 3967TIP3    H233393   3.880   1.773   4.350  0.1879  1.3152 -0.6338
 3968TIP3   OH233394   0.915   2.720  14.129  0.2546 -0.3440  0.2383
 3968TIP3    H133395   0.821   2.735  14.126  0.0711 -1.4866 -0.8686
 3968TIP3    H233396   0.954   2.807  14.123 -0.7423  0.0111 -2.5439
 3969TIP3   OH233397   6.333   4.717  16.558 -0.3125  0.9291 -0.2639
 3969TIP3    H133398   6.409   4.767  16.530 -1.6169  2.0258 -2.0927
 3969TIP3    H233399   6.272   4.783  16.591 -1.3909  0.3950 -1.1069
 3970TIP3   OH233400   4.826   2.994   2.885  0.2172  0.2936 -0.6342
 3970TIP3    H133401   4.863   2.964   2.802 -0.9288 -0.8580 -0.7755
 3970TIP3    H233402   4.874   2.945   2.952  1.5022  1.6108 -0.5539
 3971TIP3   OH233403   6.751   2.763  11.783 -0.3783 -0.0031 -0.1974
 3971TIP3    H133404   6.683   2.824  11.752 -0.3660 -0.7838 -1.8856
 3971TIP3    H233405   6.709   2.715  11.855 -1.3250  0.1209 -0.6519
 3972TIP3   OH233406   6.233   1.663  12.884 -0.3323 -0.2115  0.7600
 3972TIP3    H133407   6.140   1.686  12.877  0.1895  2.1128  0.4500
 3972TIP3    H233408   6.278   1.725  12.826  1.3848 -1.7250  0.3611
 3973TIP3   OH233409   0.851   5.262   4.958  0.4676  0.5320  0.0536
 3973TIP3    H133410   0.761   5.253   4.989 -0.1404 -0.3668 -1.8286
 3973TIP3    H233411   0.848   5.334   4.896  0.3809 -1.2717 -2.1448
 3974TIP3   OH233412   4.718   0.221   5.439 -0.3775 -0.1014 -0.1735
 3974TIP3    H133413   4.679   0.309   5.438  0.2741  0.1936 -1.7811
 3974TIP3    H233414   4.654   0.165   5.395 -0.1530 -0.1358 -0.4600
 3975TIP3   OH233415   5.627   4.672  12.065 -0.1551  0.8545  0.0587
 3975TIP3    H133416   5.594   4.583  12.062 -0.9176  1.1498 -0.6123
 3975TIP3    H233417   5.717   4.664  12.097 -0.0151 -0.1993 -0.5909
 3976TIP3   OH233418   0.664   1.019   1.312  0.1578 -0.6004 -0.2753
 3976TIP3    H133419   0.662   0.978   1.399  0.9031 -0.9565 -0.4207
 3976TIP3    H233420   0.757   1.028   1.292  0.0344  1.4222 -0.1447
 3977TIP3   OH233421   4.423   1.176  14.564 -0.4359  0.0372  0.6152
 3977TIP3    H133422   4.419   1.084  14.538  2.7759  0.3360 -1.4600
 3977TIP3    H233423   4.470   1.176  14.647  0.7314 -0.1384 -0.0353
 3978TIP3   OH233424   2.683   4.270   3.101  0.6858  0.1858  0.8541
 3978TIP3    H133425   2.636   4.188   3.089 -1.6019  1.7351 -2.0405
 3978TIP3    H233426   2.644   4.309   3.179 -0.7114  0.0397  0.2559
 3979TIP3   OH233427   1.091   5.700   5.874  0.1826 -0.0250 -0.2454
 3979TIP3    H133428   1.141   5.779   5.858  0.6895 -0.1348  0.7099
 3979TIP3    H233429   1.040   5.719   5.953  1.7723 -1.2716  1.1691
 3980TIP3   OH233430   3.854   0.422  11.150 -0.1904  0.0308  0.3889
 3980TIP3    H133431   3.787   0.400  11.215 -0.0173 -0.0822  0.5305
 3980TIP3    H233432   3.869   0.340  11.102 -2.3868  0.7547 -1.7356
 3981TIP3   OH233433   6.077   5.643  10.771  0.0009 -0.1670 -0.4209
 3981TIP3    H133434   6.140   5.672  10.837  0.4284  1.1861 -1.3812
 3981TIP3    H233435   6.012   5.713  10.767 -0.2278 -0.4089 -1.1463
 3982TIP3   OH233436   2.519   0.586   5.626  0.4391  0.7313  0.0940
 3982TIP3    H133437   2.519   0.517   5.560  0.4503  2.5257 -1.8875
 3982TIP3    H233438   2.498   0.541   5.708 -1.1657 -1.3659 -1.3619
 3983TIP3   OH233439   6.476   6.610  10.578  0.2402  0.3735  0.4377
 3983TIP3    H133440   6.502   6.686  10.526 -1.8358  0.3527 -0.7782
 3983TIP3    H233441   6.432   6.646  10.654  1.4788  0.3834  1.1679
 3984TIP3   OH233442   4.024   1.769   1.819 -0.0241 -0.0016 -0.0689
 3984TIP3    H133443   4.040   1.852   1.775  0.7807 -0.7684 -1.3059
 3984TIP3    H233444   3.936   1.743   1.791  0.0880  0.0012 -0.4263
 3985TIP3   OH233445   3.013   0.837  14.200  0.1245  0.1094  0.8433
 3985TIP3    H133446   3.101   0.802  14.190  0.4892  1.2819 -0.3016
 3985TIP3    H233447   2.977   0.791  14.276  2.4832  1.1506  2.7233
 3986TIP3   OH233448   1.745   0.737   0.678  0.9333 -0.3025 -0.1511
 3986TIP3    H133449   1.834   0.772   0.684  0.2261  1.4277  1.0676
 3986TIP3    H233450   1.726   0.736   0.584  1.4193  1.5654 -0.3113
 3987TIP3   OH233451   1.703   2.087   6.188 -0.5419 -0.3515  0.2748
 3987TIP3    H133452   1.678   2.010   6.240  1.3334 -0.4897  1.0500
 3987TIP3    H233453   1.668   2.161   6.238 -1.8964 -0.6264 -0.2037
 3988TIP3   OH233454   5.565   1.728  12.308 -0.1611 -0.2045 -0.6117
 3988TIP3    H133455   5.570   1.656  12.245 -0.2193 -1.5386  0.8250
 3988TIP3    H233456   5.500   1.788  12.272  1.8637  0.5908 -3.2212
 3989TIP3   OH233457   2.956   3.080   0.940  0.1740  0.3178  0.3925
 3989TIP3    H133458   3.038   3.128   0.930  0.1551  0.4462  0.8311
 3989TIP3    H233459   2.893   3.146   0.968  0.1622  0.0296  1.0610
 3990TIP3   OH233460   5.892   3.276   2.220  0.1762 -0.4801  0.4579
 3990TIP3    H133461   5.805   3.237   2.221 -0.5836  1.1276 -0.3594
 3990TIP3    H233462   5.904   3.310   2.309 -0.1842 -0.3444  0.4529
 3991TIP3   OH233463   1.319   5.699  14.108 -0.3405 -0.1655 -0.0637
 3991TIP3    H133464   1.309   5.658  14.194 -0.3674 -0.8477 -0.3787
 3991TIP3    H233465   1.338   5.791  14.127 -0.1305 -0.3489  0.6718
 3992TIP3   OH233466   5.641   0.846   3.222 -0.2069 -0.2503 -0.1195
 3992TIP3    H133467   5.565   0.896   3.191 -1.3835 -1.6766  0.3644
 3992TIP3    H233468   5.649   0.870   3.315  2.3896  2.8534 -0.9454
 3993TIP3   OH233469   5.394   1.640   1.875  0.1353  0.0280  0.4812
 3993TIP3    H133470   5.432   1.676   1.955 -0.2161 -1.5075  1.3765
 3993TIP3    H233471   5.379   1.717   1.819  4.2340  0.7771  0.1562
 3994TIP3   OH233472   5.938   6.332  15.241 -0.8775 -0.0036  0.0513
 3994TIP3    H133473   5.954   6.343  15.334  0.5685  1.6047 -0.3306
 3994TIP3    H233474   5.923   6.238  15.230  0.6154 -0.4752  1.6600
 3995TIP3   OH233475   5.691   0.699   2.951 -0.8175 -0.1984  0.2727
 3995TIP3    H133476   5.753   0.640   2.993  0.2698 -0.1185 -1.1610
 3995TIP3    H233477   5.613   0.695   3.006  0.5601 -0.0408  2.3263
 3996TIP3   OH233478   6.046   6.616  13.810 -0.0869  0.8893  0.2970
 3996TIP3    H133479   5.966   6.668  13.816 -0.1026  0.8478  0.4635
 3996TIP3    H233480   6.102   6.650  13.880 -0.7126 -0.3707  1.4531
 3997TIP3   OH233481   3.292   3.372   1.273 -0.5249 -0.0136  0.2664
 3997TIP3    H133482   3.298   3.448   1.330 -0.8824  2.1044 -2.3295
 3997TIP3    H233483   3.382   3.351   1.250 -0.4650  0.2638  0.2447
 3998TIP3   OH233484   0.975   3.129  12.125  0.1929 -0.3152 -0.0337
 3998TIP3    H133485   1.038   3.199  12.105  0.5060  0.2586  2.5646
 3998TIP3    H233486   0.892   3.162  12.091  0.6162  0.6262 -0.2115
 3999TIP3   OH233487   1.292   0.750   3.013 -0.0265 -0.3900  0.6530
 3999TIP3    H133488   1.253   0.817   2.957 -1.1155 -0.5469  1.1958
 3999TIP3    H233489   1.333   0.798   3.085  0.5832 -0.2404  0.2200
 4000TIP3   OH233490   2.866   5.917   0.152  0.2680  0.4936 -0.3368
 4000TIP3    H133491   2.865   5.962   0.237 -0.7894 -0.9120  0.4249
 4000TIP3    H233492   2.830   5.982   0.091  0.0334  1.1502  0.4730
 4001TIP3   OH233493   4.416   4.720  14.950  0.2383  0.3386  0.3929
 4001TIP3    H133494   4.390   4.786  15.014 -1.0106  0.9171 -0.6772
 4001TIP3    H233495   4.446   4.771  14.874  1.1635 -0.3386  0.2774
 4002TIP3   OH233496   3.430   0.369  16.096  0.0612  0.2174 -0.3600
 4002TIP3    H133497   3.404   0.456  16.067 -0.1267 -0.0866 -1.1215
 4002TIP3    H233498   3.525   0.366  16.083 -0.0939 -0.1178 -1.5215
 4003TIP3   OH233499   4.308   4.042   1.462  0.5227  0.5262 -0.0713
 4003TIP3    H133500   4.384   4.061   1.407  1.0903 -1.4462 -0.0504
 4003TIP3    H233501   4.247   3.997   1.404  1.0937 -1.5046  0.8031
 4004TIP3   OH233502   4.545   6.759  15.202 -0.2001 -0.0193  0.1832
 4004TIP3    H133503   4.457   6.778  15.171 -0.0556  0.5732  0.1112
 4004TIP3    H233504   4.572   6.839  15.248  0.2217 -0.2661  0.3732
 4005TIP3   OH233505   3.236   1.638   0.774 -0.1228  0.7107  0.2704
 4005TIP3    H133506   3.279   1.694   0.838  0.7582  0.6031 -0.2080
 4005TIP3    H233507   3.305   1.615   0.712 -0.3001 -1.4902  0.8384
 4006TIP3   OH233508   2.437   3.810  14.286 -0.3128 -0.1688  0.1872
 4006TIP3    H133509   2.473   3.789  14.372  3.2308 -1.1107 -1.3586
 4006TIP3    H233510   2.468   3.740  14.229 -2.2908  0.5915 -1.9582
 4007TIP3   OH233511   2.324   5.198   0.856  0.0948  0.1305  0.3667
 4007TIP3    H133512   2.286   5.194   0.768  0.1772 -2.8962  0.3716
 4007TIP3    H233513   2.405   5.146   0.849  0.6855  0.7867  1.9799
 4008TIP3   OH233514   2.790   4.103   0.226  0.0255 -0.5236  1.2912
 4008TIP3    H133515   2.854   4.159   0.183 -1.7046 -0.3220 -1.2195
 4008TIP3    H233516   2.826   4.015   0.218  0.7907 -0.2447  1.5302
 4009TIP3   OH233517   6.615   1.065   5.787  0.1386 -0.3014  0.0393
 4009TIP3    H133518   6.608   1.061   5.692  1.0797  2.1056 -0.1841
 4009TIP3    H233519   6.530   1.034   5.819 -1.2284  1.4842 -1.6836
 4010TIP3   OH233520   3.001   0.231  13.591 -0.3364  0.1603 -0.1265
 4010TIP3    H133521   3.082   0.243  13.642 -1.4712  0.2692  1.7256
 4010TIP3    H233522   2.950   0.310  13.609 -0.8348  0.1413 -1.3779
 4011TIP3   OH233523   1.455   4.397  11.666 -0.1656  0.8546 -0.1645
 4011TIP3    H133524   1.517   4.365  11.602 -0.2633 -0.4787  0.3750
 4011TIP3    H233525   1.438   4.322  11.723 -4.5378  0.1265 -2.0081
 4012TIP3   OH233526   0.246   4.756   0.908  0.4177  0.2568 -0.1909
 4012TIP3    H133527   0.302   4.830   0.885 -0.2528  2.2750  3.8842
 4012TIP3    H233528   0.303   4.680   0.901  2.0377  1.5146 -1.4422
 4013TIP3   OH233529   4.518   3.192   0.011 -0.4180  0.2116 -0.5196
 4013TIP3    H133530   4.468   3.271  -0.013 -0.5920 -0.3393 -2.0652
 4013TIP3    H233531   4.535   3.148  -0.072  0.6873 -0.7959  0.2130
 4014TIP3   OH233532   4.229   3.374  15.438 -0.1365  0.7147 -0.6173
 4014TIP3    H133533   4.141   3.354  15.407 -1.4740  0.2358  3.0160
 4014TIP3    H233534   4.221   3.459  15.480  0.6515 -0.0354  1.1654
 4015TIP3   OH233535   1.160   3.902  16.605  0.2178  0.0407 -0.0893
 4015TIP3    H133536   1.234   3.898  16.666  0.4962  1.5498 -0.2889
 4015TIP3    H233537   1.107   3.825  16.626  1.3389 -0.5345  0.7134
 4016TIP3   OH233538   0.803   3.131   1.017  0.2355 -0.0078 -0.7043
 4016TIP3    H133539   0.710   3.115   1.003  0.1775 -1.3825  0.9811
 4016TIP3    H233540   0.841   3.133   0.929 -1.1535 -0.9177 -1.3475
 4017TIP3   OH233541   3.800   6.709   1.200  0.0706 -0.2544 -0.2088
 4017TIP3    H133542   3.869   6.657   1.241  1.1986  0.1246 -1.5608
 4017TIP3    H233543   3.749   6.744   1.274  0.8697 -1.1288  0.7864
 4018TIP3   OH233544   4.794   1.258  17.022 -0.6555  0.4021  0.2748
 4018TIP3    H133545   4.776   1.256  17.116 -0.4918 -0.0344  0.3001
 4018TIP3    H233546   4.714   1.293  16.983 -1.2216 -0.6114  0.4724
 4019TIP3   OH233547   6.641   6.287  13.325  0.0070 -0.1580  0.3744
 4019TIP3    H133548   6.560   6.292  13.273  0.5701  2.4952 -0.3716
 4019TIP3    H233549   6.618   6.330  13.407  0.9825  2.0001 -0.4075
 4020TIP3   OH233550   0.812   2.653  15.056  0.3346 -0.2135 -0.1955
 4020TIP3    H133551   0.801   2.721  14.990  3.0465  1.6310  1.0932
 4020TIP3    H233552   0.733   2.658  15.109 -0.2626  0.7393 -1.1372
 4021TIP3   OH233553   1.537   4.712  15.736  0.7334 -0.2654 -0.4003
 4021TIP3    H133554   1.509   4.660  15.660  2.9279 -0.3549 -1.2314
 4021TIP3    H233555   1.628   4.735  15.716  0.8035  1.2296  1.4177
 4022TIP3   OH233556   0.491   5.908   2.531  0.2949  0.1054  0.1857
 4022TIP3    H133557   0.443   5.895   2.613  2.0430  0.5510  1.3204
 4022TIP3    H233558   0.473   5.828   2.480  0.8400 -1.1514  1.8776
 4023TIP3   OH233559   4.761   5.065  14.703 -0.3344  0.1581  0.5333
 4023TIP3    H133560   4.771   5.152  14.744 -0.1968  0.6845 -0.5908
 4023TIP3    H233561   4.849   5.028  14.706 -0.1009  0.6281 -0.2073
 4024TIP3   OH233562   2.102   4.382   0.204 -0.1634 -0.2414 -0.0933
 4024TIP3    H133563   2.146   4.401   0.287  0.9029 -1.6037 -0.3039
 4024TIP3    H233564   2.094   4.287   0.203 -0.1670 -0.2452 -1.5365
 4025TIP3   OH233565   3.357   3.963   4.711 -0.8050 -0.2918  0.2569
 4025TIP3    H133566   3.312   3.988   4.791  0.0591  0.6673  0.4732
 4025TIP3    H233567   3.402   3.881   4.732 -0.7886 -0.1758  0.6778
 4026TIP3   OH233568   1.932   2.075  14.918  0.1939 -0.2219 -0.4335
 4026TIP3    H133569   1.957   2.034  14.836 -0.4916 -2.4924  0.4157
 4026TIP3    H233570   2.007   2.060  14.976  0.9213  1.8669 -0.7167
 4027TIP3   OH233571   3.472   3.174   3.822  0.0331  0.2220 -0.4522
 4027TIP3    H133572   3.518   3.188   3.739 -0.4557 -1.2535 -1.0054
 4027TIP3    H233573   3.386   3.142   3.797 -0.7813  1.4663  0.6135
 4028TIP3   OH233574   3.818   4.406   5.641 -0.1749  0.1496 -0.2412
 4028TIP3    H133575   3.784   4.336   5.698 -1.4569  0.6734 -0.3501
 4028TIP3    H233576   3.907   4.377   5.621  0.1749 -0.2796  1.6624
 4029TIP3   OH233577   3.392   1.304  11.477 -0.2814 -0.3077  0.7234
 4029TIP3    H133578   3.325   1.357  11.433  1.3697  1.1608 -0.1415
 4029TIP3    H233579   3.432   1.254  11.406 -0.5393 -1.3020  1.2639
 4030TIP3   OH233580   4.963   1.567   1.146  0.0093  0.0101  0.5925
 4030TIP3    H133581   4.927   1.594   1.230  0.2705 -1.0250  1.0496
 4030TIP3    H233582   5.012   1.644   1.116  0.7093  0.0820  1.8466
 4031TIP3   OH233583   3.659   2.785  14.766 -0.3791 -0.2376  0.3211
 4031TIP3    H133584   3.615   2.846  14.825  0.4810  1.9278 -1.1709
 4031TIP3    H233585   3.731   2.749  14.818  0.0447  1.2280  0.7776
 4032TIP3   OH233586   0.402   3.945   1.594 -0.2756  0.7801 -0.0454
 4032TIP3    H133587   0.393   3.856   1.629 -3.8061  0.2842 -1.7605
 4032TIP3    H233588   0.425   3.999   1.670 -1.0336 -1.1780  1.6683
 4033TIP3   OH233589   0.587   4.384   3.948  0.3215 -0.8656  0.0731
 4033TIP3    H133590   0.584   4.291   3.970 -0.8633 -0.6731  0.8168
 4033TIP3    H233591   0.641   4.388   3.869  1.1099 -2.0771  0.5192
 4034TIP3   OH233592   6.517   0.069   3.708 -0.5245  0.2345  0.3997
 4034TIP3    H133593   6.478   0.097   3.625  1.2311 -0.1327 -0.6174
 4034TIP3    H233594   6.604   0.110   3.708 -0.4498  0.1514  2.0361
 4035TIP3   OH233595   1.697   3.086  15.679 -0.2584  0.1715  0.2410
 4035TIP3    H133596   1.765   3.023  15.705  0.4160 -0.8593 -3.4987
 4035TIP3    H233597   1.742   3.169  15.673 -0.4766  0.4997  2.1860
 4036TIP3   OH233598   2.569   2.968  14.453  0.1114  0.5291 -0.2054
 4036TIP3    H133599   2.568   2.882  14.410 -1.5067  0.2171  0.3732
 4036TIP3    H233600   2.551   2.949  14.545 -0.0118  1.4717 -0.0249
 4037TIP3   OH233601   3.630   6.140   3.083 -0.2054  0.1646 -0.0530
 4037TIP3    H133602   3.596   6.193   3.012  0.3244  0.2336 -0.2654
 4037TIP3    H233603   3.553   6.110   3.131 -0.8398 -2.4548 -2.4615
 4038TIP3   OH233604   1.948   0.376   3.214  0.3933  0.0860  0.4134
 4038TIP3    H133605   1.938   0.370   3.309 -0.6345 -0.4765  0.2887
 4038TIP3    H233606   1.860   0.359   3.180  0.7636  0.2213 -0.6402
 4039TIP3   OH233607   6.219   0.341  14.315  0.4177 -0.0871  0.5376
 4039TIP3    H133608   6.247   0.272  14.375 -2.2004 -0.8987  0.9578
 4039TIP3    H233609   6.218   0.420  14.368  1.8170 -0.0318  0.5045
 4040TIP3   OH233610   6.407   4.579   3.981  0.0429  0.2958 -0.2903
 4040TIP3    H133611   6.348   4.509   4.008 -0.9083  0.7826 -1.0328
 4040TIP3    H233612   6.353   4.637   3.928  0.7297  1.7902  0.5970
 4041TIP3   OH233613   1.312   6.271  10.586 -0.4164 -0.0027  0.3491
 4041TIP3    H133614   1.368   6.215  10.533 -2.2769 -0.1176 -1.6061
 4041TIP3    H233615   1.373   6.322  10.639  1.4677 -0.8801 -0.8659
 4042TIP3   OH233616   4.609   4.935   6.082  0.3990 -0.0828 -0.0630
 4042TIP3    H133617   4.632   4.879   6.156 -1.2272  0.0865  0.6036
 4042TIP3    H233618   4.557   5.006   6.120  1.1054  1.0528 -1.1145
 4043TIP3   OH233619   5.875   4.358   2.525  0.3779 -0.0777  0.0291
 4043TIP3    H133620   5.934   4.395   2.460 -0.7495  0.1566 -0.8920
 4043TIP3    H233621   5.891   4.263   2.519  1.1983  0.0297  0.3431
 4044TIP3   OH233622   1.063   2.526   6.581  0.0275  0.4677 -0.2328
 4044TIP3    H133623   1.026   2.612   6.561  0.5086  1.2368  1.8447
 4044TIP3    H233624   1.006   2.490   6.648  0.2466 -0.5173 -0.5627
 4045TIP3   OH233625   2.046   2.989  15.634 -0.2065  0.4843  0.2525
 4045TIP3    H133626   1.976   2.925  15.648 -0.6178  0.0950 -2.9440
 4045TIP3    H233627   2.126   2.941  15.655 -0.6903  0.0652  1.2439
 4046TIP3   OH233628   2.997   3.511  15.803 -0.0525  0.4850 -0.2242
 4046TIP3    H133629   2.955   3.525  15.718  2.0239  0.4658 -1.3058
 4046TIP3    H233630   3.055   3.586  15.814  1.0899 -0.4390  0.2848
 4047TIP3   OH233631   1.244   5.795   5.135  1.0301  0.0234 -0.7226
 4047TIP3    H133632   1.250   5.855   5.060  0.5407 -0.3699 -1.0878
 4047TIP3    H233633   1.239   5.708   5.095  3.1525 -0.4032 -0.1739
 4048TIP3   OH233634   2.547   5.613  10.515  0.4215  0.3029  0.1532
 4048TIP3    H133635   2.504   5.656  10.589 -0.3723 -1.6867  0.9112
 4048TIP3    H233636   2.630   5.660  10.504  0.3915  0.8630  2.0853
 4049TIP3   OH233637   1.271   6.128   2.743  0.2838  0.9145 -0.1614
 4049TIP3    H133638   1.215   6.066   2.697 -1.5182  2.2875  0.0829
 4049TIP3    H233639   1.278   6.203   2.684  1.8006  0.8428 -0.1243
 4050TIP3   OH233640   2.317   5.370  12.537  0.2535 -0.0340 -0.5049
 4050TIP3    H133641   2.229   5.335  12.553 -0.1063  0.9690 -0.1865
 4050TIP3    H233642   2.302   5.461  12.511  1.1368 -0.2202 -1.7389
 4051TIP3   OH233643   0.693   4.136  15.814 -0.4230  0.9809 -0.2989
 4051TIP3    H133644   0.636   4.059  15.814 -0.6592  1.1544 -0.4018
 4051TIP3    H233645   0.718   4.147  15.906  1.5758 -0.6505 -0.5628
 4052TIP3   OH233646   2.696   5.902  13.521  0.2773 -0.3714  0.4951
 4052TIP3    H133647   2.704   5.807  13.523 -0.7499 -0.5450 -1.3630
 4052TIP3    H233648   2.753   5.933  13.591  1.3950 -2.3074  0.4956
 4053TIP3   OH233649   0.724   4.377  14.884 -0.6234 -0.4226 -0.5636
 4053TIP3    H133650   0.712   4.434  14.807 -1.4965  0.4855  0.2152
 4053TIP3    H233651   0.700   4.290  14.852 -3.5639  0.3388 -0.7227
 4054TIP3   OH233652   3.420   5.635  16.146 -0.3334  0.6607  0.0775
 4054TIP3    H133653   3.481   5.699  16.182 -1.1453  2.0051 -0.8278
 4054TIP3    H233654   3.474   5.559  16.125  0.9165  1.5689 -0.1128
 4055TIP3   OH233655   0.322   5.329  14.995 -0.1669 -0.2496 -0.1626
 4055TIP3    H133656   0.365   5.298  14.915 -0.9868 -1.3716 -0.1985
 4055TIP3    H233657   0.323   5.253  15.054 -0.7752  0.1476  0.3787
 4056TIP3   OH233658   3.177   6.688  13.230  0.6427  0.4636 -0.2627
 4056TIP3    H133659   3.266   6.708  13.257  0.8063 -2.2114  1.4822
 4056TIP3    H233660   3.122   6.740  13.289  1.0691 -0.5159  1.0497
 4057TIP3   OH233661   6.191   2.369   2.962 -0.1096  0.2454  0.0353
 4057TIP3    H133662   6.112   2.414   2.991  0.1958  0.2924  0.8253
 4057TIP3    H233663   6.179   2.357   2.868 -1.3798 -0.3823  0.2523
 4058TIP3   OH233664   6.087   0.166  15.356 -0.3942  0.1898  0.0167
 4058TIP3    H133665   6.005   0.118  15.358 -0.2207 -0.1816 -1.2141
 4058TIP3    H233666   6.093   0.201  15.267  1.3095 -0.7334 -0.2821
 4059TIP3   OH233667   0.095   3.365  16.996 -0.2317  0.1002  0.1429
 4059TIP3    H133668   0.147   3.320  16.928  0.0790  0.8837 -0.1470
 4059TIP3    H233669   0.098   3.306  17.071  0.7954 -0.0282  0.0138
 4060TIP3   OH233670   2.486   1.424  11.970  0.1311 -0.3588 -0.0853
 4060TIP3    H133671   2.434   1.446  12.048  1.8735  0.6639  0.8564
 4060TIP3    H233672   2.508   1.332  11.982  2.7062  0.4352  2.1706
 4061TIP3   OH233673   0.851   5.474   6.379  1.3790 -0.1139  0.1540
 4061TIP3    H133674   0.899   5.547   6.420  0.8394  1.1467 -1.3342
 4061TIP3    H233675   0.840   5.502   6.287 -0.5757 -1.1860  0.0144
 4062TIP3   OH233676   1.122   3.037  12.554  0.0002 -0.3258  0.7015
 4062TIP3    H133677   1.098   3.004  12.642  2.1892  1.0210  1.8770
 4062TIP3    H233678   1.205   2.994  12.535 -0.6869 -0.9737 -1.0004
 4063TIP3   OH233679   2.265   0.333   2.370 -0.3632  0.3960 -0.0880
 4063TIP3    H133680   2.262   0.403   2.435 -2.1003  1.4894 -1.2325
 4063TIP3    H233681   2.196   0.272   2.397 -0.9492  0.7477 -0.7580
 4064TIP3   OH233682   1.532   2.149  14.013 -0.0448  0.3476  0.1882
 4064TIP3    H133683   1.473   2.214  13.975  1.2092  1.0028 -0.6927
 4064TIP3    H233684   1.534   2.171  14.106 -3.2299 -1.3376  0.8041
 4065TIP3   OH233685   0.090   2.539  14.835 -0.3564  0.0925 -0.0909
 4065TIP3    H133686   0.020   2.603  14.824 -0.2317  0.0975 -0.9787
 4065TIP3    H233687   0.073   2.474  14.766  1.0293  0.5846 -0.9245
 4066TIP3   OH233688   4.756   4.021  16.690 -0.4521 -0.5916  0.5554
 4066TIP3    H133689   4.813   4.077  16.743 -0.3689 -0.7927  0.6766
 4066TIP3    H233690   4.712   3.964  16.753 -1.0422 -0.2092  0.4929
 4067TIP3   OH233691   0.545   5.988  14.107  0.2562 -0.3658 -0.1247
 4067TIP3    H133692   0.566   6.007  14.016 -1.1794  0.5137 -0.2981
 4067TIP3    H233693   0.561   5.894  14.116 -1.2095 -0.8317 -1.7785
 4068TIP3   OH233694   3.908   6.484   1.336 -0.7824 -0.0500  0.4196
 4068TIP3    H133695   3.850   6.487   1.412 -1.4188 -2.3393  0.1106
 4068TIP3    H233696   3.924   6.390   1.322 -0.0055  0.3480 -1.7652
 4069TIP3   OH233697   2.851   2.103   5.434 -0.5521  0.9250  0.0039
 4069TIP3    H133698   2.826   2.023   5.386  3.5701  0.1439 -1.2038
 4069TIP3    H233699   2.849   2.077   5.526  1.4241 -0.9535 -0.3961
 4070TIP3   OH233700   5.873   0.255  11.286 -0.5200 -0.3410  0.5519
 4070TIP3    H133701   5.799   0.217  11.237 -1.1614  0.3058  0.9990
 4070TIP3    H233702   5.854   0.349  11.289  1.4589  0.2079 -1.2781
 4071TIP3   OH233703   5.201   6.438  13.103  0.1797  0.3180 -0.0203
 4071TIP3    H133704   5.175   6.357  13.057  0.6708 -0.8850  1.7118
 4071TIP3    H233705   5.135   6.448  13.172  0.6035  0.9269  0.3026
 4072TIP3   OH233706   4.594   5.805   0.570 -0.3645 -0.2299  0.1046
 4072TIP3    H133707   4.686   5.825   0.556 -0.5653  0.2172 -0.6168
 4072TIP3    H233708   4.594   5.740   0.640  0.5950 -1.4825 -1.0071
 4073TIP3   OH233709   0.914   0.076   3.657 -0.9317  0.0867 -0.5134
 4073TIP3    H133710   0.849   0.043   3.595 -0.8527  0.5026 -0.8239
 4073TIP3    H233711   0.899   0.171   3.659  2.1959  0.8432 -3.6461
 4074TIP3   OH233712   0.950   5.238   5.785 -0.0001  0.4197 -0.2264
 4074TIP3    H133713   1.038   5.244   5.822  0.5514 -1.5705 -1.0658
 4074TIP3    H233714   0.894   5.218   5.860  1.1105 -3.6012 -0.2170
 4075TIP3   OH233715   3.787   3.858   0.269 -0.4328 -0.9648 -0.2005
 4075TIP3    H133716   3.756   3.934   0.220 -0.1580 -0.3796  0.5181
 4075TIP3    H233717   3.780   3.884   0.361 -1.4856 -2.2578  0.1084
 4076TIP3   OH233718   1.010   3.306  11.674 -0.4351 -0.2982 -0.0109
 4076TIP3    H133719   0.961   3.227  11.653 -2.0904  0.5838  0.3944
 4076TIP3    H233720   1.099   3.275  11.692 -1.1805 -2.1355  0.7401
 4077TIP3   OH233721   5.335   2.844  15.353 -0.0599  0.3329  0.1675
 4077TIP3    H133722   5.325   2.750  15.369 -2.4965  0.1630 -1.7747
 4077TIP3    H233723   5.396   2.850  15.280  0.4660  0.3313  0.5946
 4078TIP3   OH233724   1.342   2.419  10.909 -0.4009  0.4481  0.0863
 4078TIP3    H133725   1.350   2.342  10.853 -1.6863  0.0835  0.3771
 4078TIP3    H233726   1.248   2.438  10.911 -0.0876  2.1682 -0.1594
 4079TIP3   OH233727   0.267   5.697  13.924 -0.2729 -0.4157  0.2469
 4079TIP3    H133728   0.194   5.692  13.986  0.1662  0.7245  0.8789
 4079TIP3    H233729   0.273   5.609  13.887 -1.0752 -0.8917  1.2075
 4080TIP3   OH233730   2.360   4.123  11.879  0.1543  0.3479 -0.0959
 4080TIP3    H133731   2.291   4.101  11.817  1.1440 -0.1608 -1.0349
 4080TIP3    H233732   2.436   4.074  11.850  1.5437  2.5319 -0.3805
 4081TIP3   OH233733   3.620   5.817   4.063  0.0055 -0.2074  0.7448
 4081TIP3    H133734   3.529   5.837   4.040  0.3124 -0.7673 -1.1209
 4081TIP3    H233735   3.671   5.846   3.987  1.4045  0.0840  1.7482
 4082TIP3   OH233736   4.721   0.703  12.871 -0.0027  0.5343 -0.0977
 4082TIP3    H133737   4.642   0.672  12.827 -0.4565 -1.1604  1.7804
 4082TIP3    H233738   4.692   0.722  12.961  1.3607  1.6408  0.1403
 4083TIP3   OH233739   2.499   6.767   6.099 -0.2736  0.4738 -0.7793
 4083TIP3    H133740   2.467   6.683   6.131 -1.9353  0.8858 -1.3021
 4083TIP3    H233741   2.489   6.827   6.173 -1.2830  0.7347 -1.1183
 4084TIP3   OH233742   4.631   5.160   0.272 -0.3060  0.0858 -0.7342
 4084TIP3    H133743   4.715   5.162   0.226  1.2017  4.2276  1.6635
 4084TIP3    H233744   4.649   5.105   0.349 -0.7369 -1.2174 -1.5193
 4085TIP3   OH233745   2.425   0.525  15.425 -0.0412  0.4192 -0.1189
 4085TIP3    H133746   2.373   0.588  15.375 -0.7575 -0.4829 -0.5442
 4085TIP3    H233747   2.372   0.503  15.501  0.2011  0.3321  0.0274
 4086TIP3   OH233748   0.773   2.140   5.979 -0.0116 -0.1041  0.0783
 4086TIP3    H133749   0.825   2.112   5.904  1.1311  0.2265  0.7273
 4086TIP3    H233750   0.698   2.186   5.941  0.8107  0.5086 -0.8486
 4087TIP3   OH233751   3.785   6.804   5.583  0.0912  0.3226  0.2579
 4087TIP3    H133752   3.695   6.835   5.585 -0.4025 -1.0149  0.0625
 4087TIP3    H233753   3.793   6.758   5.500  1.1438  0.9296  0.0103
 4088TIP3   OH233754   6.376   2.795  17.174  0.1122  1.1265 -0.1585
 4088TIP3    H133755   6.377   2.880  17.130 -1.4961  1.0947 -0.3342
 4088TIP3    H233756   6.283   2.773  17.180  0.5395 -1.3757 -1.5440
 4089TIP3   OH233757   5.617   0.557   5.586 -0.2281  0.1429  0.0129
 4089TIP3    H133758   5.548   0.499   5.552  0.9121 -0.6528 -1.0324
 4089TIP3    H233759   5.689   0.498   5.608  1.0060  1.1239 -1.1743
 4090TIP3   OH233760   6.764   0.450   6.076  0.1079  0.5662  1.0225
 4090TIP3    H133761   6.760   0.492   5.990 -0.8211  1.5287  1.5108
 4090TIP3    H233762   6.798   0.518   6.134 -0.4963  0.3469  1.6444
 4091TIP3   OH233763   3.182   4.693   0.888 -0.0748  0.3282 -0.5294
 4091TIP3    H133764   3.146   4.647   0.964  1.0942 -0.4722 -0.4298
 4091TIP3    H233765   3.113   4.689   0.822 -0.1321 -1.3276 -0.4154
 4092TIP3   OH233766   0.224   1.535  14.323 -0.0978 -0.3213  0.1339
 4092TIP3    H133767   0.262   1.511  14.408  0.4938  0.3982  0.0837
 4092TIP3    H233768   0.223   1.453  14.274  0.6013 -0.5314  0.4482
 4093TIP3   OH233769   4.231   3.179  17.179  0.5187 -0.3200  0.1853
 4093TIP3    H133770   4.275   3.198  17.096  1.8305  1.5057  1.2323
 4093TIP3    H233771   4.275   3.234  17.243 -2.2302  0.4071  1.6280
 4094TIP3   OH233772   5.616   3.858   3.426  0.8222  0.5809 -0.4820
 4094TIP3    H133773   5.538   3.875   3.373  0.3527 -0.5208 -0.1807
 4094TIP3    H233774   5.583   3.856   3.516  1.1604 -0.0860 -0.3714
 4095TIP3   OH233775   0.991   0.739   4.435 -0.0339  0.5011 -0.4274
 4095TIP3    H133776   1.001   0.653   4.476 -1.2716  0.4313 -0.2306
 4095TIP3    H233777   1.019   0.801   4.501  1.5339  0.2482 -0.8054
 4096TIP3   OH233778   1.365   2.899  10.766  0.3590  0.5922 -0.5068
 4096TIP3    H133779   1.295   2.840  10.795  0.9644  0.8811  1.6820
 4096TIP3    H233780   1.350   2.980  10.813  0.9698  1.3873 -1.6259
 4097TIP3   OH233781   1.206   4.648  13.506 -0.4491 -0.1920  0.1871
 4097TIP3    H133782   1.219   4.695  13.588  1.2780  0.1035 -0.2103
 4097TIP3    H233783   1.197   4.557  13.531 -3.6826  0.2122  0.9606
 4098TIP3   OH233784   3.340   4.073   3.277 -0.1083  0.3291 -0.0531
 4098TIP3    H133785   3.257   4.110   3.246 -1.1116 -1.7521 -0.0149
 4098TIP3    H233786   3.328   4.065   3.372 -1.4310 -3.3214 -0.3769
 4099TIP3   OH233787   5.120   3.533  16.921  0.4283 -0.3029  0.2283
 4099TIP3    H133788   5.120   3.627  16.938 -0.5124 -0.5293  1.6294
 4099TIP3    H233789   5.057   3.521  16.850  1.0825  0.1866 -0.4486
 4100TIP3   OH233790   2.076   1.180  10.725  0.4579 -0.5978 -0.5009
 4100TIP3    H133791   1.981   1.184  10.736  0.5403  2.2035  0.0964
 4100TIP3    H233792   2.091   1.103  10.671 -1.9884 -2.0624  0.7498
 4101TIP3   OH233793   5.102   2.330   0.685  0.7383  0.0536  0.3327
 4101TIP3    H133794   5.164   2.391   0.726  1.0839 -0.0655 -0.0017
 4101TIP3    H233795   5.095   2.258   0.747  1.3104 -0.1565  0.1607
 4102TIP3   OH233796   4.208   4.229   4.694  0.2378  0.3570 -0.0508
 4102TIP3    H133797   4.216   4.135   4.711 -0.1748  0.6668  2.1567
 4102TIP3    H233798   4.253   4.271   4.768 -0.8771  1.9085 -0.1993
 4103TIP3   OH233799   0.742   4.710  15.207 -0.0334  0.3486  0.4762
 4103TIP3    H133800   0.827   4.685  15.242  0.7364  2.7101  0.4442
 4103TIP3    H233801   0.679   4.659  15.257  1.3555 -1.0164  0.8919
 4104TIP3   OH233802   0.226   3.008   1.225  0.1201 -0.0173 -0.4598
 4104TIP3    H133803   0.271   2.946   1.168  2.1244 -0.9899  1.9911
 4104TIP3    H233804   0.266   3.092   1.205  0.5766 -0.2892 -0.7134
 4105TIP3   OH233805   2.589   0.922   5.405  0.3986 -0.3780 -0.4126
 4105TIP3    H133806   2.517   0.985   5.413 -0.6529 -1.3361 -1.7954
 4105TIP3    H233807   2.605   0.892   5.494 -0.7131  0.0798 -0.0383
 4106TIP3   OH233808   0.113   3.211  15.551  0.0507 -0.3706  0.3179
 4106TIP3    H133809   0.199   3.210  15.509  0.4909 -1.3984  1.2035
 4106TIP3    H233810   0.057   3.161  15.492  0.0593  0.2512 -0.2314
 4107TIP3   OH233811   2.780   6.158  16.938 -0.4698  0.5129 -0.0981
 4107TIP3    H133812   2.784   6.137  16.844  0.0658 -0.8560  0.2018
 4107TIP3    H233813   2.804   6.250  16.943 -2.2087  1.0944 -1.4471
 4108TIP3   OH233814   6.239   4.259  12.596 -0.1583 -0.7566 -0.1391
 4108TIP3    H133815   6.203   4.174  12.619 -0.7781 -0.5151 -0.1851
 4108TIP3    H233816   6.333   4.244  12.584 -0.1145 -1.2382  0.7562
 4109TIP3   OH233817   2.039   0.204   0.080  0.5120 -0.3173 -0.4626
 4109TIP3    H133818   2.087   0.242   0.006 -1.6970  1.2042 -1.2361
 4109TIP3    H233819   1.968   0.155   0.039 -0.9067  0.7634  0.6124
 4110TIP3   OH233820   3.023   2.830  12.212  0.6881  0.5713  0.8168
 4110TIP3    H133821   2.988   2.911  12.249 -0.7365  0.2135  0.3109
 4110TIP3    H233822   3.081   2.796  12.280  1.2944  2.0000  1.0353
 4111TIP3   OH233823   5.327   0.632  16.889  0.6200  0.3406 -0.7426
 4111TIP3    H133824   5.264   0.560  16.888  1.0235 -0.0083 -1.4529
 4111TIP3    H233825   5.276   0.707  16.919 -0.2415  0.1606 -1.6909
 4112TIP3   OH233826   2.785   1.408   2.770 -0.0181  0.4627  0.8076
 4112TIP3    H133827   2.800   1.401   2.864 -2.1200 -0.7635  1.1088
 4112TIP3    H233828   2.710   1.466   2.761  0.9070  1.5644 -0.2318
 4113TIP3   OH233829   6.386   2.847   1.407  0.0458 -0.1568  0.3833
 4113TIP3    H133830   6.391   2.844   1.311  0.7449  0.9088  0.3685
 4113TIP3    H233831   6.403   2.938   1.428 -1.3867 -0.1272  1.4659
 4114TIP3   OH233832   6.441   2.928   3.056  0.0113  0.0548 -0.0592
 4114TIP3    H133833   6.525   2.899   3.091 -0.0785 -0.5056 -0.2958
 4114TIP3    H233834   6.453   2.930   2.961 -0.2255  0.0214 -0.0925
 4115TIP3   OH233835   3.029   3.019   2.913  0.0067  0.5701 -0.6145
 4115TIP3    H133836   3.060   3.006   3.002  0.3214  1.5863 -0.5600
 4115TIP3    H233837   2.936   2.996   2.916  0.1619 -0.0270 -0.1860
 4116TIP3   OH233838   0.102   6.626  15.269 -0.4587  0.4432  0.6582
 4116TIP3    H133839   0.091   6.555  15.206  2.3631  0.2032  0.2790
 4116TIP3    H233840   0.153   6.586  15.340  0.3095  1.8165  0.9067
 4117TIP3   OH233841   4.923   3.826   0.166 -0.4256 -0.0030 -0.2253
 4117TIP3    H133842   4.882   3.846   0.250 -1.0816  0.3384 -0.6210
 4117TIP3    H233843   4.959   3.910   0.136 -1.0133  0.0811 -0.7202
 4118TIP3   OH233844   4.426   6.081   3.544  0.1047 -0.0523  0.0990
 4118TIP3    H133845   4.362   6.115   3.482 -1.4835 -0.0826  1.6511
 4118TIP3    H233846   4.467   6.007   3.498 -0.7672  0.1489 -1.0412
 4119TIP3   OH233847   2.327   6.401   2.695  0.0114 -0.0441 -0.4326
 4119TIP3    H133848   2.295   6.317   2.728 -0.6484  0.0629 -0.7846
 4119TIP3    H233849   2.417   6.384   2.668  0.5633 -0.1548  1.3338
 4120TIP3   OH233850   1.157   3.034   2.918 -0.5702  0.0661 -0.4541
 4120TIP3    H133851   1.142   3.100   2.851  1.4323 -1.1460 -2.2074
 4120TIP3    H233852   1.231   3.067   2.968  0.4873 -0.8238 -1.3843
 4121TIP3   OH233853   5.028   1.989  12.794 -0.3612 -0.3792  0.1888
 4121TIP3    H133854   5.004   1.900  12.821  0.3646 -0.4964  0.4815
 4121TIP3    H233855   5.104   1.977  12.737 -0.1733  0.0611  0.3381
 4122TIP3   OH233856   1.943   0.084  13.933  0.5261  0.4180  0.1384
 4122TIP3    H133857   1.915   0.001  13.893  1.0102  0.6280 -0.6664
 4122TIP3    H233858   2.007   0.058  13.999 -0.3264  0.0586  0.8553
 4123TIP3   OH233859   1.113   2.016  17.159  0.1570  0.0522  0.1180
 4123TIP3    H133860   1.142   1.991  17.071 -2.9449 -2.1720 -0.4227
 4123TIP3    H233861   1.150   1.950  17.217  0.5146  0.3436  0.2303
 4124TIP3   OH233862   1.595   1.826   5.744  0.5595 -0.3046 -0.6474
 4124TIP3    H133863   1.599   1.764   5.817  1.5351  1.3281  0.7397
 4124TIP3    H233864   1.503   1.853   5.740  0.7823  0.8460  1.1187
 4125TIP3   OH233865   4.462   6.648   1.493 -0.3665 -0.2329  0.2384
 4125TIP3    H133866   4.395   6.587   1.522  1.1552 -1.6381  0.9523
 4125TIP3    H233867   4.537   6.629   1.548  0.7134  1.1184 -0.6990
 4126TIP3   OH233868   4.292   0.697  10.745 -0.3176  0.7561  0.1788
 4126TIP3    H133869   4.233   0.661  10.678  1.2641  0.4041 -1.0890
 4126TIP3    H233870   4.356   0.628  10.761 -0.7739  0.7598  2.2475
 4127TIP3   OH233871   4.892   4.481  14.721 -0.2311 -0.0971  0.0487
 4127TIP3    H133872   4.822   4.443  14.774 -0.6824  0.3950 -0.1875
 4127TIP3    H233873   4.891   4.430  14.640 -2.9822  2.3434 -1.6406
 4128TIP3   OH233874   6.649   3.220  11.576  0.0435 -0.0333 -0.3097
 4128TIP3    H133875   6.697   3.237  11.496  1.1247  0.8582  0.5039
 4128TIP3    H233876   6.716   3.206  11.643 -0.8286 -0.8722  0.4385
 4129TIP3   OH233877   6.424   5.907   2.509 -0.3063  0.1826  0.3491
 4129TIP3    H133878   6.392   5.962   2.437 -0.8204  2.8921  2.4797
 4129TIP3    H233879   6.504   5.950   2.538  0.1230 -1.1151  1.1616
 4130TIP3   OH233880   3.987   3.292  11.593 -0.3184 -0.1268 -0.4502
 4130TIP3    H133881   3.898   3.282  11.558 -0.4900 -0.4336  0.0648
 4130TIP3    H233882   4.024   3.364  11.542 -0.0250 -1.5219 -2.2914
 4131TIP3   OH233883   4.375   4.743  16.263  0.1981 -0.2005  0.9802
 4131TIP3    H133884   4.426   4.711  16.189 -1.6476 -0.3526 -0.2996
 4131TIP3    H233885   4.439   4.753  16.333  1.9015 -0.7261 -0.4063
 4132TIP3   OH233886   1.608   5.941  15.733  0.7623 -0.0301  0.5068
 4132TIP3    H133887   1.537   5.926  15.671  1.1867 -1.5452  0.3525
 4132TIP3    H233888   1.645   6.025  15.706  0.2151 -0.1194 -0.5776
 4133TIP3   OH233889   6.232   3.596  15.369  0.6895  0.2739 -0.2110
 4133TIP3    H133890   6.193   3.578  15.455 -0.5745  0.7989 -0.6519
 4133TIP3    H233891   6.207   3.521  15.316 -0.4868  0.9983 -0.7258
 4134TIP3   OH233892   2.301   2.050  15.467 -0.1309 -0.0116  0.4319
 4134TIP3    H133893   2.385   2.019  15.501 -0.0197  0.5761  0.7172
 4134TIP3    H233894   2.239   1.980  15.489  0.6112 -1.3513 -1.5319
 4135TIP3   OH233895   6.821   1.209   2.274  0.3786  0.1803  0.5309
 4135TIP3    H133896   6.754   1.143   2.254  0.1312  0.4459  0.4769
 4135TIP3    H233897   6.903   1.159   2.277  0.0739 -0.2848  1.4225
 4136TIP3   OH233898   1.160   5.589   4.291  0.5023 -0.0441  0.1469
 4136TIP3    H133899   1.185   5.522   4.227  0.9065  0.5031 -0.2722
 4136TIP3    H233900   1.066   5.576   4.302  0.5755 -0.6963  0.0902
 4137TIP3   OH233901   0.539   6.350  15.823 -0.4748  0.1988 -0.0951
 4137TIP3    H133902   0.477   6.407  15.778 -0.4498  1.1082  0.9858
 4137TIP3    H233903   0.494   6.265  15.829 -2.2611  1.1951  1.9187
 4138TIP3   OH233904   0.413   6.540  13.622 -0.2223  0.7350 -0.4964
 4138TIP3    H133905   0.502   6.507  13.614  0.3477  2.2850 -0.9930
 4138TIP3    H233906   0.407   6.572  13.713 -0.1032  1.0472 -0.5954
 4139TIP3   OH233907   2.642   0.548  14.321  0.1595 -0.0043 -0.2342
 4139TIP3    H133908   2.670   0.478  14.379  1.1914  0.0274 -0.6854
 4139TIP3    H233909   2.549   0.531  14.306  0.0738 -0.4705  0.7697
 4140TIP3   OH233910   2.770   2.333   3.320 -0.1440  0.4604  0.0135
 4140TIP3    H133911   2.787   2.267   3.252 -0.3630  2.2256 -1.8645
 4140TIP3    H233912   2.843   2.395   3.311  1.5055 -0.7018  3.4554
 4141TIP3   OH233913   0.991   5.792  14.517 -0.2141 -0.8199  0.3290
 4141TIP3    H133914   0.977   5.766  14.608 -0.6844  0.0046  0.4986
 4141TIP3    H233915   1.068   5.849  14.519 -0.2730 -0.7365  0.2198
 4142TIP3   OH233916   1.312   2.044   3.339  0.7099 -0.1240 -0.2927
 4142TIP3    H133917   1.369   1.970   3.318  0.9881 -0.1509  0.5224
 4142TIP3    H233918   1.254   2.052   3.263 -1.7013 -3.3535  0.9947
 4143TIP3   OH233919   2.354   1.780   0.923  0.0721 -0.5737 -0.0584
 4143TIP3    H133920   2.421   1.844   0.948 -0.6622  0.0345  0.4065
 4143TIP3    H233921   2.275   1.809   0.969 -0.1169 -2.2227  0.7600
 4144TIP3   OH233922   2.009   3.300   6.554  0.1288 -0.2917  0.4033
 4144TIP3    H133923   2.093   3.337   6.581  0.7533 -0.8114 -0.7349
 4144TIP3    H233924   2.029   3.209   6.532 -0.7484 -0.4447  0.1862
 4145TIP3   OH233925   6.474   0.626  13.201 -0.1295 -0.2395  0.4597
 4145TIP3    H133926   6.465   0.659  13.290 -1.3669  1.0620 -0.1146
 4145TIP3    H233927   6.407   0.558  13.194 -0.8054  0.4417  0.1919
 4146TIP3   OH233928   4.406   0.460  11.626  0.1630  0.3066  0.1626
 4146TIP3    H133929   4.467   0.524  11.664 -0.7914  1.0355  0.5209
 4146TIP3    H233930   4.430   0.455  11.534  1.6466 -0.4686  0.5595
 4147TIP3   OH233931   6.069   3.115   0.037  0.2216 -0.5380  0.3630
 4147TIP3    H133932   6.135   3.064   0.084  0.9940  0.7993  0.7908
 4147TIP3    H233933   6.080   3.204   0.070  0.6689  0.4405 -2.2065
 4148TIP3   OH233934   3.439   5.295  14.926  0.1325 -0.2577 -0.2555
 4148TIP3    H133935   3.519   5.347  14.917 -0.4131  0.5811 -0.4312
 4148TIP3    H233936   3.381   5.329  14.858 -0.4528 -0.6907  0.0222
 4149TIP3   OH233937   4.048   0.542  10.246  0.5469  0.0247 -0.0905
 4149TIP3    H133938   4.028   0.630  10.213 -1.1567 -0.6878 -1.1281
 4149TIP3    H233939   3.979   0.525  10.310  0.6391 -0.6788 -0.1713
 4150TIP3   OH233940   0.104   3.880   4.034 -0.5791  0.8059 -0.2512
 4150TIP3    H133941   0.129   3.940   4.105 -0.7105  0.5392  0.0253
 4150TIP3    H233942   0.178   3.883   3.973 -0.5224  1.1395 -0.1701
 4151TIP3   OH233943   1.280   6.119   3.727 -0.1835 -0.2908 -0.1545
 4151TIP3    H133944   1.260   6.121   3.633  0.7441 -1.2173 -0.3984
 4151TIP3    H233945   1.375   6.106   3.731 -0.3437 -1.2939  0.9059
 4152TIP3   OH233946   4.674   6.702  11.485  0.2729  0.3247  0.0829
 4152TIP3    H133947   4.737   6.774  11.474  0.7068 -0.4102 -2.9100
 4152TIP3    H233948   4.619   6.706  11.407 -0.1265 -2.1842  0.1615
 4153TIP3   OH233949   1.628   2.467  11.657 -0.4127  0.0120  0.3028
 4153TIP3    H133950   1.585   2.501  11.736  0.1948  0.0732  0.6114
 4153TIP3    H233951   1.560   2.418  11.611 -0.7112 -0.1930  0.9672
 4154TIP3   OH233952   5.151   3.267  12.831  0.6410  0.0380  0.2813
 4154TIP3    H133953   5.201   3.227  12.760  2.3232  1.7344  0.4362
 4154TIP3    H233954   5.218   3.292  12.896 -0.0001  4.3206 -0.4200
 4155TIP3   OH233955   5.259   2.597   1.463  0.1884 -0.2024 -0.2429
 4155TIP3    H133956   5.271   2.509   1.427  1.3364 -0.0892 -0.1739
 4155TIP3    H233957   5.263   2.655   1.388 -2.4774 -0.2962 -0.5558
 4156TIP3   OH233958   0.438   0.600  15.959 -0.2873  0.4239 -0.3144
 4156TIP3    H133959   0.478   0.540  15.896 -0.1919 -0.4592  0.5620
 4156TIP3    H233960   0.421   0.546  16.036  0.6044  1.6991  0.8320
 4157TIP3   OH233961   5.117   2.263  13.309 -0.4227 -0.2791 -0.8201
 4157TIP3    H133962   5.069   2.219  13.380  1.1874  1.1364  1.3091
 4157TIP3    H233963   5.185   2.201  13.285 -1.1016 -0.8533 -1.3018
 4158TIP3   OH233964   5.324   4.624  14.785 -0.1480 -0.2903 -0.3530
 4158TIP3    H133965   5.264   4.695  14.761  0.1218  0.1597  0.2807
 4158TIP3    H233966   5.279   4.545  14.757 -0.7440  0.0853 -0.4885
 4159TIP3   OH233967   3.738   4.524   3.303  0.5655  0.6409  0.2104
 4159TIP3    H133968   3.808   4.469   3.268  0.0194  0.2628 -0.2987
 4159TIP3    H233969   3.706   4.477   3.380 -0.0004  0.1541 -0.3086
 4160TIP3   OH233970   3.182   6.174   0.611  0.1860 -0.0733 -0.3074
 4160TIP3    H133971   3.118   6.141   0.673  0.9454 -1.4909 -0.2331
 4160TIP3    H233972   3.188   6.106   0.544  4.3088 -1.9680  1.6152
 4161TIP3   OH233973   1.036   4.674   2.869 -0.2416  0.0051  0.5870
 4161TIP3    H133974   1.096   4.748   2.879 -1.9615  2.1042 -2.8587
 4161TIP3    H233975   0.976   4.681   2.944 -0.0230  1.7834  0.6243
 4162TIP3   OH233976   3.367   6.271   4.666 -0.3265 -0.4088  0.3039
 4162TIP3    H133977   3.298   6.337   4.656  2.5592  2.5267 -2.9276
 4162TIP3    H233978   3.416   6.300   4.743 -0.3783 -0.0828  0.2173
 4163TIP3   OH233979   5.082   0.437  14.666 -0.3733 -0.2410 -0.1201
 4163TIP3    H133980   5.140   0.408  14.595  2.2924  0.0675  1.7585
 4163TIP3    H233981   5.079   0.364  14.727 -2.8296 -0.5985 -0.5666
 4164TIP3   OH233982   6.151   5.388  10.882 -0.5707  0.0498  0.2582
 4164TIP3    H133983   6.155   5.308  10.830  0.3834 -0.8854  1.7105
 4164TIP3    H233984   6.145   5.458  10.816 -0.5492 -1.1379 -1.0694
 4165TIP3   OH233985   0.854   2.855   2.554 -0.2627 -0.6950  0.1361
 4165TIP3    H133986   0.827   2.820   2.638 -1.0812 -1.2855 -0.3563
 4165TIP3    H233987   0.789   2.923   2.534 -1.0905 -1.7066 -0.7727
 4166TIP3   OH233988   5.141   2.925  12.198  0.3386 -0.1137 -0.5282
 4166TIP3    H133989   5.151   2.830  12.191  0.0758 -0.2296  0.6298
 4166TIP3    H233990   5.205   2.960  12.135  1.4030 -1.0304  0.0249
 4167TIP3   OH233991   0.936   6.500  11.312 -0.4228  0.1363  0.3079
 4167TIP3    H133992   0.902   6.442  11.244  0.1801  0.1504 -0.0112
 4167TIP3    H233993   0.935   6.447  11.391 -1.0866  0.1047  0.2784
 4168TIP3   OH233994   0.733   1.295   1.291 -0.7360 -0.3611 -0.1535
 4168TIP3    H133995   0.728   1.321   1.199  0.4717  0.1885 -0.0882
 4168TIP3    H233996   0.698   1.206   1.293  0.4093 -0.8781 -1.3842
 4169TIP3   OH233997   1.073   1.891  11.432 -0.5539 -0.0817  0.0617
 4169TIP3    H133998   1.051   1.896  11.525 -2.1345 -0.2557 -0.2700
 4169TIP3    H233999   1.053   1.979  11.398 -2.4650 -0.7043 -0.5706
 4170TIP3   OH234000   1.071   2.161   5.221  0.6566  0.2992  0.0947
 4170TIP3    H134001   0.998   2.162   5.159  0.2484  0.7864  0.5763
 4170TIP3    H234002   1.044   2.220   5.291  1.0078 -0.4436  0.8713
 4171TIP3   OH234003   3.207   4.122   6.511  0.2288 -0.1965  0.2485
 4171TIP3    H134004   3.168   4.142   6.426 -0.6790 -1.4166  0.3566
 4171TIP3    H234005   3.153   4.051   6.546  0.6234  0.2637  1.8288
 4172TIP3   OH234006   0.859   1.178   1.614 -0.4372 -0.0220 -0.0875
 4172TIP3    H134007   0.841   1.205   1.524  0.7477  1.6833  0.1320
 4172TIP3    H234008   0.804   1.236   1.668  1.4154  1.4312  0.3625
 4173TIP3   OH234009   1.910   4.713   4.236 -0.2477  1.0076 -0.1225
 4173TIP3    H134010   1.886   4.785   4.295  0.8176 -0.2983  2.0334
 4173TIP3    H234011   2.005   4.717   4.230 -0.0809 -0.7719  0.8315
 4174TIP3   OH234012   4.653   3.011   4.140  0.7426 -0.2989 -0.1010
 4174TIP3    H134013   4.668   2.955   4.216  3.9315  0.1054 -0.3099
 4174TIP3    H234014   4.651   3.100   4.175  0.9459 -0.2004 -0.3308
 4175TIP3   OH234015   1.027   1.990   1.403 -0.0919 -0.6347  0.3075
 4175TIP3    H134016   0.948   1.992   1.349 -0.2877 -0.7778  0.5858
 4175TIP3    H234017   1.031   1.900   1.437 -0.8393 -0.1237  1.7973
 4176TIP3   OH234018   0.724   1.285  17.050  0.3752  0.4483 -0.1764
 4176TIP3    H134019   0.701   1.256  16.962 -0.5008  0.9678 -0.1271
 4176TIP3    H234020   0.810   1.246  17.066 -0.7623 -2.3055 -0.0565
 4177TIP3   OH234021   4.906   1.064  15.858  0.1380 -0.1484  0.4976
 4177TIP3    H134022   4.834   1.012  15.893  0.0725  0.5270  1.3985
 4177TIP3    H234023   4.906   1.143  15.911  2.3897 -0.6993  1.4192
 4178TIP3   OH234024   6.023   1.816   6.220  0.3993  0.4925 -0.4085
 4178TIP3    H134025   5.951   1.857   6.269 -0.4966 -0.7368 -0.6608
 4178TIP3    H234026   6.101   1.860   6.252 -0.4623  1.9809 -0.2353
 4179TIP3   OH234027   0.509   1.348  11.254 -0.1673  0.4927 -0.2872
 4179TIP3    H134028   0.477   1.364  11.165  1.4373  0.8087 -0.8296
 4179TIP3    H234029   0.589   1.401  11.261  0.5905 -0.7468  0.7987
 4180TIP3   OH234030   2.323   6.760   0.557 -0.2580 -0.2841 -0.4828
 4180TIP3    H134031   2.280   6.729   0.477 -0.6761 -1.7887  0.2876
 4180TIP3    H234032   2.411   6.785   0.529 -0.2660 -1.1716 -1.3580
 4181TIP3   OH234033   4.160   2.885   1.651  0.5351 -0.3222 -0.2748
 4181TIP3    H134034   4.169   2.909   1.559 -2.6275  2.0007 -0.1718
 4181TIP3    H234035   4.165   2.968   1.698 -2.5460 -0.7432  1.0601
 4182TIP3   OH234036   4.569   1.143  10.742  0.7069  0.0830  0.1607
 4182TIP3    H134037   4.615   1.120  10.662  0.8479  1.9490 -0.3221
 4182TIP3    H234038   4.524   1.062  10.767  1.6324 -0.8737 -1.1038
 4183TIP3   OH234039   5.830   5.369  16.552 -0.7111 -0.0703  0.7779
 4183TIP3    H134040   5.836   5.288  16.502  1.0947 -0.6636  1.8496
 4183TIP3    H234041   5.906   5.420  16.523 -1.0310  0.6252  1.1523
 4184TIP3   OH234042   1.268   0.988   5.975 -0.1928  0.2807  0.0556
 4184TIP3    H134043   1.319   1.030   6.044  2.4668 -0.1794 -1.5287
 4184TIP3    H234044   1.188   1.041   5.970  0.7099  1.9156  1.6635
 4185TIP3   OH234045   4.486   2.230   3.150 -0.2338  0.3708 -0.3111
 4185TIP3    H134046   4.406   2.257   3.104  0.6673  1.8016 -1.1223
 4185TIP3    H234047   4.538   2.310   3.156  0.7010 -0.3114  1.1401
 4186TIP3   OH234048   2.640   1.864   2.333 -0.0003  0.4679 -0.4238
 4186TIP3    H134049   2.562   1.817   2.304  0.4626 -0.1111 -0.7397
 4186TIP3    H234050   2.644   1.941   2.277 -0.3852  0.5449 -0.3513
 4187TIP3   OH234051   5.620   3.493   1.585 -0.1391 -0.1766  0.3184
 4187TIP3    H134052   5.525   3.482   1.589 -0.0749 -1.5898 -1.2695
 4187TIP3    H234053   5.655   3.405   1.597  0.9748  0.2863  0.5969
 4188TIP3   OH234054   5.660   1.320  14.217  0.1976  0.1292 -0.0291
 4188TIP3    H134055   5.713   1.394  14.187 -1.6776  0.9962 -1.4627
 4188TIP3    H234056   5.615   1.353  14.295  1.1767 -0.3708  0.7741
 4189TIP3   OH234057   3.468   5.806  15.256  0.2468  0.5512 -0.5604
 4189TIP3    H134058   3.398   5.743  15.239 -0.3183  0.9473  0.2127
 4189TIP3    H234059   3.540   5.753  15.292  0.4773  0.0999 -1.6457
 4190TIP3   OH234060   6.121   1.824   5.905  0.1283  0.0356  0.1754
 4190TIP3    H134061   6.138   1.784   5.990 -0.2157 -0.6819 -0.0873
 4190TIP3    H234062   6.102   1.916   5.925 -0.8586 -0.3315  0.9613
 4191TIP3   OH234063   2.287   3.220   4.954  0.1782 -0.0544  0.4528
 4191TIP3    H134064   2.259   3.277   4.882  1.3208 -2.4257 -2.0615
 4191TIP3    H234065   2.209   3.169   4.976  0.0113  0.1778  0.3993
 4192TIP3   OH234066   1.408   2.095   6.078 -0.4705 -0.7467 -0.0103
 4192TIP3    H134067   1.504   2.096   6.082 -0.4976 -0.7646  1.0175
 4192TIP3    H234068   1.380   2.097   6.170 -1.4606 -0.5481 -0.2999
 4193TIP3   OH234069   4.413   3.600   4.223  0.3550  0.2350  0.2086
 4193TIP3    H134070   4.367   3.604   4.307  0.6938  2.8704  0.3757
 4193TIP3    H234071   4.437   3.691   4.205 -0.3241 -0.1193 -3.1206
 4194TIP3   OH234072   4.470   1.004   1.402  0.2338 -0.4862  0.0007
 4194TIP3    H134073   4.434   0.975   1.318  0.1546  1.4384 -0.6955
 4194TIP3    H234074   4.420   1.083   1.423  1.3589 -0.0177  1.0445
 4195TIP3   OH234075   2.737   5.051   2.967 -0.2339 -0.4583  0.7542
 4195TIP3    H134076   2.730   5.063   2.873 -0.3413 -0.0181  0.8143
 4195TIP3    H234077   2.734   4.956   2.980 -0.9116 -0.4951  0.3707
 4196TIP3   OH234078   6.430   4.292   3.541 -0.7771 -0.4436  0.0645
 4196TIP3    H134079   6.419   4.197   3.538  1.0200 -0.6690 -0.3066
 4196TIP3    H234080   6.524   4.305   3.555 -0.9069  1.2903 -0.4728
 4197TIP3   OH234081   0.059   3.089   4.245 -0.0353  0.0815  0.5616
 4197TIP3    H134082   0.107   3.126   4.171 -2.0829 -1.8463 -1.9188
 4197TIP3    H234083   0.127   3.061   4.306  1.8559  0.2581 -1.3376
 4198TIP3   OH234084   6.623   5.394  13.061 -0.4546  0.0824 -0.3677
 4198TIP3    H134085   6.675   5.466  13.096 -1.5337  0.5178  0.3727
 4198TIP3    H234086   6.540   5.398  13.108 -1.5346 -0.0254 -2.1497
 4199TIP3   OH234087   3.095   6.812  11.294 -0.4220  0.2453 -0.0551
 4199TIP3    H134088   3.112   6.797  11.387 -1.4644  2.1723  0.4930
 4199TIP3    H234089   3.077   6.724  11.259 -0.0859 -0.5149  1.5590
 4200TIP3   OH234090   3.886   2.863   1.713  0.0924 -0.5987  0.3854
 4200TIP3    H134091   3.970   2.863   1.668 -0.0998  1.1349 -0.0562
 4200TIP3    H234092   3.828   2.812   1.656 -0.5030  2.6366 -2.2040
 4201TIP3   OH234093   0.315   0.797   4.637 -0.0457  0.0527 -0.1563
 4201TIP3    H134094   0.338   0.707   4.661 -0.8754 -0.1916 -0.2785
 4201TIP3    H234095   0.330   0.802   4.543 -1.1520 -0.3164 -0.3620
 4202TIP3   OH234096   4.995   0.743  11.226 -0.7327  0.4661 -0.1544
 4202TIP3    H134097   4.902   0.741  11.245 -0.6777 -1.7365  0.2188
 4202TIP3    H234098   5.006   0.679  11.155  0.7527 -1.1570  1.4275
 4203TIP3   OH234099   5.431   4.827   4.908  0.4403 -0.0575 -0.0240
 4203TIP3    H134100   5.474   4.760   4.854 -0.0193  1.1062 -1.9094
 4203TIP3    H234101   5.362   4.862   4.852 -1.1344  0.1146  1.9164
 4204TIP3   OH234102   5.917   4.597  10.756 -0.3360  0.5396  0.5884
 4204TIP3    H134103   5.888   4.524  10.701  0.2428  0.7207  0.0281
 4204TIP3    H234104   5.842   4.656  10.758 -1.3147 -0.6479  2.1352
 4205TIP3   OH234105   0.807   5.166   5.554  0.5630 -0.2883  0.0965
 4205TIP3    H134106   0.840   5.213   5.631 -1.5524  1.2344  0.1848
 4205TIP3    H234107   0.792   5.077   5.585 -0.2842  0.3047  1.5143
 4206TIP3   OH234108   0.171   5.905   1.970  0.1614 -0.0861  0.2249
 4206TIP3    H134109   0.095   5.956   1.998 -0.1433 -0.0717 -0.6273
 4206TIP3    H234110   0.237   5.970   1.946  0.2276 -0.1038  0.3523
 4207TIP3   OH234111   4.613   0.256   1.195 -0.1332 -1.2788 -0.0316
 4207TIP3    H134112   4.576   0.291   1.114 -1.6643 -1.3843  0.5813
 4207TIP3    H234113   4.566   0.174   1.209  1.9630 -2.6165 -0.3784
 4208TIP3   OH234114   1.448   3.458   1.253 -0.1647  0.4196 -0.2403
 4208TIP3    H134115   1.448   3.372   1.295  0.3124  0.2612 -0.5450
 4208TIP3    H234116   1.415   3.518   1.319 -2.0670 -0.2336 -0.5322
 4209TIP3   OH234117   1.645   1.243  12.553  0.2013  0.1778  0.0637
 4209TIP3    H134118   1.653   1.231  12.648  2.8659 -0.1814 -0.1325
 4209TIP3    H234119   1.551   1.256  12.538 -0.0585  2.5419  2.9893
 4210TIP3   OH234120   4.414   5.372   1.331  0.3643 -0.1124 -0.0797
 4210TIP3    H134121   4.456   5.293   1.365  2.1404  0.8134  0.0342
 4210TIP3    H234122   4.424   5.365   1.236  1.5687  0.4911 -0.0122
 4211TIP3   OH234123   2.560   0.180   5.570 -0.6729 -0.3588 -0.2822
 4211TIP3    H134124   2.634   0.130   5.534  0.3995 -0.1265  1.4802
 4211TIP3    H234125   2.494   0.177   5.501  0.4853 -1.6759 -1.4121
 4212TIP3   OH234126   3.545   6.538   4.566 -0.5532  0.7148  0.6754
 4212TIP3    H134127   3.567   6.630   4.584  2.2109  0.0896  0.9252
 4212TIP3    H234128   3.527   6.536   4.472 -1.3212  1.5821  0.7782
 4213TIP3   OH234129   3.943   0.719   0.955  0.6516  0.3911  0.6793
 4213TIP3    H134130   3.894   0.727   1.037  0.2719  0.1167  0.4840
 4213TIP3    H234131   3.924   0.631   0.924 -1.1304  1.2415 -0.8731
 4214TIP3   OH234132   0.830   3.863   3.151  0.3441 -0.5452 -0.1614
 4214TIP3    H134133   0.863   3.795   3.093  1.4674 -0.9505  0.9211
 4214TIP3    H234134   0.781   3.816   3.219 -0.6148 -0.1086 -0.5289
 4215TIP3   OH234135   0.147   3.700   3.572  0.3951 -0.0014  0.2626
 4215TIP3    H134136   0.175   3.611   3.553  1.0634  0.2049  0.2683
 4215TIP3    H234137   0.079   3.690   3.639 -1.3877 -0.6840 -1.5327
 4216TIP3   OH234138   4.347   0.222   2.826  0.2132 -0.5573 -0.2140
 4216TIP3    H134139   4.414   0.186   2.884 -1.1023  2.1972  3.4094
 4216TIP3    H234140   4.377   0.310   2.806 -1.7562  0.3981  0.7100
 4217TIP3   OH234141   6.394   1.319   5.677  0.1652  0.4467  0.3112
 4217TIP3    H134142   6.405   1.250   5.611  1.6740  2.3201 -1.5553
 4217TIP3    H234143   6.309   1.301   5.717 -0.3178 -1.4354 -1.3982
 4218TIP3   OH234144   6.525   3.861   3.103  0.0014  0.2686  0.3547
 4218TIP3    H134145   6.541   3.772   3.134 -1.1160  0.2312  0.8840
 4218TIP3    H234146   6.605   3.909   3.125  0.6638 -0.6144 -0.0441
 4219TIP3   OH234147   1.975   3.188  15.203  0.0795 -0.3951 -0.6626
 4219TIP3    H134148   1.974   3.272  15.249 -1.8559 -0.8676  0.2431
 4219TIP3    H234149   2.014   3.127  15.265 -1.0470 -0.7055 -0.2453
 4220TIP3   OH234150   4.492   4.580   1.691  0.3652  0.1585 -0.2874
 4220TIP3    H134151   4.514   4.530   1.613 -0.0718 -0.7985  0.1768
 4220TIP3    H234152   4.407   4.619   1.672 -0.4268 -1.2410  0.2046
 4221TIP3   OH234153   0.303   2.662  12.921 -0.2887  0.0884 -0.3764
 4221TIP3    H134154   0.384   2.631  12.881 -0.8090 -1.4860 -0.2718
 4221TIP3    H234155   0.245   2.680  12.847 -0.4979 -0.6848 -0.4084
 4222TIP3   OH234156   0.083   4.117   1.765  1.0473  0.0393 -0.4123
 4222TIP3    H134157   0.087   4.054   1.837 -2.9826  0.7625  0.7020
 4222TIP3    H234158   0.020   4.080   1.703  0.9502  1.5168 -1.2704
 4223TIP3   OH234159   2.913   4.686   0.188 -0.4523 -0.0878 -0.0784
 4223TIP3    H134160   2.847   4.722   0.247 -0.7443 -2.3247  1.0421
 4223TIP3    H234161   2.865   4.665   0.108 -0.8259 -0.5065  0.2548
 4224TIP3   OH234162   3.196   1.602  13.036  0.0038 -0.0269 -0.3458
 4224TIP3    H134163   3.120   1.546  13.054 -1.0658  1.2945 -0.5561
 4224TIP3    H234164   3.229   1.627  13.122 -1.1234  1.0793 -0.2061
 4225TIP3   OH234165   3.313   6.158  13.879  0.0786  0.2575  0.6702
 4225TIP3    H134166   3.250   6.225  13.903 -0.6880 -0.5008  0.8361
 4225TIP3    H234167   3.367   6.199  13.812 -0.8078  0.8266  0.2790
 4226TIP3   OH234168   2.271   4.918  13.440 -0.1106  0.8254 -0.4222
 4226TIP3    H134169   2.310   4.953  13.360 -1.1474 -1.1776 -1.8832
 4226TIP3    H234170   2.346   4.886  13.490  0.4710  1.1969 -1.0344
 4227TIP3   OH234171   5.251   2.870   0.443 -0.0368  0.4854  0.2950
 4227TIP3    H134172   5.331   2.861   0.494 -0.4508 -0.5824  0.7839
 4227TIP3    H234173   5.265   2.949   0.390  0.0663  2.2261  2.7283
 4228TIP3   OH234174   1.162   0.733  15.269 -0.0874 -0.0268 -0.2365
 4228TIP3    H134175   1.218   0.764  15.198  1.4077  0.5634  1.1457
 4228TIP3    H234176   1.142   0.642  15.246  3.2768 -0.9965  0.2767
 4229TIP3   OH234177   5.306   6.638  12.897  0.5630  0.0040 -0.0218
 4229TIP3    H134178   5.229   6.590  12.928  0.3967  1.0151  1.2300
 4229TIP3    H234179   5.380   6.582  12.918  0.2810 -0.3212  0.1180
 4230TIP3   OH234180   2.132   5.921  15.540  0.5297  0.2179  0.7425
 4230TIP3    H134181   2.067   5.988  15.557  0.1885  0.2724 -0.6297
 4230TIP3    H234182   2.216   5.967  15.540  0.4046  0.4412  0.9159
 4231TIP3   OH234183   4.973   1.916  17.097 -0.1013 -0.0991 -0.0535
 4231TIP3    H134184   5.062   1.906  17.131 -0.6927 -0.3162  1.5011
 4231TIP3    H234185   4.967   2.009  17.073 -0.4574  0.7661  2.9889
 4232TIP3   OH234186   3.557   4.029   2.958  0.2383  0.2433 -1.0127
 4232TIP3    H134187   3.592   4.047   2.871 -0.6795  2.5041 -0.9830
 4232TIP3    H234188   3.524   4.113   2.989  0.4629 -0.4973  1.5170
 4233TIP3   OH234189   3.198   3.043   3.744 -0.1453  0.2121  0.1951
 4233TIP3    H134190   3.186   2.992   3.664  0.7360  0.6617 -0.2484
 4233TIP3    H234191   3.130   3.110   3.740  1.2998  1.6890 -1.4035
 4234TIP3   OH234192   2.164   0.898  12.532  0.1491 -0.0075  0.5952
 4234TIP3    H134193   2.233   0.896  12.599 -0.1137 -1.4370  0.8556
 4234TIP3    H234194   2.085   0.926  12.579  0.3819  0.9055  0.4549
 4235TIP3   OH234195   2.446   3.878   4.322 -0.2634  0.0062 -0.5489
 4235TIP3    H134196   2.379   3.899   4.388 -0.2851 -0.7288 -0.3290
 4235TIP3    H234197   2.449   3.956   4.266 -1.6268 -0.1170 -0.8324
 4236TIP3   OH234198   4.350   2.506   4.014  0.4860 -0.5417 -0.2172
 4236TIP3    H134199   4.319   2.552   4.092 -0.5851  0.3236 -1.1040
 4236TIP3    H234200   4.330   2.414   4.031 -2.8819 -0.0634 -0.7384
 4237TIP3   OH234201   5.266   4.811  10.959  0.4322 -0.1136 -0.4473
 4237TIP3    H134202   5.266   4.720  10.927 -0.0172  0.1270 -1.1391
 4237TIP3    H234203   5.175   4.839  10.951  0.1144 -0.3009  1.8200
 4238TIP3   OH234204   6.759   3.700  11.808 -0.1432 -0.0364  0.9126
 4238TIP3    H134205   6.741   3.734  11.720 -1.7901 -0.3517  1.1012
 4238TIP3    H234206   6.854   3.685  11.808 -0.0627  0.2095 -0.7155
 4239TIP3   OH234207   2.367   4.741  16.527 -0.2526 -0.0731  0.2196
 4239TIP3    H134208   2.272   4.740  16.533 -0.2810 -0.3665 -0.2569
 4239TIP3    H234209   2.389   4.829  16.496 -0.3044  0.3239  1.2598
 4240TIP3   OH234210   4.907   4.682  14.250  0.0396  0.4408 -0.0344
 4240TIP3    H134211   4.993   4.705  14.212  0.9200  1.1226  2.2107
 4240TIP3    H234212   4.854   4.761  14.238  0.4183  0.7685  0.3882
 4241TIP3   OH234213   0.567   2.541  13.558 -0.1828  0.7780 -0.8328
 4241TIP3    H134214   0.526   2.587  13.632 -1.6065 -0.9262 -0.5007
 4241TIP3    H234215   0.512   2.564  13.482  0.1695  1.0479 -1.0065
 4242TIP3   OH234216   0.642   6.661   6.421  0.3846 -0.3582  0.0145
 4242TIP3    H134217   0.650   6.620   6.508  0.2869  0.7105  0.5419
 4242TIP3    H234218   0.582   6.734   6.435  1.8406  0.9823 -0.5329
 4243TIP3   OH234219   2.131   3.104  12.935  0.0020 -0.0592 -0.2240
 4243TIP3    H134220   2.119   3.183  12.987  0.5998 -0.1858  0.1273
 4243TIP3    H234221   2.177   3.134  12.856 -0.8795  0.1289 -0.6681
 4244TIP3   OH234222   5.514   4.439  11.543 -0.1172 -0.6702  0.0229
 4244TIP3    H134223   5.487   4.368  11.601 -2.4736 -0.9893 -1.3533
 4244TIP3    H234224   5.556   4.394  11.470  2.2441 -0.3071  1.0577
 4245TIP3   OH234225   3.355   1.061   1.322  0.3769 -0.0368 -0.2460
 4245TIP3    H134226   3.448   1.047   1.336  0.1356 -1.2804  0.2639
 4245TIP3    H234227   3.320   1.072   1.411 -0.0286 -0.0657 -0.4015
 4246TIP3   OH234228   0.158   0.423   3.957  0.5789  0.1313 -0.1461
 4246TIP3    H134229   0.184   0.497   4.012 -0.1923 -0.0115  0.4391
 4246TIP3    H234230   0.145   0.351   4.019  1.0229 -0.4106 -0.6748
 4247TIP3   OH234231   4.703   4.936  13.880 -0.8107 -0.5117 -0.2401
 4247TIP3    H134232   4.654   4.874  13.825 -0.6317 -0.7114 -0.1755
 4247TIP3    H234233   4.759   4.984  13.818 -1.8094  0.4205 -0.4521
 4248TIP3   OH234234   1.293   6.760   0.471  0.3430 -0.6833  0.2802
 4248TIP3    H134235   1.381   6.736   0.443 -0.0100 -1.9508  0.1858
 4248TIP3    H234236   1.238   6.742   0.395  0.1517  1.2313 -0.0633
 4249TIP3   OH234237   0.919   4.236  15.701  0.2880  0.4832  0.6020
 4249TIP3    H134238   0.980   4.185  15.754 -0.5173 -0.2977  0.8043
 4249TIP3    H234239   0.833   4.199  15.722 -0.0864  0.4168 -0.9454
 4250TIP3   OH234240   4.306   4.949   3.449 -0.3852 -0.2645  0.5277
 4250TIP3    H134241   4.237   4.975   3.511 -0.1147  1.8648  0.0013
 4250TIP3    H234242   4.324   4.858   3.472 -2.5149 -0.5265  1.4783
 4251TIP3   OH234243   2.344   3.907   0.778  0.0449 -0.1367 -0.1121
 4251TIP3    H134244   2.352   3.829   0.723 -1.0883 -0.3068 -0.0582
 4251TIP3    H234245   2.428   3.913   0.823  1.0043 -0.0113 -1.8250
 4252TIP3   OH234246   1.765   0.753  14.276  0.1680 -0.2077 -0.1929
 4252TIP3    H134247   1.745   0.805  14.354  1.8174 -1.0453  0.8461
 4252TIP3    H234248   1.698   0.686  14.274 -0.0494 -0.0107  0.3575
 4253TIP3   OH234249   2.642   0.893   4.237 -0.0559 -0.0925  0.0403
 4253TIP3    H134250   2.634   0.798   4.228 -2.0772  0.0382 -0.0086
 4253TIP3    H234251   2.669   0.923   4.150 -1.3325 -0.4834 -0.5170
 4254TIP3   OH234252   2.728   5.606  15.375 -0.2711 -0.0342 -0.4513
 4254TIP3    H134253   2.751   5.621  15.284  1.1407 -0.7411 -0.2410
 4254TIP3    H234254   2.643   5.562  15.372 -1.2188  1.7360 -1.3162
 4255TIP3   OH234255   4.229   0.954   4.827 -0.5780 -0.2806 -0.2160
 4255TIP3    H134256   4.289   0.900   4.878 -0.2632  0.1768 -0.0950
 4255TIP3    H234257   4.157   0.973   4.888  0.8214  2.1083  0.8793
 4256TIP3   OH234258   1.093   2.086  13.599  0.4091  0.0035  0.5974
 4256TIP3    H134259   1.143   2.018  13.644  1.0096 -0.1723 -0.3284
 4256TIP3    H234260   1.157   2.132  13.545 -0.5708 -0.8382 -1.3640
 4257TIP3   OH234261   2.673   3.835   1.566  0.5862 -0.6358  0.1004
 4257TIP3    H134262   2.579   3.817   1.568  0.4387 -0.3760 -1.8275
 4257TIP3    H234263   2.711   3.775   1.630 -0.8758 -0.7607  0.8956
 4258TIP3   OH234264   3.185   1.174   0.511  0.2734  0.3372  0.7187
 4258TIP3    H134265   3.185   1.087   0.550 -0.8660  0.0225  0.0606
 4258TIP3    H234266   3.110   1.218   0.553 -0.6178  0.1841 -0.6511
 4259TIP3   OH234267   3.404   1.255  16.293  0.2680  0.2751  0.0996
 4259TIP3    H134268   3.353   1.321  16.247 -1.2130 -0.0951  1.1149
 4259TIP3    H234269   3.473   1.304  16.338 -0.9108  1.1862  0.9782
 4260TIP3   OH234270   0.749   0.896  10.932 -0.3917 -0.1011  0.0220
 4260TIP3    H134271   0.769   0.987  10.911  0.6159  0.5142  3.1685
 4260TIP3    H234272   0.827   0.847  10.907 -0.1794  0.2012  0.0932
 4261TIP3   OH234273   2.762   5.990   1.132 -0.5247 -0.2300 -0.0304
 4261TIP3    H134274   2.789   6.058   1.194  0.0590 -1.0467  0.6463
 4261TIP3    H234275   2.704   6.034   1.071  0.7537  1.1350 -0.3010
 4262TIP3   OH234276   0.791   2.006   0.880 -0.0270  0.4815  0.7682
 4262TIP3    H134277   0.790   1.969   0.792  0.4000 -0.7476  1.2478
 4262TIP3    H234278   0.702   1.992   0.912  0.1803 -0.3473  1.0138
 4263TIP3   OH234279   1.442   2.155   1.458 -0.0085  0.0825 -0.5331
 4263TIP3    H134280   1.508   2.141   1.390  0.4603 -0.2510 -0.0110
 4263TIP3    H234281   1.423   2.249   1.453  0.0386  0.0645 -1.1108
 4264TIP3   OH234282   0.576   4.770   2.176  0.3060  0.6868 -0.1664
 4264TIP3    H134283   0.484   4.796   2.184 -0.0568 -0.5270 -0.1546
 4264TIP3    H234284   0.578   4.713   2.099  0.3074 -2.2231  1.8370
 4265TIP3   OH234285   3.069   5.361  11.993  0.0271 -0.2720 -0.3044
 4265TIP3    H134286   3.051   5.271  11.967 -2.1524 -0.7362  2.2986
 4265TIP3    H234287   3.156   5.358  12.033  0.4955 -0.9154 -1.3266
 4266TIP3   OH234288   4.177   3.894   4.652 -0.1723  0.2599 -0.5218
 4266TIP3    H134289   4.171   3.799   4.661 -2.5063  0.4128  0.3777
 4266TIP3    H234290   4.256   3.918   4.700 -0.5587 -1.0870  0.8698
 4267TIP3   OH234291   6.800   2.786  16.957 -0.0883 -0.0308 -0.8316
 4267TIP3    H134292   6.869   2.852  16.966  0.3023 -0.3928 -1.1440
 4267TIP3    H234293   6.750   2.793  17.039  0.8489 -0.3574 -0.2166
 4268TIP3   OH234294   3.267   3.226   2.548 -0.2107  0.3944 -0.3683
 4268TIP3    H134295   3.244   3.299   2.605  0.0878  0.2179 -0.0185
 4268TIP3    H234296   3.257   3.148   2.603  0.2449  0.2354 -0.5033
 4269TIP3   OH234297   5.068   5.631  17.170  0.7621 -0.3368 -0.4072
 4269TIP3    H134298   5.071   5.602  17.079  0.5986  0.9138 -0.8328
 4269TIP3    H234299   5.063   5.727  17.164  0.7825 -0.2404  0.9180
 4270TIP3   OH234300   1.912   3.263  14.199  0.3185 -0.4734  0.2143
 4270TIP3    H134301   1.974   3.218  14.257  2.0430  1.3348 -0.1153
 4270TIP3    H234302   1.868   3.326  14.256  1.3111  0.6220 -0.1780
 4271TIP3   OH234303   2.674   5.619  14.030  0.1176  0.7131  0.2810
 4271TIP3    H134304   2.661   5.524  14.027 -1.3781  0.8006  2.1755
 4271TIP3    H234305   2.751   5.634  13.975 -0.1548 -1.4692 -0.8316
 4272TIP3   OH234306   2.054   0.847  16.278 -0.0084  0.0691  0.5993
 4272TIP3    H134307   2.081   0.787  16.209  0.7062 -0.1806  1.0803
 4272TIP3    H234308   2.056   0.933  16.237 -2.0430 -0.3114 -0.3900
 4273TIP3   OH234309   0.707   5.428  12.543 -0.5655 -0.4028 -0.7032
 4273TIP3    H134310   0.752   5.402  12.462  0.1810  0.3140 -0.5275
 4273TIP3    H234311   0.708   5.523  12.542 -1.1062 -0.3850 -0.1440
 4274TIP3   OH234312   5.584   4.994  11.430  0.4211 -0.0459  0.2907
 4274TIP3    H134313   5.532   4.948  11.497  1.3325 -3.3797 -1.0629
 4274TIP3    H234314   5.541   4.971  11.347  0.6146  2.1384 -0.4722
 4275TIP3   OH234315   6.145   6.286   5.668  0.7782 -0.5700  0.6867
 4275TIP3    H134316   6.205   6.353   5.702  1.1576 -0.9654  0.8119
 4275TIP3    H234317   6.203   6.220   5.630  0.3567 -0.0384 -0.9376
 4276TIP3   OH234318   4.828   2.693  12.576  0.1312 -0.7400 -0.6572
 4276TIP3    H134319   4.792   2.617  12.620 -1.0739 -0.5101 -1.2203
 4276TIP3    H234320   4.911   2.662  12.539  1.3849 -0.8483  1.9892
 4277TIP3   OH234321   0.563   4.043  17.198 -0.1356  0.2557 -0.2802
 4277TIP3    H134322   0.468   4.049  17.201 -0.0578  2.4233 -1.0020
 4277TIP3    H234323   0.587   4.075  17.111  1.3061  0.8361  0.2929
 4278TIP3   OH234324   5.664   4.092  11.644 -0.1032 -0.0691 -0.0292
 4278TIP3    H134325   5.717   4.158  11.599 -0.6688  0.3538 -0.0740
 4278TIP3    H234326   5.587   4.081  11.589 -0.8978  0.5958  0.9285
 4279TIP3   OH234327   2.011   3.881   1.190 -0.6276 -0.3151 -0.0058
 4279TIP3    H134328   2.065   3.864   1.113  1.1087  1.0971  0.8449
 4279TIP3    H234329   1.982   3.972   1.180 -0.1088 -0.0060  1.1413
 4280TIP3   OH234330   4.542   0.563   1.532 -0.1610  0.3113  0.1953
 4280TIP3    H134331   4.473   0.519   1.482 -0.4560  1.8019 -0.7737
 4280TIP3    H234332   4.619   0.558   1.476 -0.2242  1.0757  0.0231
 4281TIP3   OH234333   3.821   5.055   4.800 -0.1303  0.4935  0.2636
 4281TIP3    H134334   3.730   5.057   4.773 -0.4682 -0.4392  1.2570
 4281TIP3    H234335   3.863   5.123   4.748 -1.2606  0.5274 -0.6442
 4282TIP3   OH234336   5.489   3.143  11.477  0.1556 -0.1976 -0.1701
 4282TIP3    H134337   5.573   3.103  11.496  0.0030 -1.1711 -1.3840
 4282TIP3    H234338   5.504   3.237  11.485  1.4976 -0.3344 -0.8671
 4283TIP3   OH234339   5.987   2.875  14.736  0.3512  0.0947  0.3038
 4283TIP3    H134340   5.989   2.906  14.826  0.6361  3.4988 -0.7451
 4283TIP3    H234341   5.896   2.847  14.723  0.9941 -3.7655  2.4595
 4284TIP3   OH234342   3.308   2.100   3.506 -0.3595  0.1386 -0.1820
 4284TIP3    H134343   3.396   2.070   3.527 -0.1961  0.1397 -0.8379
 4284TIP3    H234344   3.250   2.033   3.542 -0.2646  1.3664  2.5457
 4285TIP3   OH234345   4.042   2.362  15.208 -0.4933  0.2541  0.1906
 4285TIP3    H134346   4.100   2.436  15.187  0.0928 -0.5319 -1.0621
 4285TIP3    H234347   4.033   2.315  15.125 -1.7880 -0.4419  0.7084
 4286TIP3   OH234348   3.024   1.713  13.255  0.5579 -0.6591  1.0449
 4286TIP3    H134349   3.090   1.783  13.262 -0.7215  0.6095  0.7381
 4286TIP3    H234350   2.978   1.731  13.174 -0.7742 -0.9918  1.7048
 4287TIP3   OH234351   4.059   6.176  13.819 -0.0387 -0.0593  0.8655
 4287TIP3    H134352   3.976   6.143  13.854  0.5063 -1.5968  0.7871
 4287TIP3    H234353   4.121   6.105  13.834  0.5096 -0.3219 -2.0628
 4288TIP3   OH234354   6.579   5.258  11.936 -0.5522  0.3381  0.0178
 4288TIP3    H134355   6.517   5.252  11.863  1.0697  0.7931 -1.4685
 4288TIP3    H234356   6.630   5.177  11.930  0.6693  1.1070 -0.4242
 4289TIP3   OH234357   5.946   1.500   3.253  0.1556 -0.2795  0.1780
 4289TIP3    H134358   6.014   1.567   3.259  1.4471 -1.2023 -2.5352
 4289TIP3    H234359   5.864   1.549   3.261  1.0954  1.2452  0.8670
 4290TIP3   OH234360   5.285   5.342   3.498  0.6523 -0.2236 -0.2358
 4290TIP3    H134361   5.316   5.421   3.454 -2.1755  0.9760 -0.3354
 4290TIP3    H234362   5.325   5.345   3.585  0.6109  1.3623 -0.2407
 4291TIP3   OH234363   0.683   1.644  15.922  0.3580  0.1908  0.2601
 4291TIP3    H134364   0.600   1.653  15.876  0.7098 -1.1469 -0.6814
 4291TIP3    H234365   0.746   1.620  15.855  1.1123 -0.7222  1.2562
 4292TIP3   OH234366   2.657   0.743  14.536 -0.8010 -0.4971  0.4349
 4292TIP3    H134367   2.645   0.834  14.509  0.6524 -0.2330  0.5628
 4292TIP3    H234368   2.690   0.699  14.458 -1.6671 -0.9621  0.3257
 4293TIP3   OH234369   5.170   6.730  11.467 -0.1069  0.4115 -0.2877
 4293TIP3    H134370   5.160   6.709  11.560 -3.1049 -1.5104 -0.9069
 4293TIP3    H234371   5.133   6.817  11.458  0.6562  0.8160  0.3652
 4294TIP3   OH234372   6.430   6.801  16.546  0.4323  0.3977  0.1462
 4294TIP3    H134373   6.420   6.872  16.608 -0.0108  1.3009 -0.9256
 4294TIP3    H234374   6.380   6.829  16.469  1.5001 -0.3791 -0.8684
 4295TIP3   OH234375   2.186   3.775   0.032 -0.2458 -0.1112  0.0659
 4295TIP3    H134376   2.096   3.800   0.049 -0.5331  0.1320 -1.6888
 4295TIP3    H234377   2.238   3.833   0.088 -1.1327  0.3360  0.4361
 4296TIP3   OH234378   0.943   5.230  13.929 -0.0745 -0.2677  0.0410
 4296TIP3    H134379   0.938   5.212  13.835  1.4562 -0.6637  0.0103
 4296TIP3    H234380   0.917   5.321  13.937  0.8048  0.0826 -0.9083
 4297TIP3   OH234381   2.193   5.568   4.990 -0.3348 -0.1719 -0.4841
 4297TIP3    H134382   2.141   5.513   5.048  1.2779  1.4523  2.8414
 4297TIP3    H234383   2.208   5.515   4.912 -1.3269 -3.2357  1.2509
 4298TIP3   OH234384   1.959   1.133  13.411  0.2186  0.1216 -0.0474
 4298TIP3    H134385   1.923   1.187  13.481  1.3305  0.7705  0.0507
 4298TIP3    H234386   1.936   1.179  13.330  1.1561  0.7707  0.0362
 4299TIP3   OH234387   5.295   6.430   3.957 -0.4703  0.2831  0.1191
 4299TIP3    H134388   5.390   6.431   3.969 -0.4268  0.0004 -0.1781
 4299TIP3    H234389   5.280   6.362   3.890 -0.8205  0.7940 -0.3327
 4300TIP3   OH234390   0.563   4.910  14.609  0.0461  0.2246 -0.0982
 4300TIP3    H134391   0.515   4.861  14.543 -0.7674  1.2785 -0.3297
 4300TIP3    H234392   0.572   4.998  14.572 -0.4743  0.8511  1.1838
 4301TIP3   OH234393   1.768   6.621  15.293 -0.2735 -0.7947  0.8212
 4301TIP3    H134394   1.832   6.636  15.361  0.4054 -0.3318  0.0947
 4301TIP3    H234395   1.724   6.705  15.281 -1.0673 -1.1243  1.3574
 4302TIP3   OH234396   6.301   2.202  13.749  0.1623 -0.1162 -0.2454
 4302TIP3    H134397   6.351   2.229  13.826 -1.5053 -2.2455  1.7147
 4302TIP3    H234398   6.211   2.227  13.768 -0.4973 -1.8650 -0.8968
 4303TIP3   OH234399   1.501   6.564  15.023  1.0702  0.1851 -0.2131
 4303TIP3    H134400   1.467   6.595  15.106  0.5779  0.9242 -0.6740
 4303TIP3    H234401   1.594   6.588  15.025  1.2048 -0.3727  0.3781
 4304TIP3   OH234402   3.271   4.597   1.500  0.6032 -0.5564  0.4790
 4304TIP3    H134403   3.191   4.594   1.553  0.1783 -0.6860 -0.1550
 4304TIP3    H234404   3.341   4.614   1.563  0.0123  0.0833  0.9849
 4305TIP3   OH234405   1.454   4.297   4.078  0.5276 -0.1065  0.1166
 4305TIP3    H134406   1.467   4.276   4.171 -0.8552 -0.7514  0.1825
 4305TIP3    H234407   1.524   4.248   4.033  0.8567 -0.2398  0.7589
 4306TIP3   OH234408   5.834   0.538  14.674  0.3795 -0.0601 -0.2375
 4306TIP3    H134409   5.895   0.474  14.712 -0.2513 -0.5596 -0.0603
 4306TIP3    H234410   5.775   0.560  14.746  1.3956  1.7647  0.1297
 4307TIP3   OH234411   2.581   3.014   3.642 -0.3859  0.0830  0.2626
 4307TIP3    H134412   2.638   2.942   3.618 -2.2327 -1.3397 -0.1331
 4307TIP3    H234413   2.585   3.019   3.737 -1.2005 -1.4249  0.3985
 4308TIP3   OH234414   1.101   1.021  14.021  0.0140 -0.4454 -0.1982
 4308TIP3    H134415   1.009   1.043  14.029  0.5639  2.4994 -0.7302
 4308TIP3    H234416   1.111   0.990  13.931 -0.4788 -1.0044 -0.0639
 4309TIP3   OH234417   5.831   0.296   6.600  0.1310 -0.2318  0.1289
 4309TIP3    H134418   5.897   0.320   6.535  0.1665 -0.9086 -0.0867
 4309TIP3    H234419   5.820   0.375   6.654  1.5073 -0.2855  0.5117
 4310TIP3   OH234420   5.398   1.378  14.919  0.7887 -0.2886  0.3961
 4310TIP3    H134421   5.452   1.333  14.983  1.6729 -1.7858 -1.3454
 4310TIP3    H234422   5.458   1.434  14.870  0.3560 -0.1393  0.0179
 4311TIP3   OH234423   0.887   6.088  17.225 -0.0002  0.5463  0.2190
 4311TIP3    H134424   0.867   6.001  17.189  0.3053  0.9773 -1.0433
 4311TIP3    H234425   0.962   6.074  17.283 -0.9881 -0.2942  1.3449
 4312TIP3   OH234426   3.138   0.004  16.178  0.3521 -0.1872 -0.1307
 4312TIP3    H134427   3.216   0.040  16.135  0.1698 -0.8230 -1.0054
 4312TIP3    H234428   3.149  -0.091  16.174 -0.1803 -0.2765  0.2961
 4313TIP3   OH234429   6.633   5.658  16.092  0.2719 -0.0189 -0.2843
 4313TIP3    H134430   6.658   5.566  16.101 -1.0465 -0.3522  0.1308
 4313TIP3    H234431   6.710   5.706  16.123  0.7377 -0.9840  0.1254
 4314TIP3   OH234432   1.781   5.798   2.264  0.1228 -0.0520  0.2729
 4314TIP3    H134433   1.791   5.703   2.252  0.4430  0.2586 -2.7105
 4314TIP3    H234434   1.690   5.809   2.290  0.0075 -1.1681  0.4099
 4315TIP3   OH234435   6.351   5.801  12.560  0.2841  0.3479  0.3202
 4315TIP3    H134436   6.345   5.891  12.592 -0.4449  0.8765 -1.2288
 4315TIP3    H234437   6.438   5.796  12.520 -1.1487  1.7276 -3.3361
 4316TIP3   OH234438   4.189   3.286  14.462  0.0551  0.6609 -0.4530
 4316TIP3    H134439   4.229   3.245  14.539  0.8465  0.3811 -0.9907
 4316TIP3    H234440   4.105   3.319  14.492 -0.9523 -1.9480 -0.1196
 4317TIP3   OH234441   5.710   5.254  11.405 -0.0498  0.1834  0.2328
 4317TIP3    H134442   5.787   5.289  11.448  1.6233 -0.6544 -1.8775
 4317TIP3    H234443   5.687   5.176  11.455  1.8282 -0.7720 -0.3003
 4318TIP3   OH234444   1.755   5.702  15.750  0.3760  0.0970  0.3127
 4318TIP3    H134445   1.697   5.777  15.738 -1.3044 -1.2737 -0.4443
 4318TIP3    H234446   1.785   5.709  15.841  1.1477  2.2466 -0.0456
 4319TIP3   OH234447   4.133   2.573  16.834  0.4836 -0.4608 -0.0221
 4319TIP3    H134448   4.087   2.521  16.900 -0.1158 -0.6295 -0.5654
 4319TIP3    H234449   4.114   2.529  16.751  0.4433  0.2897 -0.4199
 4320TIP3   OH234450   4.910   5.244   2.751  0.7300 -0.4023  0.1408
 4320TIP3    H134451   4.916   5.189   2.829  2.7758  0.4632  0.6626
 4320TIP3    H234452   4.921   5.183   2.678 -1.8319 -1.3121  0.4334
 4321TIP3   OH234453   6.359   3.599   2.258  0.2995 -0.2882  0.1018
 4321TIP3    H134454   6.265   3.614   2.250  0.4740  0.8119 -0.0429
 4321TIP3    H234455   6.393   3.611   2.169  0.5250 -1.1268  0.0657
 4322TIP3   OH234456   0.695   5.571  15.540 -0.5160 -0.1845  0.1183
 4322TIP3    H134457   0.635   5.559  15.613 -0.3047  0.8680  0.4846
 4322TIP3    H234458   0.692   5.488  15.492 -0.8453 -0.8012  1.1772
 4323TIP3   OH234459   5.250   0.329  16.779 -0.2849  0.2590 -0.5036
 4323TIP3    H134460   5.275   0.245  16.739  1.3717  0.2661  0.4339
 4323TIP3    H234461   5.288   0.395  16.721 -0.0321  0.3112 -0.2828
 4324TIP3   OH234462   4.407   3.883  16.793 -0.2484 -0.2969  0.6676
 4324TIP3    H134463   4.431   3.826  16.866 -1.4045  0.1077  1.3959
 4324TIP3    H234464   4.367   3.824  16.729  2.2175 -0.9216 -0.4096
 4325TIP3   OH234465   2.209   0.698  14.390 -0.5723  0.1831 -0.2068
 4325TIP3    H134466   2.163   0.638  14.448 -1.6243  0.2483 -0.9469
 4325TIP3    H234467   2.233   0.772  14.446  1.1015 -1.0623  0.8041
 4326TIP3   OH234468   1.088   4.185   3.183  0.3616 -0.1607 -0.4749
 4326TIP3    H134469   1.097   4.270   3.141  0.5893  0.5445  0.9475
 4326TIP3    H234470   0.998   4.158   3.165  0.6185 -0.1617 -1.8734
 4327TIP3   OH234471   2.011   4.203  12.427  0.2179 -0.0549  0.2661
 4327TIP3    H134472   1.998   4.278  12.486  0.2684  0.5843 -0.5199
 4327TIP3    H234473   2.096   4.218  12.387  0.7479 -1.1369  0.9351
 4328TIP3   OH234474   4.989   0.619  15.803 -0.1745  0.3554  0.4655
 4328TIP3    H134475   4.950   0.592  15.721 -1.9724  1.3938  0.9330
 4328TIP3    H234476   5.010   0.537  15.848 -0.2624 -0.2177 -0.5099
 4329TIP3   OH234477   1.356   5.193   0.298 -0.1838  0.6114  0.4161
 4329TIP3    H134478   1.261   5.188   0.307 -0.2475 -0.5241 -0.7027
 4329TIP3    H234479   1.375   5.150   0.215  1.3942 -0.0483  1.0850
 4330TIP3   OH234480   0.649   6.681   4.387  0.3632  0.0054  0.0644
 4330TIP3    H134481   0.575   6.649   4.437  0.5321 -0.3878  0.0682
 4330TIP3    H234482   0.638   6.642   4.300  0.5379 -0.0203  0.0525
 4331TIP3   OH234483   3.709   3.776   3.034 -0.6402  0.3977 -0.1237
 4331TIP3    H134484   3.685   3.868   3.017 -1.2835  0.0114 -1.4035
 4331TIP3    H234485   3.804   3.777   3.042 -0.5744  1.0756 -0.8662
 4332TIP3   OH234486   6.524   4.270  11.727  0.5114  0.0278 -0.5018
 4332TIP3    H134487   6.512   4.188  11.774 -0.2046 -0.5971 -1.7156
 4332TIP3    H234488   6.593   4.252  11.663 -0.3472  0.0267 -1.4640
 4333TIP3   OH234489   1.804   3.866  13.010 -0.5849 -0.4871 -0.1223
 4333TIP3    H134490   1.847   3.787  13.043  0.1469 -0.3904 -0.8138
 4333TIP3    H234491   1.821   3.932  13.078  1.9780  0.0490 -1.1799
 4334TIP3   OH234492   1.305   2.454   0.318  0.3015 -0.5854  0.0325
 4334TIP3    H134493   1.396   2.482   0.324  0.7542 -2.2050  1.3585
 4334TIP3    H234494   1.302   2.394   0.244  0.5404 -1.2605  0.5586
 4335TIP3   OH234495   6.737   4.209  16.322  0.0996 -0.0369  0.4096
 4335TIP3    H134496   6.769   4.183  16.408  2.3150 -0.4928 -0.4903
 4335TIP3    H234497   6.720   4.127  16.276 -0.5631  0.2017  0.2079
 4336TIP3   OH234498   6.022   2.838   1.823 -0.0866 -0.3501  0.2895
 4336TIP3    H134499   6.057   2.749   1.835 -0.8936 -0.7421 -0.1603
 4336TIP3    H234500   5.937   2.836   1.868 -0.0895  0.2101  0.3101
 4337TIP3   OH234501   6.550   4.734   3.392 -0.3308 -0.3314  0.1584
 4337TIP3    H134502   6.549   4.798   3.321 -0.0833 -2.7269 -2.2140
 4337TIP3    H234503   6.458   4.725   3.418 -0.2043  1.9884  1.6307
 4338TIP3   OH234504   0.639   0.477   3.758  0.4580 -0.4933  0.0949
 4338TIP3    H134505   0.546   0.463   3.773  0.5858 -0.6250  0.7940
 4338TIP3    H234506   0.653   0.570   3.773  0.0535  0.0014 -2.1808
 4339TIP3   OH234507   3.181   1.412  11.352  0.2871 -0.6466 -0.0377
 4339TIP3    H134508   3.215   1.500  11.333  1.3649 -1.2219 -0.9146
 4339TIP3    H234509   3.094   1.427  11.390  0.9577  0.8363  0.9941
 4340TIP3   OH234510   2.294   3.349   1.234 -0.2366  0.8191  0.1077
 4340TIP3    H134511   2.241   3.342   1.313 -0.8213 -0.0469 -0.3471
 4340TIP3    H234512   2.252   3.290   1.171  0.9446  0.5263 -0.4430
 4341TIP3   OH234513   2.751   2.303   0.275  0.6039  0.1662  0.0789
 4341TIP3    H134514   2.737   2.274   0.365  0.7905  0.2786  0.1439
 4341TIP3    H234515   2.846   2.305   0.265  0.6319  1.5757  0.3481
 4342TIP3   OH234516   2.666   3.400   1.546  0.1677  0.1957 -0.3787
 4342TIP3    H134517   2.627   3.315   1.525  2.6617 -1.4269  1.0321
 4342TIP3    H234518   2.610   3.464   1.502 -1.1049 -2.2371 -2.5868
 4343TIP3   OH234519   2.659   4.262   2.428 -0.0990 -0.1964  0.2846
 4343TIP3    H134520   2.691   4.275   2.517  1.5588  0.0901 -0.3252
 4343TIP3    H234521   2.600   4.187   2.435 -1.2147  0.7627  1.8825
 4344TIP3   OH234522   1.801   6.073  15.905  0.1467 -0.1929  0.8367
 4344TIP3    H134523   1.836   6.132  15.838  0.6997 -0.0647  1.2381
 4344TIP3    H234524   1.720   6.039  15.866  1.2124 -1.3046 -0.5481
 4345TIP3   OH234525   6.425   1.370  14.204 -0.4176 -0.0551 -0.3079
 4345TIP3    H134526   6.465   1.360  14.290 -0.4840 -1.0401 -0.3796
 4345TIP3    H234527   6.499   1.383  14.144 -0.1893 -1.7512 -0.4237
 4346TIP3   OH234528   6.825   5.799  10.606 -0.4091 -0.5053 -0.0250
 4346TIP3    H134529   6.783   5.798  10.520  0.9083  3.1104 -0.9081
 4346TIP3    H234530   6.757   5.829  10.666 -0.9445 -1.6515 -0.0365
 4347TIP3   OH234531   6.187   0.703  11.578 -0.3122  0.2017 -0.0461
 4347TIP3    H134532   6.123   0.760  11.620 -2.1284 -1.8709  0.1598
 4347TIP3    H234533   6.156   0.695  11.488 -1.6942 -2.5094  0.5777
 4348TIP3   OH234534   4.066   6.593  13.404 -0.3069 -0.4237  0.3831
 4348TIP3    H134535   4.048   6.636  13.487  1.9789 -0.2656  0.8593
 4348TIP3    H234536   4.083   6.502  13.427  0.8837 -0.2668  0.2135
 4349TIP3   OH234537   1.559   2.420  16.946  0.1873 -0.1817 -0.5445
 4349TIP3    H134538   1.615   2.479  16.895 -1.2607  3.3333  1.4994
 4349TIP3    H234539   1.544   2.467  17.028 -4.1730 -1.6968 -0.2112
 4350TIP3   OH234540   6.143   5.502   3.922  0.7143  0.9587 -0.0361
 4350TIP3    H134541   6.094   5.450   3.986  0.6825  0.4794 -0.4453
 4350TIP3    H234542   6.085   5.510   3.847  1.5838 -0.4121 -0.9010
 4351TIP3   OH234543   5.147   0.101   6.285 -0.2467  0.3798 -0.6965
 4351TIP3    H134544   5.072   0.128   6.232 -1.4571 -1.9848 -0.2789
 4351TIP3    H234545   5.110   0.052   6.357  1.6454  0.1828  0.2068
 4352TIP3   OH234546   0.099   4.075   5.503 -0.0126 -0.3684  0.1482
 4352TIP3    H134547   0.152   4.112   5.432  0.9615 -2.9608 -0.6242
 4352TIP3    H234548   0.146   4.097   5.583  0.4408  0.1556 -0.2538
 4353TIP3   OH234549   2.874   3.593   5.026  0.0431  0.7704  0.4769
 4353TIP3    H134550   2.789   3.635   5.040  0.2921  0.8644  1.8609
 4353TIP3    H234551   2.908   3.577   5.114  0.9578 -0.3183 -0.0440
 4354TIP3   OH234552   4.915   1.212   3.750 -0.2216  0.0142 -0.1935
 4354TIP3    H134553   4.840   1.188   3.697 -1.3138  0.6862  0.9810
 4354TIP3    H234554   4.887   1.291   3.797  1.0089 -0.0513  0.6976
 4355TIP3   OH234555   1.468   6.065   4.309  0.4710 -0.3437 -0.1896
 4355TIP3    H134556   1.416   5.985   4.320 -1.6202  1.2321  2.4180
 4355TIP3    H234557   1.540   6.055   4.372  1.0206 -0.7165 -0.8562
 4356TIP3   OH234558   3.846   0.476  10.841 -0.3989 -0.1241  0.4782
 4356TIP3    H134559   3.855   0.430  10.925  0.4138 -0.4244  0.2357
 4356TIP3    H234560   3.888   0.418  10.778 -0.5502  0.3407 -0.0564
 4357TIP3   OH234561   0.400   0.468  14.410  0.4333  0.4803  0.2961
 4357TIP3    H134562   0.495   0.458  14.411  0.5421  1.1519 -1.2029
 4357TIP3    H234563   0.382   0.515  14.329 -1.0396  1.8451  1.3638
 4358TIP3   OH234564   1.305   6.474  11.350 -0.1513  0.1573 -0.2020
 4358TIP3    H134565   1.289   6.414  11.422 -2.0619  0.5859 -0.2040
 4358TIP3    H234566   1.336   6.419  11.279 -1.0589 -0.7134  0.0519
 4359TIP3   OH234567   5.108   1.843   1.509  0.2970 -0.6197 -0.6539
 4359TIP3    H134568   5.168   1.770   1.522  2.2347  0.7541 -1.3734
 4359TIP3    H234569   5.022   1.809   1.533  1.5538 -2.2548  1.9452
 4360TIP3   OH234570   1.009   3.537  16.470  0.2339  0.4300 -0.0003
 4360TIP3    H134571   0.930   3.483  16.468 -0.7488  1.6999  1.7154
 4360TIP3    H234572   1.045   3.523  16.558 -0.0490  2.4467  0.5057
 4361TIP3   OH234573   4.934   5.247   0.600 -0.3836  0.2987  0.2941
 4361TIP3    H134574   4.866   5.314   0.587  0.7501  1.9156  2.1677
 4361TIP3    H234575   4.977   5.241   0.515 -2.1580 -0.0113 -0.6441
 4362TIP3   OH234576   4.997   4.181   2.386  0.1042  0.9723 -0.5488
 4362TIP3    H134577   5.084   4.181   2.345  0.3014 -1.1699 -0.2526
 4362TIP3    H234578   5.013   4.152   2.476 -0.9637 -0.0281 -0.6598
 4363TIP3   OH234579   0.622   5.740   3.650  0.7018  0.4348  0.4006
 4363TIP3    H134580   0.563   5.686   3.702  1.1596  0.1901  0.6760
 4363TIP3    H234581   0.564   5.791   3.593  0.2589 -0.6847 -0.2015
 4364TIP3   OH234582   2.506   2.051  14.084 -0.1374 -0.0019  0.2523
 4364TIP3    H134583   2.519   2.079  14.175  0.0962  1.6576 -0.2572
 4364TIP3    H234584   2.525   2.129  14.032  0.7930 -1.1959 -1.3072
 4365TIP3   OH234585   2.706   3.021   2.566  0.0077  0.0483  0.0786
 4365TIP3    H134586   2.739   2.932   2.573 -1.1891 -0.3677  0.9242
 4365TIP3    H234587   2.711   3.042   2.473 -1.0002 -1.4552 -0.3595
 4366TIP3   OH234588   5.729   2.806   6.339  0.5802 -0.3669  0.5266
 4366TIP3    H134589   5.692   2.762   6.416 -1.1928  0.7237  0.3421
 4366TIP3    H234590   5.787   2.873   6.375  0.1177 -0.1667  0.9111
 4367TIP3   OH234591   1.249   6.615  15.874  0.5286 -0.0773 -0.5492
 4367TIP3    H134592   1.169   6.591  15.827  0.0970 -0.4238  0.3388
 4367TIP3    H234593   1.306   6.538  15.864  0.9821  0.3883 -1.6549
 4368TIP3   OH234594   6.429   0.714  16.904  0.0119 -0.5743 -0.2369
 4368TIP3    H134595   6.401   0.664  16.981  1.4195 -2.3302 -0.7988
 4368TIP3    H234596   6.379   0.676  16.831 -1.3043  1.0684 -0.2707
 4369TIP3   OH234597   6.708   6.279  16.379 -0.2899  0.0297  0.2629
 4369TIP3    H134598   6.662   6.354  16.416 -0.0341 -0.0705  0.7788
 4369TIP3    H234599   6.801   6.297  16.393 -0.2568 -0.8024  1.2108
 4370TIP3   OH234600   3.692   3.625  15.210  0.5182 -0.0523  0.2559
 4370TIP3    H134601   3.768   3.572  15.185  0.2667 -1.2261  1.8026
 4370TIP3    H234602   3.625   3.560  15.234 -1.5559  0.8834 -2.4681
 4371TIP3   OH234603   4.962   3.062   2.108  0.9238  0.2621  0.3162
 4371TIP3    H134604   4.873   3.028   2.097  0.9995  0.5116 -1.2537
 4371TIP3    H234605   4.955   3.155   2.086  1.9004 -0.1043 -1.8538
 4372TIP3   OH234606   3.853   3.919  11.741  0.6123 -0.5148  0.0487
 4372TIP3    H134607   3.881   3.842  11.692  0.4702 -1.0355  0.7568
 4372TIP3    H234608   3.758   3.921  11.731  0.6114 -0.4560  0.0678
 4373TIP3   OH234609   1.261   6.072   2.181 -0.2579  0.6157 -0.2781
 4373TIP3    H134610   1.303   6.138   2.125  0.2399  0.7745  0.2800
 4373TIP3    H234611   1.293   6.090   2.269 -1.9259  1.1038  0.2732
 4374TIP3   OH234612   6.504   1.537   2.344 -0.1240 -0.2587 -0.5175
 4374TIP3    H134613   6.468   1.583   2.268 -1.0557 -1.9419 -1.1429
 4374TIP3    H234614   6.444   1.559   2.415 -1.5398 -1.7745 -1.1944
 4375TIP3   OH234615   0.127   5.624  16.963  0.1700 -0.5940  0.3051
 4375TIP3    H134616   0.095   5.704  16.921  0.1350 -0.8665 -0.1972
 4375TIP3    H234617   0.221   5.624  16.946  0.1613 -0.6881  0.2592
 4376TIP3   OH234618   2.149   5.033  11.824 -0.0276 -0.4619 -0.6332
 4376TIP3    H134619   2.184   5.119  11.801  1.3034 -1.1238 -1.2038
 4376TIP3    H234620   2.067   5.052  11.869  0.1645  1.0957 -0.8723
 4377TIP3   OH234621   4.694   2.296  14.884 -0.5084 -0.3610  0.1412
 4377TIP3    H134622   4.693   2.344  14.802 -1.3845 -1.5526 -0.5837
 4377TIP3    H234623   4.721   2.360  14.950 -0.8251  0.8763 -0.9027
 4378TIP3   OH234624   0.721   2.338   6.174  0.2520  0.6623  0.0422
 4378TIP3    H134625   0.658   2.330   6.245 -1.5630  1.5872 -1.3911
 4378TIP3    H234626   0.747   2.248   6.154 -0.2843  0.3009  0.9200
 4379TIP3   OH234627   0.149   1.754  12.518  0.2083  0.0259  0.1549
 4379TIP3    H134628   0.062   1.716  12.528  0.0858 -0.5591 -2.3933
 4379TIP3    H234629   0.141   1.814  12.443  2.1597 -0.7250 -0.7376
 4380TIP3   OH234630   3.546   0.249  17.063 -0.4329  0.1257  0.3775
 4380TIP3    H134631   3.458   0.218  17.041  0.2438 -1.5136 -0.2498
 4380TIP3    H234632   3.535   0.299  17.144 -1.9960  0.3439  0.0588
 4381TIP3   OH234633   4.001   5.786  11.535 -0.2668 -0.1243 -0.6546
 4381TIP3    H134634   3.970   5.773  11.625  2.9788 -1.3318  0.4360
 4381TIP3    H234635   4.047   5.705  11.514  2.9303  1.7815 -1.6299
 4382TIP3   OH234636   2.443   0.808  11.676  0.5192  0.2534 -0.0251
 4382TIP3    H134637   2.468   0.745  11.608 -1.1163 -0.0716 -0.3689
 4382TIP3    H234638   2.354   0.783  11.700  0.3499  1.5895  0.8303
 4383TIP3   OH234639   2.799   4.386  16.956  0.4665 -0.2450  0.1161
 4383TIP3    H134640   2.821   4.336  17.034 -1.9108 -0.9469  0.3970
 4383TIP3    H234641   2.787   4.476  16.987 -2.0786 -0.7971  0.9567
 4384TIP3   OH234642   6.445   2.482  14.051 -0.2049 -0.3673 -0.1183
 4384TIP3    H134643   6.528   2.452  14.087  0.3098  2.0919  0.9364
 4384TIP3    H234644   6.440   2.439  13.965  2.1178 -0.6400 -0.1925
 4385TIP3   OH234645   4.999   0.596   2.590 -0.0044 -0.2889  0.6235
 4385TIP3    H134646   4.961   0.659   2.529 -1.6870 -0.0466  1.8413
 4385TIP3    H234647   4.952   0.515   2.574  1.7772 -1.1615 -0.5539
 4386TIP3   OH234648   3.006   2.208   5.030  0.4215  0.2599  0.6897
 4386TIP3    H134649   2.926   2.182   4.984  0.3471  0.3643  0.7563
 4386TIP3    H234650   3.074   2.152   4.995 -0.1548 -1.7538  2.5494
 4387TIP3   OH234651   1.545   5.148  14.997 -0.1003 -0.3195 -0.2643
 4387TIP3    H134652   1.566   5.222  15.053 -2.1035 -0.2417  0.4652
 4387TIP3    H234653   1.576   5.072  15.045  0.7160 -0.0714 -0.3800
 4388TIP3   OH234654   1.928   3.650  15.953 -0.2429 -0.4126 -0.2937
 4388TIP3    H134655   1.930   3.742  15.927 -1.0791 -0.4530 -0.5556
 4388TIP3    H234656   2.017   3.631  15.982  0.8370 -0.4395 -3.3515
 4389TIP3   OH234657   3.748   1.914  15.387  0.4785 -0.4433 -0.0439
 4389TIP3    H134658   3.770   1.923  15.294  0.5856 -1.5888 -0.1498
 4389TIP3    H234659   3.747   2.003  15.421  1.0844 -0.0617 -1.0041
 4390TIP3   OH234660   2.963   2.664   2.314 -0.2737 -0.1340  0.2804
 4390TIP3    H134661   3.038   2.613   2.282  0.8909  0.1214  2.4088
 4390TIP3    H234662   2.911   2.601   2.363 -0.6376  0.0252  0.1003
 4391TIP3   OH234663   0.559   3.163  12.565 -0.2808 -0.0114  0.7355
 4391TIP3    H134664   0.548   3.257  12.578 -1.7228 -0.2219  1.3039
 4391TIP3    H234665   0.545   3.125  12.652 -2.8265 -0.9306  0.0397
 4392TIP3   OH234666   0.520   0.124  12.377  0.4252  0.2356  0.0384
 4392TIP3    H134667   0.470   0.168  12.446 -0.7764 -3.1561  1.5327
 4392TIP3    H234668   0.469   0.139  12.297 -2.0310 -1.4212  1.1794
 4393TIP3   OH234669   5.153   4.181   4.527 -0.3401  0.1359 -0.3585
 4393TIP3    H134670   5.112   4.235   4.595  1.7900  0.9089  0.3939
 4393TIP3    H234671   5.242   4.216   4.519  0.0161 -1.0598 -2.3433
 4394TIP3   OH234672   1.793   5.075   5.326 -0.2554 -0.0718  0.3234
 4394TIP3    H134673   1.803   4.981   5.340 -0.6831  0.0222  1.3743
 4394TIP3    H234674   1.740   5.082   5.246  1.1802 -0.6790 -0.7084
 4395TIP3   OH234675   1.420   0.767   6.895  0.1635 -0.1085  0.4043
 4395TIP3    H134676   1.407   0.859   6.873  1.2868 -0.0231  0.0069
 4395TIP3    H234677   1.410   0.721   6.812 -0.0383 -0.3032  0.5359
 4396TIP3   OH234678   0.979   5.592   0.008 -0.5570 -0.5131  0.5064
 4396TIP3    H134679   1.067   5.589   0.045 -1.1924  0.4523  2.2670
 4396TIP3    H234680   0.991   5.578  -0.086  1.6101  0.9033  0.5050
 4397TIP3   OH234681   4.514   0.093   4.603  0.5777  0.0928  0.0463
 4397TIP3    H134682   4.586   0.112   4.542  0.7062  0.4890  0.3195
 4397TIP3    H234683   4.531   0.149   4.678  0.7284 -0.8024  0.6987
 4398TIP3   OH234684   2.948   1.136  12.279  0.8392 -0.1352 -0.0275
 4398TIP3    H134685   2.884   1.191  12.323  0.2675 -2.4195  2.2663
 4398TIP3    H234686   2.897   1.081  12.220  1.1740  0.4299 -0.8686
 4399TIP3   OH234687   0.963   5.011  12.392  0.3286 -0.0920  0.4868
 4399TIP3    H134688   0.922   4.967  12.318  1.3026 -0.5112  0.1784
 4399TIP3    H234689   0.971   4.943  12.459  0.5807 -0.0402  0.5123
 4400TIP3   OH234690   1.158   0.030   2.082  0.4336 -0.1036 -0.3445
 4400TIP3    H134691   1.231  -0.015   2.039 -0.3455 -0.0140 -1.8382
 4400TIP3    H234692   1.126   0.092   2.016  0.0871  1.0781  0.9010
 4401TIP3   OH234693   4.367   5.414  15.822 -0.5658 -0.3425  0.3909
 4401TIP3    H134694   4.309   5.363  15.766  0.5929 -2.1531  0.7469
 4401TIP3    H234695   4.356   5.504  15.793 -2.7923 -0.7489 -0.1857
 4402TIP3   OH234696   5.855   5.574  11.173  0.1719  0.0755 -0.8859
 4402TIP3    H134697   5.825   5.533  11.092  0.5955 -0.8646 -0.5857
 4402TIP3    H234698   5.776   5.583  11.226  0.3149 -2.1313 -0.2092
 4403TIP3   OH234699   6.142   0.344   0.065  0.4453 -0.2189 -0.2442
 4403TIP3    H134700   6.169   0.346  -0.027  1.4398 -1.8321 -0.0302
 4403TIP3    H234701   6.195   0.274   0.103 -0.6226 -0.1899  1.3505
 4404TIP3   OH234702   3.185   0.278   4.375 -0.3435  0.4705 -0.5753
 4404TIP3    H134703   3.195   0.373   4.376  0.9731  0.3524  0.2586
 4404TIP3    H234704   3.270   0.245   4.344 -0.3465 -0.4521  0.3315
 4405TIP3   OH234705   3.439   3.687   3.913  0.5169  0.2016 -0.4614
 4405TIP3    H134706   3.414   3.776   3.937 -1.1377 -0.3407 -0.0801
 4405TIP3    H234707   3.432   3.638   3.995  1.0101 -0.3729 -0.7549
 4406TIP3   OH234708   5.373   2.045  14.925 -0.4683  0.2287 -0.4996
 4406TIP3    H134709   5.286   2.027  14.961  0.2321 -1.4276  0.4666
 4406TIP3    H234710   5.380   2.141  14.927 -1.7411  0.3350  0.7079
 4407TIP3   OH234711   2.930   3.844   0.861  0.6592 -0.1655 -0.3038
 4407TIP3    H134712   2.882   3.767   0.832  3.1675 -2.3218  0.8113
 4407TIP3    H234713   2.916   3.846   0.956  2.1796 -0.4617 -0.0517
 4408TIP3   OH234714   6.712   3.234  14.975  0.1802  0.0810 -0.0782
 4408TIP3    H134715   6.677   3.145  14.971  0.1321  0.1538 -1.4927
 4408TIP3    H234716   6.637   3.289  14.997 -0.0841 -0.0520 -0.6542
 4409TIP3   OH234717   4.722   4.387  15.313 -0.1461  0.0539 -0.6551
 4409TIP3    H134718   4.705   4.424  15.226 -2.2934 -0.4455 -0.5083
 4409TIP3    H234719   4.668   4.441  15.372  0.2516 -0.4507  0.1767
 4410TIP3   OH234720   5.168   2.930  14.052 -0.6330  0.2727  0.3777
 4410TIP3    H134721   5.185   3.024  14.062  1.3458  0.0322 -0.3428
 4410TIP3    H234722   5.126   2.922  13.967 -1.9897  0.6042  0.9887
 4411TIP3   OH234723   4.003   4.628   5.028  0.2679 -0.2756  0.2923
 4411TIP3    H134724   3.908   4.623   5.038  0.3281 -0.0764  1.0306
 4411TIP3    H234725   4.019   4.603   4.937 -0.3532 -2.0261  0.6201
 4412TIP3   OH234726   3.981   5.964   3.152  0.4284 -0.1423  0.6125
 4412TIP3    H134727   3.895   5.993   3.122 -0.1110 -1.5177  0.7589
 4412TIP3    H234728   4.018   5.918   3.077  0.5807 -0.4910  0.8993
 4413TIP3   OH234729   2.442   6.000  17.273  0.3030  0.0382  0.5263
 4413TIP3    H134730   2.504   5.996  17.200  1.1076  0.1738  1.1873
 4413TIP3    H234731   2.497   6.007  17.351 -0.5696  0.9885  1.0726
 4414TIP3   OH234732   1.175   5.823  13.919 -0.2884 -0.5377  0.0373
 4414TIP3    H134733   1.232   5.805  13.845  1.1556 -0.1503  1.0038
 4414TIP3    H234734   1.197   5.755  13.983 -0.2419  0.1557  0.7759
 4415TIP3   OH234735   6.051   4.257  13.189 -0.5265  0.5101  0.1073
 4415TIP3    H134736   6.085   4.346  13.203 -1.8744  1.0549  0.1201
 4415TIP3    H234737   6.042   4.221  13.277 -1.2313  0.8728  0.1938
 4416TIP3   OH234738   0.974   3.578  12.921  0.0168 -0.4032  0.1108
 4416TIP3    H134739   1.010   3.661  12.952 -0.2993 -0.4059  0.4951
 4416TIP3    H234740   1.042   3.513  12.941 -0.1182 -0.3802  0.6622
 4417TIP3   OH234741   6.642   4.502  16.143  0.0108  0.1379  0.7772
 4417TIP3    H134742   6.592   4.583  16.144 -0.3168 -0.0372 -0.2562
 4417TIP3    H234743   6.711   4.516  16.208 -1.2370  0.4599  2.0666
 4418TIP3   OH234744   6.013   5.299   4.611  0.2755 -0.0442 -0.2123
 4418TIP3    H134745   6.062   5.218   4.627  0.3882 -0.0526 -0.5969
 4418TIP3    H234746   5.929   5.284   4.654  0.9960  0.4071  1.4396
 4419TIP3   OH234747   5.951   1.687  12.640 -0.0257 -0.5212  0.2404
 4419TIP3    H134748   5.913   1.618  12.695  0.7711 -1.0620  0.1257
 4419TIP3    H234749   5.897   1.764  12.658 -2.5091 -1.7389 -1.4531
 4420TIP3   OH234750   3.821   6.200   3.589 -0.1433  0.4838  0.4402
 4420TIP3    H134751   3.887   6.133   3.572 -0.3285  0.3792  0.1115
 4420TIP3    H234752   3.857   6.280   3.550 -0.5930  0.2303 -0.5211
 4421TIP3   OH234753   5.377   5.592  16.185  0.3919  0.2955  0.3409
 4421TIP3    H134754   5.368   5.687  16.187  2.5884  0.5364  1.6674
 4421TIP3    H234755   5.394   5.567  16.276 -1.5230 -1.5728  0.2787
 4422TIP3   OH234756   2.129   5.332  16.914 -0.2174  0.0257 -0.0452
 4422TIP3    H134757   2.222   5.322  16.932 -0.3589  0.0210  0.7229
 4422TIP3    H234758   2.125   5.369  16.826  0.4960 -0.3111 -0.2238
 4423TIP3   OH234759   6.090   0.854   0.600 -0.4462  0.2668 -0.1010
 4423TIP3    H134760   6.138   0.794   0.543  2.6420  0.1968  2.3315
 4423TIP3    H234761   6.053   0.797   0.668 -1.7755  0.6443 -0.4758
 4424TIP3   OH234762   1.438   6.404   3.789  0.0530 -0.2233 -0.4023
 4424TIP3    H134763   1.409   6.494   3.781  1.2403  0.2553  0.3370
 4424TIP3    H234764   1.440   6.371   3.699 -2.8586 -0.3734 -0.4908
 4425TIP3   OH234765   3.557   2.749  11.903  0.4499  0.6659 -0.1984
 4425TIP3    H134766   3.536   2.755  11.810 -0.9275  0.9328  0.1072
 4425TIP3    H234767   3.638   2.799  11.912  0.7134  0.4598 -1.2832
 4426TIP3   OH234768   5.843   5.037  12.624 -0.6117  0.2579 -0.1434
 4426TIP3    H134769   5.868   5.077  12.707 -2.9214  0.3193  0.6005
 4426TIP3    H234770   5.917   4.981  12.600  0.5365  1.0552  1.3991
 4427TIP3   OH234771   1.458   1.920  16.265 -0.3872 -0.1889 -0.9064
 4427TIP3    H134772   1.366   1.925  16.240  0.1290  3.0086 -2.7687
 4427TIP3    H234773   1.491   2.009  16.251  2.4871 -0.6406  1.8463
 4428TIP3   OH234774   2.582   1.893  16.117  0.1264 -0.3998  0.2370
 4428TIP3    H134775   2.565   1.915  16.209 -2.1541  0.1074 -0.2365
 4428TIP3    H234776   2.515   1.829  16.095  0.0075  0.2237 -1.3401
 4429TIP3   OH234777   6.671   0.214   5.776 -0.3288 -0.4876 -0.4854
 4429TIP3    H134778   6.620   0.288   5.745 -2.5285 -2.3160 -1.5603
 4429TIP3    H234779   6.657   0.211   5.870 -1.3796 -0.3483 -0.6325
 4430TIP3   OH234780   6.053   5.107  14.603  0.1292  0.5397  0.1548
 4430TIP3    H134781   6.146   5.114  14.580 -0.0467  0.3174 -0.6424
 4430TIP3    H234782   6.038   5.012  14.609 -0.1294  0.5681 -0.0599
 4431TIP3   OH234783   5.682   5.160   2.315 -0.0432  0.1118  0.9272
 4431TIP3    H134784   5.589   5.172   2.296  0.1425 -1.2914 -1.2690
 4431TIP3    H234785   5.705   5.078   2.270  2.9471  2.0042 -1.3584
 4432TIP3   OH234786   5.909   3.913  13.242  0.3309 -0.1845 -0.2885
 4432TIP3    H134787   5.893   3.992  13.191  1.3631 -1.1639 -2.2553
 4432TIP3    H234788   5.991   3.930  13.287  0.3609  0.0123 -0.4150
 4433TIP3   OH234789   1.272   6.192   0.476  0.1623  0.1751 -0.1304
 4433TIP3    H134790   1.181   6.164   0.479  0.5058 -0.9106  1.0397
 4433TIP3    H234791   1.323   6.112   0.467  0.9857  0.8556 -1.9761
 4434TIP3   OH234792   5.762   5.689  14.210  0.4350 -0.2588  0.0798
 4434TIP3    H134793   5.740   5.765  14.265 -0.8498 -0.0468 -0.6996
 4434TIP3    H234794   5.817   5.634  14.267  0.9644  1.0047  0.8241
 4435TIP3   OH234795   6.752   3.524  17.218 -0.3699  0.2652 -0.3498
 4435TIP3    H134796   6.781   3.616  17.219  0.8312 -0.0958 -0.5377
 4435TIP3    H234797   6.707   3.514  17.134 -0.9628  0.8032 -0.1101
 4436TIP3   OH234798   0.972   3.124   1.234 -0.1212  0.2715  0.8901
 4436TIP3    H134799   0.907   3.102   1.167  0.1178  0.4952  0.5813
 4436TIP3    H234800   1.053   3.139   1.185 -0.0528  0.8812  1.1793
 4437TIP3   OH234801   1.029   2.476   5.634 -0.1179 -0.8668 -0.1784
 4437TIP3    H134802   0.979   2.535   5.578 -0.0714 -0.1739  0.4848
 4437TIP3    H234803   0.976   2.397   5.640 -0.1050 -0.9573 -1.2100
 4438TIP3   OH234804   2.340   4.812   1.037 -0.1994  0.0536 -0.1423
 4438TIP3    H134805   2.327   4.768   1.121 -2.2017  0.2311 -0.3184
 4438TIP3    H234806   2.311   4.748   0.972  2.3998 -0.5266 -0.8445
 4439TIP3   OH234807   0.950   3.046   0.477 -0.0660  0.6000  0.2579
 4439TIP3    H134808   0.856   3.038   0.493  0.1581 -0.2841  1.2375
 4439TIP3    H234809   0.966   2.995   0.398 -0.1663 -0.6724  1.0320
 4440TIP3   OH234810   5.750   3.151  14.028 -0.2285  0.3840  0.3556
 4440TIP3    H134811   5.815   3.109  14.085 -1.1420 -0.6919  0.6522
 4440TIP3    H234812   5.799   3.179  13.951  1.1724  2.4762  1.9132
 4441TIP3   OH234813   3.418   4.244  15.551  0.2387 -0.5137 -0.5488
 4441TIP3    H134814   3.366   4.165  15.566 -1.4476  0.4609 -1.1230
 4441TIP3    H234815   3.505   4.211  15.528 -0.4138 -2.2012 -0.7148
 4442TIP3   OH234816   2.419   1.222   4.129 -0.2063 -0.4510  0.1080
 4442TIP3    H134817   2.403   1.225   4.223 -0.3922 -1.1702  0.1085
 4442TIP3    H234818   2.335   1.195   4.091 -0.5597  1.2522 -0.4124
 4443TIP3   OH234819   3.724   6.435   1.945  0.3057 -0.2200 -0.1924
 4443TIP3    H134820   3.800   6.407   1.996 -0.1533 -0.4814  0.3440
 4443TIP3    H234821   3.744   6.407   1.856  0.7270 -0.5069 -0.0082
 4444TIP3   OH234822   0.668   3.097   0.528 -0.7664 -0.3014 -0.0996
 4444TIP3    H134823   0.699   3.133   0.611 -1.8309  0.9662 -0.2231
 4444TIP3    H234824   0.625   3.171   0.484  0.0027 -0.8879 -1.8994
 4445TIP3   OH234825   1.653   1.015   5.921  0.2486  0.2599 -0.2496
 4445TIP3    H134826   1.716   0.960   5.967  1.0833  0.0149 -1.6261
 4445TIP3    H234827   1.568   0.991   5.960  0.7257 -1.1761 -0.0248
 4446TIP3   OH234828   2.885   1.100   3.813 -0.9369 -0.6497 -0.6648
 4446TIP3    H134829   2.905   1.188   3.845 -2.3224 -0.7535  0.6162
 4446TIP3    H234830   2.837   1.115   3.732 -0.5103 -0.2536 -0.8497
 4447TIP3   OH234831   0.693   6.700  11.411 -0.1892 -0.0828  0.0221
 4447TIP3    H134832   0.626   6.721  11.345  0.8142 -1.1066 -1.3748
 4447TIP3    H234833   0.771   6.745  11.380  0.2191 -0.3270  0.6902
 4448TIP3   OH234834   5.838   5.397   5.776  0.0421 -0.0290  0.1597
 4448TIP3    H134835   5.763   5.347   5.808  0.6965 -0.7900  0.5634
 4448TIP3    H234836   5.894   5.407   5.853  0.6982 -0.1239 -0.2921
 4449TIP3   OH234837   1.307   6.715   1.888  0.1126 -0.1372  0.0092
 4449TIP3    H134838   1.385   6.660   1.877 -1.3239 -1.9451 -1.8839
 4449TIP3    H234839   1.259   6.705   1.806 -1.1626  2.5529  0.3205
 4450TIP3   OH234840   6.399   3.303   2.297  0.1638 -0.1969 -0.0735
 4450TIP3    H134841   6.426   3.239   2.231 -0.5916 -0.2646 -0.3325
 4450TIP3    H234842   6.305   3.315   2.281 -0.3208 -1.1704  1.7993
 4451TIP3   OH234843   4.284   1.978   2.355 -0.0323  0.0323  0.1545
 4451TIP3    H134844   4.208   1.922   2.374 -1.2014  1.2714 -0.6037
 4451TIP3    H234845   4.253   2.067   2.375  1.9814  0.3844  1.9479
 4452TIP3   OH234846   1.792   3.238   0.801 -0.5364  0.5359 -0.1513
 4452TIP3    H134847   1.727   3.215   0.867  0.4843  2.5536  1.7165
 4452TIP3    H234848   1.847   3.161   0.793 -0.6634  0.2449  1.4424
 4453TIP3   OH234849   6.319   4.940  16.338 -0.1937  0.2136  0.5210
 4453TIP3    H134850   6.279   4.861  16.302  1.3838 -0.7795  0.8304
 4453TIP3    H234851   6.291   4.943  16.429  0.4001 -0.4682  0.7336
 4454TIP3   OH234852   1.424   0.387  16.946 -0.0042  0.3370  0.1474
 4454TIP3    H134853   1.373   0.403  17.026 -0.4388  0.2270 -0.1015
 4454TIP3    H234854   1.420   0.292  16.933 -0.2089  0.3875 -0.1797
 4455TIP3   OH234855   1.877   4.531   5.763  0.1646  0.2675 -0.3476
 4455TIP3    H134856   1.915   4.506   5.847  0.5734 -0.1233 -0.6352
 4455TIP3    H234857   1.857   4.624   5.771 -0.3108  0.1124  0.3649
 4456TIP3   OH234858   1.912   2.717  13.547 -0.3707  0.3485  0.0922
 4456TIP3    H134859   1.914   2.729  13.452 -0.8949 -0.7533 -0.0753
 4456TIP3    H234860   1.981   2.774  13.580  0.1755  0.3407 -0.9945
 4457TIP3   OH234861   3.702   6.754  15.913 -0.2112  0.7584  0.4061
 4457TIP3    H134862   3.647   6.752  15.992 -0.1685  1.6923  0.4645
 4457TIP3    H234863   3.676   6.676  15.864 -2.9106  2.0870 -0.4640
 4458TIP3   OH234864   1.626   5.933   1.630  0.1201 -0.2265  0.5581
 4458TIP3    H134865   1.534   5.907   1.633 -0.1396  0.3901 -0.9674
 4458TIP3    H234866   1.624   6.028   1.634  0.5841 -0.1400 -0.7484
 4459TIP3   OH234867   2.895   3.512  15.550  0.2526  0.0010 -0.0255
 4459TIP3    H134868   2.844   3.445  15.504 -0.0259  0.7240 -0.7804
 4459TIP3    H234869   2.902   3.584  15.488  0.6959  0.6112  0.7216
 4460TIP3   OH234870   6.123   6.132  16.027  1.0657 -0.2348 -0.0498
 4460TIP3    H134871   6.044   6.111  15.977  0.4371 -0.6661  1.0955
 4460TIP3    H234872   6.118   6.076  16.105  3.3230 -1.4763 -0.7092
 4461TIP3   OH234873   5.846   6.235  12.854  0.5949 -0.0649  0.1632
 4461TIP3    H134874   5.886   6.309  12.808  0.8710 -0.5671 -0.4090
 4461TIP3    H234875   5.826   6.270  12.941  2.3183  0.1939  0.4881
 4462TIP3   OH234876   3.076   5.941  13.980  0.8549 -0.3265 -0.0761
 4462TIP3    H134877   3.111   5.950  14.069 -0.0234 -0.8778  0.3394
 4462TIP3    H234878   3.026   6.021  13.966 -1.8542 -1.6433  1.2758
 4463TIP3   OH234879   2.018   5.821   0.378  0.1936  0.0204  0.7496
 4463TIP3    H134880   2.079   5.894   0.386  0.0072  0.0512  2.2335
 4463TIP3    H234881   2.060   5.750   0.426  0.4737 -0.9324 -0.8702
 4464TIP3   OH234882   6.749   4.678  15.616  0.2327 -0.2447  0.5817
 4464TIP3    H134883   6.826   4.628  15.643  0.8636  1.0314  1.2148
 4464TIP3    H234884   6.675   4.622  15.639  0.9386 -2.1039 -1.2709
 4465TIP3   OH234885   5.927   4.750  15.971 -0.2596  0.1654  0.1503
 4465TIP3    H134886   5.940   4.777  15.880  1.7325  2.1121  0.9092
 4465TIP3    H234887   6.016   4.747  16.008 -0.7933 -2.9775  1.4621
 4466TIP3   OH234888   5.795   6.000   1.872  0.1849 -0.0893 -0.3673
 4466TIP3    H134889   5.730   5.957   1.816 -0.3676  1.2054 -0.7721
 4466TIP3    H234890   5.744   6.060   1.926  1.0741  1.3954 -1.1123
 4467TIP3   OH234891   3.916   5.696  13.030 -0.1714 -0.2288 -0.1040
 4467TIP3    H134892   3.861   5.774  13.027  2.9423  2.1374  0.3194
 4467TIP3    H234893   3.958   5.692  12.945 -1.0254 -2.1415 -0.4992
 4468TIP3   OH234894   4.646   1.925   0.856  0.4689  1.2043  0.4881
 4468TIP3    H134895   4.687   1.839   0.862  0.9766  1.4629  0.7054
 4468TIP3    H234896   4.714   1.987   0.883 -0.3675  1.5659  1.8665
 4469TIP3   OH234897   0.537   1.125   2.273  0.1767  0.1638 -0.1267
 4469TIP3    H134898   0.568   1.213   2.293 -0.8545  0.9767 -1.7897
 4469TIP3    H234899   0.614   1.069   2.281  0.9415  1.2813  0.5617
 4470TIP3   OH234900   0.070   4.733   2.444 -0.1664 -0.0360 -0.0252
 4470TIP3    H134901   0.039   4.658   2.393  0.2303 -0.1299 -0.1276
 4470TIP3    H234902   0.049   4.710   2.535  1.4563 -1.0234  0.1313
 4471TIP3   OH234903   6.773   1.880  14.411  0.0121  0.6069  0.0237
 4471TIP3    H134904   6.832   1.815  14.448  0.9840  1.3973 -0.0812
 4471TIP3    H234905   6.772   1.860  14.317 -0.3072  0.2633  0.1005
 4472TIP3   OH234906   6.005   1.889   4.822  0.0006 -0.1889 -0.6024
 4472TIP3    H134907   5.921   1.902   4.779 -0.5106  0.1329  0.4483
 4472TIP3    H234908   6.009   1.957   4.889  0.8793 -0.5109 -0.3086
 4473TIP3   OH234909   6.710   5.120   3.935 -0.3829 -0.6176 -0.3066
 4473TIP3    H134910   6.742   5.085   4.018  1.0305  1.4396  0.1097
 4473TIP3    H234911   6.661   5.199   3.960 -0.8150 -0.5348 -1.3660
 4474TIP3   OH234912   5.078   5.356   5.368  0.1462  0.4726  0.0821
 4474TIP3    H134913   5.021   5.368   5.445  1.0580 -0.0440  0.8588
 4474TIP3    H234914   5.112   5.444   5.350 -0.7351  0.7577 -0.2860
 4475TIP3   OH234915   4.228   0.981   6.078 -0.2059  0.2960 -0.3498
 4475TIP3    H134916   4.191   0.939   6.001 -0.6343  0.7906 -0.4169
 4475TIP3    H234917   4.258   1.066   6.047  0.4809  0.1334 -0.1707
 4476TIP3   OH234918   0.249   1.631  12.805  0.0782  0.5714  0.1294
 4476TIP3    H134919   0.289   1.547  12.825 -1.5914 -0.3443 -0.1687
 4476TIP3    H234920   0.162   1.609  12.771 -0.4995  2.4248  0.2730
 4477TIP3   OH234921   4.323   5.499   0.474 -0.0333 -0.7206 -0.6005
 4477TIP3    H134922   4.294   5.457   0.555  1.7735  0.8340  0.9474
 4477TIP3    H234923   4.398   5.448   0.445  0.5210 -0.1575 -0.1872
 4478TIP3   OH234924   1.426   2.926  14.146  0.3893 -0.1854  0.9949
 4478TIP3    H134925   1.498   2.988  14.133 -0.4523  0.7967  0.8323
 4478TIP3    H234926   1.468   2.841  14.154  1.5471  0.3334  0.6397
 4479TIP3   OH234927   6.002   2.720  12.677 -0.2679 -0.4092  0.0691
 4479TIP3    H134928   6.044   2.719  12.591  2.3778 -1.3786  1.2528
 4479TIP3    H234929   5.917   2.680  12.662 -0.9902  1.7496 -2.5107
 4480TIP3   OH234930   6.210   4.323   5.562  0.1783 -0.9815 -0.9417
 4480TIP3    H134931   6.293   4.365   5.544 -1.2577  3.9275  2.0606
 4480TIP3    H234932   6.143   4.385   5.533 -2.2379 -1.5715  2.5980
 4481TIP3   OH234933   0.722   5.929   3.149 -0.2351 -0.6298 -0.3492
 4481TIP3    H134934   0.638   5.890   3.126 -2.1497  1.9976  1.6060
 4481TIP3    H234935   0.756   5.964   3.067 -1.2261 -1.3748 -1.1076
 4482TIP3   OH234936   0.906   4.224   2.025 -0.3155 -0.1634  0.3813
 4482TIP3    H134937   0.824   4.274   2.020 -0.6608 -0.8245 -2.2333
 4482TIP3    H234938   0.927   4.220   2.118 -2.3459  1.4865  0.9712
 4483TIP3   OH234939   4.733   6.612  16.242  0.0521 -0.2920 -0.0855
 4483TIP3    H134940   4.822   6.641  16.259 -0.1979  1.0032 -0.8757
 4483TIP3    H234941   4.704   6.573  16.325  1.0117  0.1178  0.4597
 4484TIP3   OH234942   1.604   5.312  14.072  0.7678  0.3377  0.2037
 4484TIP3    H134943   1.626   5.368  14.147  0.8950  0.8000 -0.1753
 4484TIP3    H234944   1.525   5.266  14.099 -0.9809  2.7213 -0.4870
 4485TIP3   OH234945   6.015   1.208  15.661  0.0139 -0.7019 -0.1545
 4485TIP3    H134946   6.025   1.142  15.593 -2.0937 -0.5748 -0.6739
 4485TIP3    H234947   5.956   1.168  15.725 -0.0437  0.1077  0.3202
 4486TIP3   OH234948   1.835   0.808   3.210 -0.2684  0.6037 -0.1503
 4486TIP3    H134949   1.824   0.810   3.115 -0.4129  0.6706 -0.1328
 4486TIP3    H234950   1.929   0.824   3.223 -0.2498  0.6062 -0.2817
 4487TIP3   OH234951   4.805   6.461   5.006 -0.1839  0.0234  0.2981
 4487TIP3    H134952   4.782   6.549   4.978 -2.8786 -1.4217 -2.6516
 4487TIP3    H234953   4.791   6.461   5.101  3.1530  3.5035  1.0106
 4488TIP3   OH234954   4.702   6.364  10.893 -0.2225  0.9463  0.1395
 4488TIP3    H134955   4.679   6.309  10.819 -2.2817  0.0985  1.3419
 4488TIP3    H234956   4.671   6.451  10.869 -0.5249  0.7598 -0.1504
 4489TIP3   OH234957   0.608   4.868  13.660 -0.1559  0.7466  0.5969
 4489TIP3    H134958   0.611   4.951  13.613  1.4731  0.9564  1.0044
 4489TIP3    H234959   0.533   4.822  13.623 -0.2075  1.7977 -0.6737
 4490TIP3   OH234960   6.014   1.513   4.627 -0.1244  0.0885 -0.3087
 4490TIP3    H134961   6.061   1.452   4.570 -0.0409  0.3546 -0.5232
 4490TIP3    H234962   5.945   1.549   4.572 -1.5212 -1.3726  0.3809
 4491TIP3   OH234963   4.877   5.834   5.239 -0.0286  0.4501 -0.1516
 4491TIP3    H134964   4.872   5.918   5.193  1.0873 -0.0677 -1.2991
 4491TIP3    H234965   4.948   5.845   5.302  2.3988 -0.5624 -2.5265
 4492TIP3   OH234966   3.532   4.113   3.750  0.1429  1.0414  0.2474
 4492TIP3    H134967   3.479   4.134   3.827 -0.6357 -3.7896  1.3524
 4492TIP3    H234968   3.487   4.040   3.708  2.5599  0.9955 -2.6599
 4493TIP3   OH234969   0.300   1.187   0.417  0.0579  0.0717 -0.6158
 4493TIP3    H134970   0.391   1.162   0.434 -0.2653 -1.8387 -1.5192
 4493TIP3    H234971   0.261   1.196   0.504  0.9424  0.3449 -0.2347
 4494TIP3   OH234972   2.278   1.212   0.450  0.3260 -0.1039 -0.4466
 4494TIP3    H134973   2.267   1.302   0.483 -3.8909 -0.3616 -0.6397
 4494TIP3    H234974   2.331   1.168   0.517 -0.9115  1.5208  1.7171
 4495TIP3   OH234975   4.947   4.370   1.603  0.3373 -0.3419  0.4591
 4495TIP3    H134976   4.989   4.284   1.608  0.0451 -0.6022 -0.9795
 4495TIP3    H234977   4.858   4.355   1.635  0.6719 -0.2650  1.4612
 4496TIP3   OH234978   0.830   6.355  15.114 -0.2351  0.1059 -0.2868
 4496TIP3    H134979   0.759   6.293  15.132 -0.7108  0.5469 -0.6126
 4496TIP3    H234980   0.785   6.434  15.085  0.4299  0.0908 -1.3833
 4497TIP3   OH234981   2.011   4.604   2.671 -0.4710  0.2889  0.1965
 4497TIP3    H134982   2.055   4.603   2.755 -0.9543 -0.9433  0.4587
 4497TIP3    H234983   1.996   4.697   2.652  0.3773  0.6106  1.0599
 4498TIP3   OH234984   6.774   1.109  11.054 -0.0343  0.2710 -0.3606
 4498TIP3    H134985   6.849   1.071  11.009  0.8907  1.2502  0.3291
 4498TIP3    H234986   6.788   1.203  11.050 -1.8781  0.5621 -1.3048
 4499TIP3   OH234987   5.556   1.375  11.464 -0.5600  0.2902 -0.1692
 4499TIP3    H134988   5.552   1.283  11.488 -2.8336  0.1037 -1.0266
 4499TIP3    H234989   5.588   1.375  11.374  0.2561  0.4141  0.1150
 4500TIP3   OH234990   2.388   2.217  12.784  0.0481 -0.0843 -0.4934
 4500TIP3    H134991   2.324   2.192  12.850  1.3570 -1.4711  0.3413
 4500TIP3    H234992   2.436   2.290  12.823  0.3982 -0.4801 -0.1786
 4501TIP3   OH234993   3.856   1.678   3.344  0.8240 -0.4079 -0.1082
 4501TIP3    H134994   3.898   1.729   3.276  0.7888 -0.5536 -0.2407
 4501TIP3    H234995   3.767   1.663   3.311  0.7422 -0.3004  0.0637
 4502TIP3   OH234996   0.533   1.575  15.300  0.0568 -0.1328 -0.6304
 4502TIP3    H134997   0.612   1.530  15.329  0.5486  0.6377 -0.7664
 4502TIP3    H234998   0.496   1.518  15.232  1.1313  0.0632 -1.3984
 4503TIP3   OH234999   0.372   5.243  15.352  0.0620  0.0304  0.6908
 4503TIP3    H135000   0.410   5.193  15.424 -0.4486 -2.4360 -0.6387
 4503TIP3    H235001   0.300   5.188  15.320 -1.9533  2.6182  0.4263
 4504TIP3   OH235002   3.192   1.242  16.715 -0.0815  0.2101  0.2064
 4504TIP3    H135003   3.120   1.291  16.674 -0.2386  0.0856  0.3307
 4504TIP3    H235004   3.176   1.251  16.809  1.1332  1.7808  0.3028
 4505TIP3   OH235005   0.989   2.256  13.894  0.3746  0.1424 -0.4404
 4505TIP3    H135006   0.992   2.166  13.861  0.2641  0.3167 -0.9362
 4505TIP3    H235007   0.948   2.248  13.981  0.3828 -0.2847 -0.4719
 4506TIP3   OH235008   1.540   0.820   5.371 -0.1378 -0.6429  0.0193
 4506TIP3    H135009   1.466   0.761   5.353  0.4928 -1.4006 -0.1117
 4506TIP3    H235010   1.545   0.822   5.467 -0.6944 -0.1208  0.0433
 4507TIP3   OH235011   0.839   2.129   3.270  0.2892 -0.3942  0.1793
 4507TIP3    H135012   0.754   2.090   3.292 -0.3463  0.0396 -1.3509
 4507TIP3    H235013   0.872   2.164   3.353 -0.5104 -1.5223  1.0070
 4508TIP3   OH235014   1.812   1.663   4.821 -0.2117  0.0415  0.1321
 4508TIP3    H135015   1.807   1.729   4.752 -0.8598 -0.8273 -0.6785
 4508TIP3    H235016   1.869   1.595   4.785  0.2102  0.0105  0.8372
 4509TIP3   OH235017   0.727   6.781   1.182 -0.3385 -0.1168 -0.2244
 4509TIP3    H135018   0.777   6.853   1.145 -1.1640 -0.0781 -1.3210
 4509TIP3    H235019   0.764   6.768   1.269 -0.1609  1.6160 -0.0031
 4510TIP3   OH235020   4.152   6.112  14.999 -0.5809 -0.1175 -0.1257
 4510TIP3    H135021   4.128   6.131  14.909 -0.9887 -0.3486 -0.0674
 4510TIP3    H235022   4.234   6.160  15.013 -1.4233  1.3656 -0.0711
 4511TIP3   OH235023   1.473   5.842  15.382  0.0550  0.5531 -0.0523
 4511TIP3    H135024   1.553   5.865  15.335 -0.2940  0.7802 -0.5546
 4511TIP3    H235025   1.458   5.750  15.360  1.2360 -0.0834  1.6372
 4512TIP3   OH235026   2.436   3.305   2.522  0.0867  0.0564  0.2404
 4512TIP3    H135027   2.387   3.387   2.516  0.5383  0.3325  0.3166
 4512TIP3    H235028   2.511   3.317   2.464 -0.8633 -1.0406 -1.3024
 4513TIP3   OH235029   0.658   6.569  15.052  0.4277  0.4390  0.2134
 4513TIP3    H135030   0.620   6.617  15.126  0.8585  0.0408  0.7007
 4513TIP3    H235031   0.670   6.635  14.984 -3.2527  0.2368 -0.8570
 4514TIP3   OH235032   1.271   1.420   0.248  0.8287  0.1519 -0.6056
 4514TIP3    H135033   1.332   1.493   0.242 -1.3093  2.0257 -0.7004
 4514TIP3    H235034   1.272   1.381   0.161  2.1040 -0.0748 -0.5126
 4515TIP3   OH235035   6.354   5.806  11.540 -0.4335 -0.0649 -0.0072
 4515TIP3    H135036   6.283   5.754  11.579  0.5364 -0.5475  1.1902
 4515TIP3    H235037   6.428   5.745  11.535  1.2494  1.5114  2.9200
 4516TIP3   OH235038   6.315   2.137   1.610 -0.3552 -0.5160  0.0024
 4516TIP3    H135039   6.256   2.185   1.668 -0.5545 -0.0879 -0.5620
 4516TIP3    H235040   6.349   2.065   1.665 -1.1602 -0.5843  0.4138
 4517TIP3   OH235041   5.845   5.424  15.548  0.0487  0.4920  0.5259
 4517TIP3    H135042   5.845   5.474  15.630  1.4557  0.6006  0.4871
 4517TIP3    H235043   5.918   5.461  15.498 -0.9162  0.5602 -0.8721
 4518TIP3   OH235044   0.156   5.823   0.111 -0.2185 -0.0570  0.8780
 4518TIP3    H135045   0.141   5.729   0.117 -0.4359  0.0078  1.4962
 4518TIP3    H235046   0.104   5.860   0.182 -2.0888  0.7813 -0.8368
 4519TIP3   OH235047   3.174   3.664  14.872 -0.0499 -0.0362  0.3369
 4519TIP3    H135048   3.147   3.713  14.794 -1.3089 -0.2210  0.6362
 4519TIP3    H235049   3.162   3.725  14.944  1.3379  0.2128  0.3862
 4520TIP3   OH235050   5.557   5.717   3.443  0.0125 -0.3245 -0.3155
 4520TIP3    H135051   5.500   5.745   3.371  0.7478 -0.3343 -0.9087
 4520TIP3    H235052   5.525   5.630   3.467 -1.7407  0.6012  0.9610
 4521TIP3   OH235053   6.613   4.627   6.500 -0.2355 -0.6825  0.1060
 4521TIP3    H135054   6.618   4.596   6.410 -1.9670 -2.2906  0.5117
 4521TIP3    H235055   6.577   4.715   6.493 -0.6434 -0.9070 -0.7579
 4522TIP3   OH235056   0.838   5.540   6.102  0.4209  0.3057  0.9878
 4522TIP3    H135057   0.918   5.500   6.068 -0.3963 -0.9159  0.4306
 4522TIP3    H235058   0.809   5.599   6.033 -1.2855 -2.2376 -0.6412
 4523TIP3   OH235059   2.907   0.149  15.771  0.3731 -0.1147  0.7834
 4523TIP3    H135060   2.894   0.135  15.677 -1.0312  0.0406  0.9302
 4523TIP3    H235061   3.001   0.166  15.780  0.3385  1.1905 -0.7779
 4524TIP3   OH235062   1.131   0.573   5.640  0.1148  0.0177 -0.2696
 4524TIP3    H135063   1.182   0.517   5.699  1.3504  1.7506  0.3612
 4524TIP3    H235064   1.100   0.644   5.696  1.2915  1.7001 -1.6656
 4525TIP3   OH235065   1.395   4.689  14.328  0.2695 -0.1466  0.1989
 4525TIP3    H135066   1.400   4.667  14.234  0.0313 -1.3411  0.4427
 4525TIP3    H235067   1.327   4.756  14.333  0.2246 -0.1327 -0.4827
 4526TIP3   OH235068   5.222   2.684   2.989  0.0735 -0.2415 -0.1669
 4526TIP3    H135069   5.180   2.608   3.029 -0.6287  0.2584  0.0665
 4526TIP3    H235070   5.300   2.699   3.042 -0.5976  0.1295  0.7585
 4527TIP3   OH235071   3.093   0.322   6.133 -0.7539  0.1526  0.3944
 4527TIP3    H135072   3.093   0.375   6.053  2.6858  1.0345  0.8060
 4527TIP3    H235073   3.110   0.385   6.203  2.4142 -1.2319  1.0181
 4528TIP3   OH235074   3.604   5.290   6.101 -0.3177 -0.2250 -0.3263
 4528TIP3    H135075   3.683   5.277   6.155 -0.5886  1.4024  0.5452
 4528TIP3    H235076   3.550   5.213   6.119  0.3144 -0.5053  0.4733
 4529TIP3   OH235077   1.269   1.894  12.486 -0.2724 -0.6215 -0.3479
 4529TIP3    H135078   1.246   1.860  12.573  1.4872  0.1629  0.4853
 4529TIP3    H235079   1.212   1.971  12.475 -0.7526 -0.9272 -0.0516
 4530TIP3   OH235080   3.448   1.836  15.215 -0.1514  0.2299 -0.0097
 4530TIP3    H135081   3.365   1.788  15.220 -0.4509  0.5412 -1.6601
 4530TIP3    H235082   3.515   1.769  15.232 -0.5931 -0.6862 -1.6116
 4531TIP3   OH235083   3.594   5.587  14.671  0.8397 -0.0745  0.6589
 4531TIP3    H135084   3.561   5.498  14.676 -0.9540  0.5683  1.2919
 4531TIP3    H235085   3.573   5.625  14.757 -2.9708  2.3586 -1.0651
 4532TIP3   OH235086   0.040   6.671   2.082  0.3226  0.1435  0.0306
 4532TIP3    H135087  -0.055   6.669   2.074  0.3924 -2.7552 -1.0297
 4532TIP3    H235088   0.058   6.622   2.163  0.9599 -1.5915 -1.1207
 4533TIP3   OH235089   5.561   0.017  13.070  0.0935  0.2019 -0.7481
 4533TIP3    H135090   5.557   0.072  13.149 -0.4377  1.1541 -1.4221
 4533TIP3    H235091   5.630  -0.046  13.090  0.8488  1.2102 -0.0001
 4534TIP3   OH235092   6.709   2.735  12.973  0.3120  0.1218  0.5052
 4534TIP3    H135093   6.752   2.775  13.049  0.8054  0.1073  0.2366
 4534TIP3    H235094   6.634   2.792  12.957  0.1745  0.1001  1.0315
 4535TIP3   OH235095   6.143   1.736  13.822  0.4594 -0.4898 -0.4864
 4535TIP3    H135096   6.161   1.777  13.907  0.1238  0.2035 -0.7380
 4535TIP3    H235097   6.197   1.785  13.760 -0.9932  0.5388 -1.0069
 4536TIP3   OH235098   0.953   3.245  13.486 -0.4178 -0.2734  0.6692
 4536TIP3    H135099   0.939   3.327  13.532 -2.3837 -0.3537  0.3033
 4536TIP3    H235100   1.013   3.196  13.542 -1.6154  0.1987  2.4449
 4537TIP3   OH235101   4.456   4.459   6.018 -0.2902 -0.2418  0.7692
 4537TIP3    H135102   4.437   4.552   6.006  0.4969 -0.1636  0.0738
 4537TIP3    H235103   4.399   4.432   6.090 -1.7393  0.3862 -0.1043
 4538TIP3   OH235104   0.626   5.992   3.945 -0.0533  0.6607  0.4450
 4538TIP3    H135105   0.555   5.935   3.916  0.2167  0.9140 -0.7918
 4538TIP3    H235106   0.701   5.967   3.891  0.5489  1.0092  1.0995
 4539TIP3   OH235107   6.113   2.681   2.477 -0.0801  0.4615 -0.4602
 4539TIP3    H135108   6.188   2.634   2.441 -0.3459 -0.7781  0.5281
 4539TIP3    H235109   6.042   2.616   2.479 -0.1982  0.5633  1.8523
 4540TIP3   OH235110   2.613   5.004   6.297  0.4421  0.2222  0.0236
 4540TIP3    H135111   2.685   5.054   6.336  0.4902 -0.5556  0.9599
 4540TIP3    H235112   2.600   5.044   6.211  0.2618  2.0436  0.8601
 4541TIP3   OH235113   6.250   0.798  15.058 -0.0480 -0.0983  0.5074
 4541TIP3    H135114   6.254   0.719  15.112 -0.8517 -0.4274  0.1044
 4541TIP3    H235115   6.222   0.767  14.972 -1.1286  0.7035  0.5465
 4542TIP3   OH235116   5.395   0.215   0.896  0.2061  0.2490  0.0175
 4542TIP3    H135117   5.320   0.254   0.851  1.0046 -0.1273 -1.7156
 4542TIP3    H235118   5.461   0.283   0.897  0.0223  0.4262  1.1297
 4543TIP3   OH235119   3.272   3.054  13.269  0.3508  0.2923 -0.9767
 4543TIP3    H135120   3.271   3.088  13.358  0.3281 -1.0844 -0.4285
 4543TIP3    H235121   3.197   3.096  13.227 -0.9900 -0.7171  0.3175
 4544TIP3   OH235122   4.709   3.220  11.860  0.7754  0.5332  0.2139
 4544TIP3    H135123   4.697   3.299  11.913  2.2953  0.8621  0.1195
 4544TIP3    H235124   4.641   3.160  11.889 -1.8223  2.6168 -1.1857
 4545TIP3   OH235125   5.716   6.178   4.235  0.1282  0.2378  0.2222
 4545TIP3    H135126   5.780   6.171   4.164  1.1634  0.8902  1.0404
 4545TIP3    H235127   5.636   6.208   4.193  0.1901 -1.1152 -0.9158
 4546TIP3   OH235128   1.189   2.901  17.225 -0.0627 -0.6962  0.0303
 4546TIP3    H135129   1.251   2.838  17.261 -1.4737 -1.2633  1.6126
 4546TIP3    H235130   1.216   2.985  17.262  1.0974 -0.5295 -1.1240
 4547TIP3   OH235131   4.998   6.433   1.638  0.2617 -0.5535 -0.0163
 4547TIP3    H135132   4.936   6.503   1.616  1.3704  0.1765 -0.9581
 4547TIP3    H235133   4.966   6.356   1.593 -0.2493 -0.3201 -0.0546
 4548TIP3   OH235134   0.472   5.751  14.583  0.7311 -0.4252  0.3098
 4548TIP3    H135135   0.529   5.685  14.542  0.8353  0.2253 -0.6305
 4548TIP3    H235136   0.459   5.816  14.515  0.9251  0.7200  1.3393
 4549TIP3   OH235137   2.543   0.512   1.612  0.1173 -0.4063  0.4401
 4549TIP3    H135138   2.517   0.543   1.699 -0.1762  2.1364 -0.4491
 4549TIP3    H235139   2.468   0.531   1.556  0.5042 -1.4745 -0.4868
 4550TIP3   OH235140   6.082   2.349  13.003  0.4328  0.5641  0.3492
 4550TIP3    H135141   6.065   2.295  13.080 -0.4081  1.4137  0.7771
 4550TIP3    H235142   6.069   2.290  12.929  1.6745 -0.3849  0.8362
 4551TIP3   OH235143   3.527   4.048   5.024  0.5420 -0.0744 -0.6005
 4551TIP3    H135144   3.453   3.987   5.029 -0.5132  1.1741 -0.3542
 4551TIP3    H235145   3.513   4.109   5.097  1.3623  0.6630 -1.0359
 4552TIP3   OH235146   2.132   3.014  17.070  0.1193  0.4111  0.0713
 4552TIP3    H135147   2.209   2.973  17.110  0.2540 -0.2545 -0.8385
 4552TIP3    H235148   2.166   3.056  16.991 -0.7437 -1.6081 -1.4503
 4553TIP3   OH235149   3.312   5.972   4.104 -0.0665  0.5276 -0.0296
 4553TIP3    H135150   3.243   6.037   4.096  0.2319  0.7970 -0.4757
 4553TIP3    H235151   3.292   5.906   4.037  0.6721  1.1400 -0.8737
 4554TIP3   OH235152   2.646   1.123  12.854 -0.2634  0.5328 -0.1035
 4554TIP3    H135153   2.617   1.079  12.934 -0.6833 -1.5630 -1.3180
 4554TIP3    H235154   2.579   1.103  12.790  1.2573 -0.0036 -1.6175
 4555TIP3   OH235155   2.682   3.759  15.410 -0.1060 -0.2122 -0.2398
 4555TIP3    H135156   2.710   3.699  15.341 -0.4309 -1.3176  0.5516
 4555TIP3    H235157   2.587   3.764  15.401  0.0263  1.1765 -1.0638
 4556TIP3   OH235158   1.351   3.179   4.310 -0.0849 -1.1290  0.5430
 4556TIP3    H135159   1.405   3.236   4.256 -0.9724 -0.9026 -0.1178
 4556TIP3    H235160   1.341   3.098   4.259  0.1103 -1.3972  0.9197
 4557TIP3   OH235161   0.303   2.378  16.043  0.0123  0.0987  0.5041
 4557TIP3    H135162   0.246   2.377  16.120  0.4531 -0.2971  0.8288
 4557TIP3    H235163   0.374   2.438  16.067  0.3972 -0.3830  0.5918
 4558TIP3   OH235164   1.022   5.206  16.044  0.4855  0.0972  0.3485
 4558TIP3    H135165   0.928   5.190  16.051  0.8874 -1.5214  3.8368
 4558TIP3    H235166   1.063   5.134  16.091  3.4179  1.7956  0.6628
 4559TIP3   OH235167   5.076   3.488  15.615 -0.0716  0.0775 -0.0297
 4559TIP3    H135168   5.153   3.447  15.655  0.3274  1.1745  0.3638
 4559TIP3    H235169   5.060   3.566  15.669 -0.0984  1.0692 -1.4220
 4560TIP3   OH235170   2.602   3.607  14.860  0.7528 -0.3152  0.1839
 4560TIP3    H135171   2.563   3.634  14.777  0.7401 -0.0937  0.2613
 4560TIP3    H235172   2.548   3.533  14.889 -0.5626  0.9006  1.0249
 4561TIP3   OH235173   0.816   3.077   6.328  0.4380  0.6275  0.3287
 4561TIP3    H135174   0.757   3.125   6.386 -1.1596 -0.9299  0.0671
 4561TIP3    H235175   0.763   3.006   6.292  1.7815  0.6660 -1.9253
 4562TIP3   OH235176   5.018   3.931  11.369  0.0313 -0.4576 -0.1144
 4562TIP3    H135177   4.966   3.854  11.348 -0.1311  0.3550 -3.1410
 4562TIP3    H235178   5.096   3.925  11.314  1.4706  0.1376  1.7390
 4563TIP3   OH235179   5.152   5.789   4.804 -0.1199  0.1396  0.1053
 4563TIP3    H135180   5.176   5.813   4.893 -0.6708  0.4862  0.1654
 4563TIP3    H235181   5.078   5.729   4.815  0.0693 -0.1411 -0.1102
 4564TIP3   OH235182   2.367   5.046  15.113 -0.2054 -0.1696  0.1947
 4564TIP3    H135183   2.411   4.990  15.176 -0.2483 -0.0784  0.3053
 4564TIP3    H235184   2.433   5.061  15.045 -0.6266 -1.4906 -0.5464
 4565TIP3   OH235185   2.183   4.213   5.714  0.2264 -0.0122 -0.3453
 4565TIP3    H135186   2.128   4.284   5.680 -2.9016 -2.0070  0.1684
 4565TIP3    H235187   2.158   4.204   5.806  1.6404 -0.8706 -0.0011
 4566TIP3   OH235188   3.596   6.405  12.898 -0.0197 -0.7112 -0.2748
 4566TIP3    H135189   3.615   6.475  12.836 -2.3670  0.5223  0.3003
 4566TIP3    H235190   3.630   6.436  12.981 -3.2556  1.0902  0.5579
 4567TIP3   OH235191   3.089   1.882  12.015 -0.0545 -0.3377  0.4562
 4567TIP3    H135192   3.098   1.976  12.031 -1.7136  0.0737 -0.7091
 4567TIP3    H235193   3.109   1.841  12.099 -1.1034  1.1794  1.5004
 4568TIP3   OH235194   0.597   0.164   4.356  0.4455  0.3904  0.5285
 4568TIP3    H135195   0.650   0.136   4.282  0.5766  2.0152 -0.0279
 4568TIP3    H235196   0.552   0.084   4.385  0.5494 -0.3193 -1.1613
 4569TIP3   OH235197   5.254   4.562   0.762 -0.1442 -0.7838  0.2351
 4569TIP3    H135198   5.321   4.610   0.811 -0.3802 -0.3546  0.1434
 4569TIP3    H235199   5.197   4.525   0.830 -0.6583  0.0812  0.2972
 4570TIP3   OH235200   2.608   5.350  12.464 -0.2718 -0.3354  0.5516
 4570TIP3    H135201   2.647   5.404  12.533 -0.7480 -0.6032  1.0393
 4570TIP3    H235202   2.516   5.377  12.461 -0.0461  0.3674 -0.6606
 4571TIP3   OH235203   6.497   1.587   1.875 -0.6553  0.1992  0.4780
 4571TIP3    H135204   6.406   1.608   1.896 -0.5395 -0.0965  1.3048
 4571TIP3    H235205   6.524   1.656   1.815 -1.3001  0.5240  0.5543
 4572TIP3   OH235206   5.738   1.036   5.664 -0.1370 -0.8675  0.5677
 4572TIP3    H135207   5.761   1.126   5.640 -0.2021 -0.1600  2.9049
 4572TIP3    H235208   5.722   0.992   5.580  0.7841  1.0361 -0.6749
 4573TIP3   OH235209   3.190   6.130  16.392 -0.0644  0.0132  0.6875
 4573TIP3    H135210   3.169   6.060  16.331  1.0079 -0.1545  0.4865
 4573TIP3    H235211   3.249   6.188  16.343 -0.5072  0.7665  1.0249
 4574TIP3   OH235212   3.325   3.842  11.300  0.1936 -0.2315 -0.5359
 4574TIP3    H135213   3.402   3.817  11.249 -0.7889  0.0818 -2.2430
 4574TIP3    H235214   3.262   3.873  11.235 -0.3157  2.3811  1.0712
 4575TIP3   OH235215   5.136   0.827   4.086 -0.5354  0.4703 -0.0714
 4575TIP3    H135216   5.212   0.768   4.085 -0.0728  1.0494 -0.5965
 4575TIP3    H235217   5.092   0.810   4.003 -1.1864 -0.1011  0.3769
 4576TIP3   OH235218   5.024   4.010   4.930  0.3587 -0.2574 -0.0992
 4576TIP3    H135219   4.973   3.945   4.980  0.0315 -0.5691 -0.8219
 4576TIP3    H235220   4.958   4.069   4.894  0.4674 -0.7514 -1.1693
 4577TIP3   OH235221   4.024   6.387   1.758 -0.1355 -0.7555  0.2693
 4577TIP3    H135222   4.034   6.478   1.786 -0.7153 -0.6373  0.1195
 4577TIP3    H235223   4.071   6.336   1.824  0.2126 -0.3473  0.3436
 4578TIP3   OH235224   4.957   2.266   0.235  0.4786  0.3376  0.1907
 4578TIP3    H135225   4.945   2.198   0.168  2.7127  0.6231 -0.6091
 4578TIP3    H235226   4.917   2.344   0.198 -1.0893 -0.2378  0.6127
 4579TIP3   OH235227   1.935   5.711   3.286  0.4513 -0.1815  0.1828
 4579TIP3    H135228   1.877   5.760   3.229  0.8257 -1.0210 -0.9508
 4579TIP3    H235229   1.881   5.689   3.362 -0.4016 -0.0527 -0.3742
 4580TIP3   OH235230   1.310   0.854  12.354  0.1025  0.4259  0.1923
 4580TIP3    H135231   1.399   0.887  12.343  1.3971 -3.1107 -1.2256
 4580TIP3    H235232   1.317   0.789  12.423 -1.0575 -0.9007 -0.8845
 4581TIP3   OH235233   1.566   3.722  16.835  0.3752 -0.5107 -0.1317
 4581TIP3    H135234   1.627   3.788  16.870  0.0419  0.4902 -1.3652
 4581TIP3    H235235   1.622   3.650  16.807  0.8669 -0.2268  0.1050
 4582TIP3   OH235236   5.898   1.642  11.636 -0.1089  0.5460 -0.2742
 4582TIP3    H135237   5.814   1.684  11.655 -1.4794 -1.2504 -1.8471
 4582TIP3    H235238   5.906   1.647  11.541  1.2082  0.0062 -0.2128
 4583TIP3   OH235239   0.032   1.066   0.063  0.2210  0.1224  0.2098
 4583TIP3    H135240   0.100   1.042   0.127  0.2311 -0.2671  0.0579
 4583TIP3    H235241  -0.043   1.091   0.116  0.0614 -0.6863  0.3833
 4584TIP3   OH235242   3.880   1.624  14.765 -0.0712 -0.2297  0.0198
 4584TIP3    H135243   3.823   1.573  14.823 -1.3131 -0.8380 -1.6684
 4584TIP3    H235244   3.857   1.715  14.784  1.1503 -0.2637  2.0284
 4585TIP3   OH235245   2.548   2.447   3.105  0.4328 -0.1699  0.0282
 4585TIP3    H135246   2.602   2.520   3.135  1.5201 -1.3467  1.0572
 4585TIP3    H235247   2.546   2.457   3.009 -0.2289  1.7106  0.2085
 4586TIP3   OH235248   4.501   3.951  17.081 -0.0891  0.4927 -0.3040
 4586TIP3    H135249   4.541   3.891  17.019  1.8583  0.7665  0.5965
 4586TIP3    H235250   4.526   4.038  17.050 -1.4986  0.7913 -0.6802
 4587TIP3   OH235251   4.287   5.705  13.003  0.3956  0.4842  0.5518
 4587TIP3    H135252   4.210   5.739  12.959  0.5246  0.2074  0.1051
 4587TIP3    H235253   4.298   5.761  13.080 -0.1907  0.5815  0.5650
 4588TIP3   OH235254   0.881   4.755  13.581 -0.0983  0.1788 -0.9439
 4588TIP3    H135255   0.799   4.781  13.624 -1.7651  0.2585 -3.8528
 4588TIP3    H235256   0.871   4.660  13.567  0.9021 -0.0418 -0.2088
 4589TIP3   OH235257   0.834   2.074   2.236  0.0906  0.5443 -0.3428
 4589TIP3    H135258   0.877   2.098   2.154  0.9288 -1.1822 -0.4446
 4589TIP3    H235259   0.853   2.147   2.295  1.7016  0.6241 -0.9186
 4590TIP3   OH235260   6.272   5.679  15.568 -0.0645  0.5372  0.6813
 4590TIP3    H135261   6.298   5.762  15.607  1.2590  1.6264 -2.2193
 4590TIP3    H235262   6.354   5.640  15.539 -0.9930  0.5454 -2.2357
 4591TIP3   OH235263   4.248   2.371  14.191  0.1836 -0.7895 -0.0412
 4591TIP3    H135264   4.206   2.391  14.107 -0.4349 -1.3898  0.1182
 4591TIP3    H235265   4.175   2.360  14.252  0.6237 -0.6373  0.5182
 4592TIP3   OH235266   3.276   5.762  12.106 -0.3836  0.6665  0.0670
 4592TIP3    H135267   3.338   5.810  12.052 -1.0151  2.3816  0.7937
 4592TIP3    H235268   3.322   5.748  12.189  0.1883 -0.9956 -0.4951
 4593TIP3   OH235269   2.560   5.718  12.483 -0.3088 -0.5234 -0.2045
 4593TIP3    H135270   2.640   5.682  12.443  1.0222  1.5316  0.4551
 4593TIP3    H235271   2.590   5.755  12.567 -1.8058  0.9252 -0.2622
 4594TIP3   OH235272   0.115   6.507   1.491  0.4929 -0.0210 -0.3576
 4594TIP3    H135273   0.192   6.468   1.531 -1.2782 -0.6651  2.7456
 4594TIP3    H235274   0.106   6.592   1.533 -1.0891 -0.4495  0.2547
 4595TIP3   OH235275   1.759   2.770   0.494 -0.0753  0.2047 -0.3431
 4595TIP3    H135276   1.789   2.857   0.521  3.8193 -0.5702 -1.4561
 4595TIP3    H235277   1.780   2.714   0.569  0.3121 -0.2135 -0.7582
 4596TIP3   OH235278   2.421   0.285   3.520  0.5238  0.1854  0.0023
 4596TIP3    H135279   2.413   0.379   3.509  2.2308  0.1331 -2.3992
 4596TIP3    H235280   2.351   0.249   3.465  1.2933  0.0549 -0.9141
 4597TIP3   OH235281   4.654   0.859  16.370  0.1361  0.0796  0.4246
 4597TIP3    H135282   4.596   0.792  16.407  0.6918 -1.5871 -1.4967
 4597TIP3    H235283   4.686   0.908  16.446  0.0515 -2.1497  2.0132
 4598TIP3   OH235284   4.928   6.725   1.889  0.5925  0.2959 -0.0395
 4598TIP3    H135285   4.986   6.766   1.825  2.0121  2.2229  2.3029
 4598TIP3    H235286   4.848   6.777   1.886  1.1812  1.2792  0.6637
 4599TIP3   OH235287   4.593   4.624  13.926 -0.5922 -0.4021  0.7376
 4599TIP3    H135288   4.612   4.571  13.849  0.2088  1.0319 -0.0881
 4599TIP3    H235289   4.498   4.630  13.928 -0.6012  1.0402 -1.2429
 4600TIP3   OH235290   6.604   6.154   0.318 -0.1984 -0.1058  0.2684
 4600TIP3    H135291   6.605   6.125   0.409  2.4523  1.8675  0.9570
 4600TIP3    H235292   6.565   6.241   0.321  0.0194  0.0213 -0.4824
 4601TIP3   OH235293   2.296   0.675  16.748  0.3484  0.1421 -0.2959
 4601TIP3    H135294   2.227   0.718  16.798 -0.8594 -0.2565 -1.5723
 4601TIP3    H235295   2.360   0.744  16.731  0.2232  0.5446  0.7796
 4602TIP3   OH235296   0.754   1.865  12.936 -0.9359  0.8277 -0.4727
 4602TIP3    H135297   0.680   1.907  12.894 -1.0267 -2.0447 -3.5405
 4602TIP3    H235298   0.715   1.801  12.996 -1.0916 -0.8980 -2.3089
 4603TIP3   OH235299   6.425   6.730   0.914 -0.0208 -0.1199  0.5413
 4603TIP3    H135300   6.336   6.760   0.931  0.1402 -0.2088  1.5887
 4603TIP3    H235301   6.481   6.791   0.963  0.5991  0.8035 -1.2330
 4604TIP3   OH235302   4.575   3.941   0.064  0.1549 -0.0029  0.2428
 4604TIP3    H135303   4.533   3.880   0.125  1.4766  0.5477  1.7744
 4604TIP3    H235304   4.544   3.914  -0.023 -2.0951 -0.5761  1.1520
 4605TIP3   OH235305   1.748   6.031   4.879 -0.9703 -0.3266 -0.1410
 4605TIP3    H135306   1.686   5.958   4.878 -1.1550 -0.1772  0.2619
 4605TIP3    H235307   1.705   6.099   4.932  0.3126 -0.9054  1.7418
 4606TIP3   OH235308   0.798   3.729  10.863  0.2426 -0.5362  0.1005
 4606TIP3    H135309   0.737   3.671  10.817  1.1176 -0.3232 -1.4089
 4606TIP3    H235310   0.831   3.677  10.936 -0.3409 -1.3074 -0.1767
 4607TIP3   OH235311   2.135   0.317   5.924  0.6633  0.1235  0.2226
 4607TIP3    H135312   2.057   0.280   5.965  0.6688  0.9805  1.0435
 4607TIP3    H235313   2.202   0.313   5.992  0.2623  3.0273  0.9353
 4608TIP3   OH235314   5.233   3.645   5.049  0.1332 -0.1735 -0.2039
 4608TIP3    H135315   5.278   3.729   5.052 -0.5732  0.2254 -0.6160
 4608TIP3    H235316   5.166   3.656   4.982 -0.1473 -0.9746 -0.0648
 4609TIP3   OH235317   5.019   0.164  15.461 -0.4063 -0.0986  0.0953
 4609TIP3    H135318   4.939   0.205  15.429 -0.0814 -0.4569 -1.2110
 4609TIP3    H235319   5.034   0.090  15.403  0.8839 -0.0295  0.3046
 4610TIP3   OH235320   0.711   4.184  11.345  0.0526  0.2111 -0.8421
 4610TIP3    H135321   0.707   4.104  11.292 -0.1240 -0.6918  0.4891
 4610TIP3    H235322   0.620   4.205  11.364  0.0804  0.9577 -1.4976
 4611TIP3   OH235323   4.270   6.524  11.504 -0.1067  0.2103  0.0102
 4611TIP3    H135324   4.275   6.491  11.415  2.7696 -0.4077  0.2838
 4611TIP3    H235325   4.244   6.449  11.557  1.9714 -0.5423  0.0756
 4612TIP3   OH235326   5.855   0.501  10.662 -0.0021  0.2895  0.2096
 4612TIP3    H135327   5.848   0.414  10.621  0.2087  0.1114  0.5504
 4612TIP3    H235328   5.900   0.554  10.596 -0.3361  0.2027 -0.0928
 4613TIP3   OH235329   5.748   3.756   5.494 -0.1196 -0.3556  0.2303
 4613TIP3    H135330   5.732   3.820   5.425 -0.2139  0.6235  1.1408
 4613TIP3    H235331   5.661   3.726   5.520 -0.1306 -0.1032  0.4906
 4614TIP3   OH235332   4.711   6.768   6.135  0.0814  0.3165  0.5240
 4614TIP3    H135333   4.670   6.704   6.193  0.2446  0.9920  1.4217
 4614TIP3    H235334   4.682   6.744   6.048  0.1582 -0.9844  0.8345
 4615TIP3   OH235335   2.420   1.087  15.881  0.4574  0.2336 -0.4354
 4615TIP3    H135336   2.391   0.999  15.903  0.1793  0.2088 -0.8864
 4615TIP3    H235337   2.498   1.074  15.827  0.4145  0.2664 -0.5049
 4616TIP3   OH235338   2.617   6.212  12.053  0.0250  0.1163 -0.3898
 4616TIP3    H135339   2.599   6.118  12.048  0.3192 -0.0088  0.7501
 4616TIP3    H235340   2.615   6.232  12.146 -1.1527  1.4731 -0.6767
 4617TIP3   OH235341   0.985   1.787   3.575 -0.2169 -0.2490 -0.2964
 4617TIP3    H135342   0.985   1.867   3.628  1.1617  0.3281 -1.0967
 4617TIP3    H235343   0.942   1.722   3.630 -0.4797  0.7878  0.7778
 4618TIP3   OH235344   5.434   6.373  11.880 -0.6224  0.6921  0.0640
 4618TIP3    H135345   5.415   6.442  11.943  3.2311 -0.0195  2.2909
 4618TIP3    H235346   5.434   6.292  11.932 -3.0871 -0.8863 -2.1006
 4619TIP3   OH235347   3.773   2.857   6.259 -0.5775 -0.0160 -0.5108
 4619TIP3    H135348   3.858   2.815   6.252 -0.8313 -0.5440 -0.5369
 4619TIP3    H235349   3.719   2.793   6.305 -0.8758  0.4408 -0.2168
 4620TIP3   OH235350   4.142   4.300   5.933 -0.2529 -0.2004  0.1039
 4620TIP3    H135351   4.219   4.311   5.988 -0.6722  0.3004  0.6131
 4620TIP3    H235352   4.068   4.309   5.993 -0.7065 -0.7371 -0.3609
 4621TIP3   OH235353   4.314   3.918   6.322  0.6651 -0.5589 -0.3978
 4621TIP3    H135354   4.369   3.905   6.244 -1.5086 -0.0199 -2.1502
 4621TIP3    H235355   4.316   4.013   6.337  1.4280 -0.7075  0.5172
 4622TIP3   OH235356   4.967   5.401  15.240 -0.4772  0.0684 -0.3631
 4622TIP3    H135357   4.885   5.421  15.286 -0.9682 -0.4750 -0.9886
 4622TIP3    H235358   5.032   5.458  15.282 -0.9965 -0.1009  0.7079
 4623TIP3   OH235359   0.897   0.220   6.673  0.0566 -0.4237  0.7060
 4623TIP3    H135360   0.806   0.196   6.654 -0.0975  0.9127 -0.4022
 4623TIP3    H235361   0.934   0.142   6.714 -1.4217 -1.2020  0.6344
 4624TIP3   OH235362   6.284   3.792   3.548  0.1255  0.2304 -0.4033
 4624TIP3    H135363   6.217   3.771   3.483 -1.6508  1.5658  0.8856
 4624TIP3    H235364   6.241   3.779   3.632  1.0780  2.2720  0.4662
 4625TIP3   OH235365   0.248   3.258  12.861  0.0316 -0.1689 -0.3739
 4625TIP3    H135366   0.319   3.315  12.890  0.7914 -1.0540 -0.4247
 4625TIP3    H235367   0.224   3.292  12.775  0.8025 -0.2019 -0.6137
 4626TIP3   OH235368   4.204   4.576   3.232  0.1400  0.1491  0.5636
 4626TIP3    H135369   4.133   4.630   3.200 -1.0086 -1.4750  0.2519
 4626TIP3    H235370   4.161   4.503   3.277  1.6403 -0.0236  1.8151
 4627TIP3   OH235371   5.044   4.745   2.566 -0.1168  0.1974  0.9271
 4627TIP3    H135372   5.043   4.649   2.576 -1.1438  0.0811 -0.1035
 4627TIP3    H235373   5.126   4.763   2.520 -0.4261 -0.3078  0.1552
 4628TIP3   OH235374   6.304   2.962  15.874  0.0798 -0.0465 -0.3331
 4628TIP3    H135375   6.295   2.875  15.912  0.1630  0.3587  0.6436
 4628TIP3    H235376   6.279   2.951  15.782 -1.6054 -0.7482  0.1818
 4629TIP3   OH235377   5.940   2.916   3.447 -0.5305  0.4333 -0.7508
 4629TIP3    H135378   6.009   2.972   3.481 -0.3516 -0.0354 -0.3261
 4629TIP3    H235379   5.925   2.851   3.516 -0.1191 -0.5658 -1.5750
 4630TIP3   OH235380   0.563   0.113   2.103  0.1795  0.4975  0.1857
 4630TIP3    H135381   0.611   0.098   2.021  0.0384 -0.1282  0.2135
 4630TIP3    H235382   0.628   0.095   2.171 -0.3318 -1.3891  0.2479
 4631TIP3   OH235383   2.881   1.612  16.598 -0.4905  0.2580  0.0667
 4631TIP3    H135384   2.882   1.616  16.502 -0.1179 -0.2987  0.0413
 4631TIP3    H235385   2.951   1.672  16.625 -1.0386  0.9353  0.0226
 4632TIP3   OH235386   6.813   5.459  10.909 -0.2295 -0.4413  0.0058
 4632TIP3    H135387   6.856   5.384  10.950 -0.1318 -0.3596  0.0527
 4632TIP3    H235388   6.823   5.445  10.815 -1.8112 -1.4402 -0.0511
 4633TIP3   OH235389   6.471   3.377   0.058  0.1993 -0.2563 -0.2646
 4633TIP3    H135390   6.451   3.425   0.138 -2.0696 -1.6048  0.0709
 4633TIP3    H235391   6.566   3.370   0.057  0.3443  0.8923  1.6497
 4634TIP3   OH235392   1.223   4.144  16.160 -0.1039 -0.0319 -0.0373
 4634TIP3    H135393   1.281   4.118  16.088  1.2089  0.6957  0.7222
 4634TIP3    H235394   1.211   4.239  16.148 -0.6140 -0.0635  0.1969
 4635TIP3   OH235395   0.377   4.378   6.153 -0.3396  0.3175 -0.1421
 4635TIP3    H135396   0.442   4.344   6.215 -0.2981  1.1352  0.2723
 4635TIP3    H235397   0.402   4.470   6.140 -1.1012  0.4946 -0.3888
 4636TIP3   OH235398   4.626   2.633   3.440  0.0579 -0.2787  0.1022
 4636TIP3    H135399   4.652   2.696   3.372  1.1717 -2.0564 -1.2112
 4636TIP3    H235400   4.709   2.604   3.478 -0.4438 -0.8998  0.7366
 4637TIP3   OH235401   5.789   4.045  15.042 -0.2808  0.1017  0.6871
 4637TIP3    H135402   5.797   4.117  14.979  0.5245 -0.2439  0.3748
 4637TIP3    H235403   5.874   4.043  15.086  0.2064 -1.4979 -0.2503
 4638TIP3   OH235404   3.736   3.927   4.529 -0.0039  0.2565  0.1297
 4638TIP3    H135405   3.825   3.961   4.536  1.0143 -1.8418 -1.3004
 4638TIP3    H235406   3.729   3.863   4.600 -0.6126  0.8278  0.5993
 4639TIP3   OH235407   5.588   1.549  15.378  0.8966  0.1716  0.7204
 4639TIP3    H135408   5.530   1.623  15.358  2.6638  2.2425  2.6726
 4639TIP3    H235409   5.660   1.559  15.316  2.6113  2.0222  2.8383
 4640TIP3   OH235410   5.933   3.597  12.541  0.0562 -0.3346  0.0898
 4640TIP3    H135411   5.868   3.622  12.607  0.5691  2.3867 -0.3316
 4640TIP3    H235412   5.912   3.651  12.465  1.8343 -0.5820 -0.6228
 4641TIP3   OH235413   2.208   3.606   5.736  0.2919 -0.0547  0.4703
 4641TIP3    H135414   2.195   3.534   5.674  2.2773 -0.2111  0.1803
 4641TIP3    H235415   2.126   3.655   5.733 -0.0696 -0.6936 -1.4285
 4642TIP3   OH235416   0.728   0.702  15.674  0.6811 -0.1589  0.2611
 4642TIP3    H135417   0.669   0.762  15.717  2.1876  1.0494  0.7286
 4642TIP3    H235418   0.671   0.637  15.632 -0.9408  1.0848  0.4799
 4643TIP3   OH235419   1.751   1.463   2.122  0.2856 -0.6447 -0.2741
 4643TIP3    H135420   1.757   1.556   2.101 -0.7918 -0.8925 -1.8958
 4643TIP3    H235421   1.738   1.459   2.217 -0.8337  0.9102 -0.3432
 4644TIP3   OH235422   2.947   1.570   1.031 -0.5923  0.6058  0.1410
 4644TIP3    H135423   2.960   1.643   1.091 -1.3730 -0.0039  1.0785
 4644TIP3    H235424   2.991   1.496   1.073  0.9559  0.6859 -1.2141
 4645TIP3   OH235425   0.101   6.221   4.148 -0.1190  0.3278 -0.3817
 4645TIP3    H135426   0.060   6.220   4.061 -3.5708  1.0148  1.0974
 4645TIP3    H235427   0.084   6.134   4.184  3.6685 -0.9653 -1.2133
 4646TIP3   OH235428   3.909   3.981   2.955  0.1091  0.0345  0.2346
 4646TIP3    H135429   3.922   4.065   2.910 -1.3965 -0.9010 -2.1693
 4646TIP3    H235430   3.988   3.969   3.008  0.5129  2.7691  0.3904
 4647TIP3   OH235431   5.712   0.878  13.514 -0.4127  0.2563  0.7518
 4647TIP3    H135432   5.693   0.894  13.422 -0.8792  1.7245  1.0792
 4647TIP3    H235433   5.771   0.803  13.514  1.4221  1.5911 -0.9097
 4648TIP3   OH235434   0.715   6.524   0.589 -0.5955 -0.1582 -0.3174
 4648TIP3    H135435   0.739   6.494   0.677 -0.8299 -0.8802 -0.4934
 4648TIP3    H235436   0.744   6.454   0.531 -0.3469  0.3650 -0.8335
 4649TIP3   OH235437   6.562   0.866   3.482 -0.0783 -0.2646 -0.0857
 4649TIP3    H135438   6.503   0.888   3.410  2.0567 -0.7484 -2.1338
 4649TIP3    H235439   6.511   0.807   3.538 -1.3493 -1.1592 -2.0742
 4650TIP3   OH235440   0.614   5.290   4.235  0.4203  0.3601 -0.1617
 4650TIP3    H135441   0.613   5.264   4.142 -0.5586  2.5547 -0.8385
 4650TIP3    H235442   0.691   5.246   4.271  0.9929 -0.3251 -2.0755
 4651TIP3   OH235443   3.443   3.307  14.151  0.6295 -0.6694  0.1752
 4651TIP3    H135444   3.412   3.216  14.160 -0.4993 -0.3490 -0.2455
 4651TIP3    H235445   3.375   3.359  14.193  0.5475  0.0697 -0.8242
 4652TIP3   OH235446   5.526   2.274   0.908  0.2217 -0.2352 -0.7879
 4652TIP3    H135447   5.519   2.360   0.950  1.1467 -0.2274 -0.6289
 4652TIP3    H235448   5.574   2.291   0.827  1.4345 -0.7698 -0.1968
 4653TIP3   OH235449   2.993   3.211   3.830  0.1643 -0.5969 -0.2043
 4653TIP3    H135450   2.996   3.280   3.896  0.3937 -0.1136 -0.7141
 4653TIP3    H235451   2.912   3.228   3.782 -0.9740 -2.0412  1.1064
 4654TIP3   OH235452   5.919   1.260   0.168  0.8945 -0.0287  0.1819
 4654TIP3    H135453   5.906   1.242   0.074  0.8041  0.5428  0.0833
 4654TIP3    H235454   5.883   1.182   0.211  0.0387  0.1286 -0.2214
 4655TIP3   OH235455   6.818   2.816  12.157  0.0946  0.0634 -0.0391
 4655TIP3    H135456   6.812   2.835  12.250 -2.6744 -1.8542  0.2713
 4655TIP3    H235457   6.754   2.875  12.116  3.1638  2.9062 -1.2603
 4656TIP3   OH235458   6.730   6.228   5.467  0.1799 -0.4311  0.2440
 4656TIP3    H135459   6.682   6.220   5.550  2.2635  1.2191  1.7069
 4656TIP3    H235460   6.692   6.306   5.426 -2.3304 -2.4032 -1.5376
 4657TIP3   OH235461   1.368   0.356   0.843 -0.1283  0.6521  1.0421
 4657TIP3    H135462   1.365   0.450   0.857  0.8156  0.8933 -0.2210
 4657TIP3    H235463   1.435   0.324   0.903 -1.4013  0.5586  2.4703
 4658TIP3   OH235464   5.018   0.299   1.403  0.3629 -0.1105 -0.0472
 4658TIP3    H135465   4.934   0.344   1.408  0.1190 -0.6826  1.4625
 4658TIP3    H235466   5.024   0.269   1.312 -1.2704 -0.4334 -0.0829
 4659TIP3   OH235467   6.668   4.895  13.899  0.0017  0.5444  0.2933
 4659TIP3    H135468   6.700   4.866  13.814 -0.8928  1.6951 -0.4688
 4659TIP3    H235469   6.747   4.910  13.951  0.5367 -1.0474 -0.0064
 4660TIP3   OH235470   1.946   1.317  17.150  0.1796 -0.2747 -0.6067
 4660TIP3    H135471   2.001   1.327  17.072 -1.4213  0.1063 -1.7297
 4660TIP3    H235472   2.006   1.326  17.223  2.2953 -3.4290 -1.7301
 4661TIP3   OH235473   2.189   5.131   2.536  0.6617  0.3992  0.3346
 4661TIP3    H135474   2.218   5.192   2.603 -0.2169  0.3608  0.7615
 4661TIP3    H235475   2.097   5.114   2.557  0.9241 -1.1749  0.3206
 4662TIP3   OH235476   2.960   5.522   4.510  0.0824 -0.0448  0.9153
 4662TIP3    H135477   2.887   5.503   4.570  0.4222 -1.6071  0.8664
 4662TIP3    H235478   2.986   5.612   4.533 -2.1009  0.7192  0.6520
 4663TIP3   OH235479   2.528   5.504  11.824  0.0212  0.2711  0.5345
 4663TIP3    H135480   2.448   5.508  11.771 -0.3442 -1.4564  0.8916
 4663TIP3    H235481   2.522   5.420  11.870  0.5983  1.4443  2.9074
 4664TIP3   OH235482   3.461   1.375   1.897 -0.5088  0.3889 -0.0836
 4664TIP3    H135483   3.519   1.366   1.822 -0.5981  0.8743 -0.2159
 4664TIP3    H235484   3.408   1.453   1.877  0.1518  1.1211  0.9406
 4665TIP3   OH235485   5.351   3.794  14.491  0.6126  0.7583 -0.1868
 4665TIP3    H135486   5.402   3.868  14.523  1.3104 -0.3604  1.3658
 4665TIP3    H235487   5.316   3.752  14.569 -0.2918 -0.2179 -1.0727
 4666TIP3   OH235488   6.110   6.747   3.965 -0.4790  0.1023  0.1105
 4666TIP3    H135489   6.117   6.837   3.997  0.2119  0.6250 -1.3713
 4666TIP3    H235490   6.148   6.751   3.877  0.7220 -1.9031  0.4795
 4667TIP3   OH235491   3.636   1.195   0.781 -0.0427 -0.0217  0.2582
 4667TIP3    H135492   3.726   1.211   0.754  0.3108  2.0173  2.3176
 4667TIP3    H235493   3.624   1.101   0.773  2.5718 -0.4597  0.7590
 4668TIP3   OH235494   5.044   3.991   1.440  0.6143 -0.5164 -0.2047
 4668TIP3    H135495   5.047   4.065   1.379  0.2464  0.7707  1.2568
 4668TIP3    H235496   4.957   3.996   1.479  0.2410 -2.3131 -0.7133
 4669TIP3   OH235497   6.676   6.331  15.245 -0.2284 -0.2996  0.8487
 4669TIP3    H135498   6.687   6.384  15.166  0.4230 -1.0896  0.3951
 4669TIP3    H235499   6.682   6.394  15.317 -0.4768  0.3805  0.2931
 4670TIP3   OH235500   5.339   3.988  12.467 -0.2807 -0.1969  0.1515
 4670TIP3    H135501   5.301   3.963  12.552 -0.8007 -0.4512 -0.1505
 4670TIP3    H235502   5.292   3.934  12.403  1.0428 -0.9962 -0.1736
 4671TIP3   OH235503   4.501   5.332  11.044  0.8911 -0.0826  0.1569
 4671TIP3    H135504   4.593   5.354  11.028  0.9584 -0.6318 -0.2681
 4671TIP3    H235505   4.504   5.269  11.116  0.7615  0.6783  0.8384
 4672TIP3   OH235506   6.751   2.034  15.531  0.9720  0.3681 -0.2183
 4672TIP3    H135507   6.845   2.035  15.510  0.5410  0.0022 -2.3993
 4672TIP3    H235508   6.714   1.966  15.475 -0.4857 -0.2091  1.3362
 4673TIP3   OH235509   6.408   4.207   0.617  0.2218  0.6425  0.1349
 4673TIP3    H135510   6.414   4.239   0.707 -2.4435  0.1406  0.5686
 4673TIP3    H235511   6.316   4.185   0.605  0.8765 -1.3592 -2.0340
 4674TIP3   OH235512   6.689   6.094  15.565 -0.2828  0.2157 -0.8635
 4674TIP3    H135513   6.741   6.129  15.638 -1.6993 -1.3366  1.0275
 4674TIP3    H235514   6.751   6.089  15.492  1.0891  2.3186  0.0372
 4675TIP3   OH235515   6.467   1.154  14.883 -0.3724  0.6160  0.3212
 4675TIP3    H135516   6.391   1.183  14.833 -0.0758  0.1890 -0.3983
 4675TIP3    H235517   6.432   1.126  14.967 -1.1873 -0.7799 -0.4495
 4676TIP3   OH235518   5.429   5.134   3.783 -0.0973  0.3132 -0.4156
 4676TIP3    H135519   5.448   5.226   3.799 -0.8240  0.2762  0.7727
 4676TIP3    H235520   5.336   5.124   3.802 -0.5931 -0.2147 -2.7921
 4677TIP3   OH235521   2.256   1.121   3.081 -0.2468  0.2113 -0.4171
 4677TIP3    H135522   2.345   1.096   3.105  0.1292  2.0884  0.3072
 4677TIP3    H235523   2.225   1.174   3.155 -0.4614  2.9451 -2.3186
 4678TIP3   OH235524   2.736   2.403  11.234 -0.2421 -0.1297 -0.5661
 4678TIP3    H135525   2.651   2.436  11.206 -0.1444 -0.4868 -1.2899
 4678TIP3    H235526   2.729   2.308  11.226  0.1331 -0.1745 -0.3660
 4679TIP3   OH235527   0.520   3.751   1.038 -0.1296  0.2167  0.1313
 4679TIP3    H135528   0.513   3.682   1.104 -1.4325  0.7171  0.5513
 4679TIP3    H235529   0.613   3.757   1.019  0.1720 -0.5463  1.2780
 4680TIP3   OH235530   1.017   2.339   2.329  0.4104 -0.6310 -0.3747
 4680TIP3    H135531   1.033   2.369   2.240  0.4974  1.8684  0.3990
 4680TIP3    H235532   1.099   2.295   2.355 -0.3079 -3.1850 -2.1109
 4681TIP3   OH235533   5.305   0.949   2.838 -0.1614 -0.3346 -0.3611
 4681TIP3    H135534   5.373   0.961   2.773  0.6161 -1.5971  0.1905
 4681TIP3    H235535   5.264   0.865   2.817 -2.3872  0.9031 -1.3912
 4682TIP3   OH235536   4.471   5.753   5.194  0.6726 -0.2000  0.0308
 4682TIP3    H135537   4.545   5.814   5.187 -0.7226  1.5904  0.1167
 4682TIP3    H235538   4.507   5.669   5.166  2.3342  0.9393 -1.5428
 4683TIP3   OH235539   0.468   0.331  15.431 -0.1072 -0.4341 -0.1680
 4683TIP3    H135540   0.405   0.297  15.494 -0.4559  0.6632  0.0919
 4683TIP3    H235541   0.431   0.311  15.345  0.8296 -2.8171 -0.0956
 4684TIP3   OH235542   4.598   5.216   5.657 -0.1848 -0.2059 -0.0249
 4684TIP3    H135543   4.530   5.206   5.723 -1.9967  1.1752 -1.5811
 4684TIP3    H235544   4.565   5.284   5.598  1.4185 -1.2303 -2.2569
 4685TIP3   OH235545   2.788   2.787  13.542  0.4455 -0.0195  0.0508
 4685TIP3    H135546   2.806   2.823  13.629 -1.7070  0.0587  0.5216
 4685TIP3    H235547   2.787   2.692  13.555  3.5165 -0.2671 -0.6644
 4686TIP3   OH235548   6.668   0.686  16.338 -0.4894  0.5211 -0.4161
 4686TIP3    H135549   6.592   0.662  16.285 -0.5938  1.0251 -0.4977
 4686TIP3    H235550   6.743   0.660  16.285 -0.5924  1.0039 -0.8029
 4687TIP3   OH235551   0.291   3.643  14.731  0.0977  0.0698 -0.4466
 4687TIP3    H135552   0.233   3.658  14.805  1.3995  1.3625  0.3729
 4687TIP3    H235553   0.281   3.721  14.676  0.6522  0.0633 -0.5683
 4688TIP3   OH235554   5.577   0.344  17.221 -0.3588  0.1712 -0.9564
 4688TIP3    H135555   5.664   0.339  17.260 -1.0411 -0.6610  0.5627
 4688TIP3    H235556   5.589   0.313  17.131  1.0073  0.6770 -0.9672
 4689TIP3   OH235557   1.195   6.823  11.631 -0.1452 -0.2008  0.2772
 4689TIP3    H135558   1.146   6.740  11.636 -0.9251 -0.0657 -2.7753
 4689TIP3    H235559   1.287   6.797  11.634 -0.3788 -0.9640  1.2629
 4690TIP3   OH235560   5.884   4.478  12.750 -0.1777  0.9743  0.1353
 4690TIP3    H135561   5.920   4.483  12.838  2.3439  0.6019 -0.7625
 4690TIP3    H235562   5.889   4.568  12.717  0.6878  0.8129 -0.2200
 4691TIP3   OH235563   3.322   3.713  11.551 -0.9107 -0.2246 -0.0953
 4691TIP3    H135564   3.333   3.759  11.468 -1.1339 -1.7389 -1.0086
 4691TIP3    H235565   3.411   3.691  11.579 -0.8912 -0.9611 -0.6963
 4692TIP3   OH235566   4.561   4.994  14.521 -0.2349  0.1560  0.6080
 4692TIP3    H135567   4.573   4.916  14.467 -1.1941 -1.5412  2.7002
 4692TIP3    H235568   4.631   4.989  14.586  1.1214  2.3478 -0.5552
 4693TIP3   OH235569   1.549   4.090   2.337 -0.0756 -0.1612  0.5076
 4693TIP3    H135570   1.545   3.998   2.362  0.3299  0.0376  1.3147
 4693TIP3    H235571   1.603   4.132   2.404 -0.6490  0.7577  0.4180
 4694TIP3   OH235572   4.343   0.616  16.729 -0.4405 -0.2949  0.8007
 4694TIP3    H135573   4.396   0.571  16.794  0.5727  0.9752  0.8743
 4694TIP3    H235574   4.405   0.668  16.678 -1.4007 -0.1017 -0.2223
 4695TIP3   OH235575   0.124   3.465   2.189 -0.1218 -0.1569 -0.7539
 4695TIP3    H135576   0.137   3.462   2.284 -1.0102  0.4242 -0.5997
 4695TIP3    H235577   0.159   3.382   2.157  0.7026 -0.1191  0.0140
 4696TIP3   OH235578   3.609   0.774   3.960  0.1097 -0.0083 -0.2914
 4696TIP3    H135579   3.618   0.742   3.871 -1.7861  0.8932 -0.8585
 4696TIP3    H235580   3.586   0.697   4.012  2.5692 -0.7958 -0.2723
 4697TIP3   OH235581   2.945   0.806   5.633 -0.2547  0.2252 -0.0380
 4697TIP3    H135582   2.960   0.792   5.726 -1.0380  1.3283  0.2775
 4697TIP3    H235583   3.029   0.840   5.600  0.0897 -0.3685  0.2074
 4698TIP3   OH235584   3.206   3.451   2.080 -0.1783 -0.0757  0.2354
 4698TIP3    H135585   3.270   3.405   2.134 -0.1079  0.9546  1.0612
 4698TIP3    H235586   3.253   3.471   1.999  0.3814  0.1651  0.6092
 4699TIP3   OH235587   2.287   2.676  11.176  0.3210 -0.4427  0.1064
 4699TIP3    H135588   2.275   2.759  11.130  0.3593 -0.2705  0.4076
 4699TIP3    H235589   2.198   2.644  11.191  0.3205 -0.8934 -0.7971
 4700TIP3   OH235590   6.659   6.536   6.293 -0.2954 -0.1612  0.1689
 4700TIP3    H135591   6.649   6.457   6.345 -0.3248  1.3118  2.5385
 4700TIP3    H235592   6.753   6.556   6.297 -0.3716  0.2391  0.0468
 4701TIP3   OH235593   4.394   4.142  16.776  0.4484  0.0251  0.6777
 4701TIP3    H135594   4.426   4.181  16.857 -1.2188 -0.0213  1.4134
 4701TIP3    H235595   4.423   4.051  16.779  0.4298  0.0348  1.2022
 4702TIP3   OH235596   5.000   5.972   0.057 -0.0490  0.5547  0.3861
 4702TIP3    H135597   5.068   6.031   0.091  0.0806  0.3672  0.4612
 4702TIP3    H235598   5.027   5.955  -0.033 -0.1071  0.6410  0.3526
 4703TIP3   OH235599   0.047   3.032   6.141 -0.1272  0.1195  0.2085
 4703TIP3    H135600   0.017   2.941   6.141  1.2582 -0.3833  1.4382
 4703TIP3    H235601  -0.021   3.080   6.188 -0.8703 -0.2655 -0.4522
 4704TIP3   OH235602   4.422   0.744  13.999  0.1444  0.3089 -0.9305
 4704TIP3    H135603   4.437   0.792  13.918  1.3769  2.1136  0.2838
 4704TIP3    H235604   4.380   0.807  14.058 -0.8720 -0.9978 -0.1824
 4705TIP3   OH235605   1.230   5.758   2.357 -0.2841  0.1690  0.4888
 4705TIP3    H135606   1.230   5.789   2.448 -1.2693 -0.0251  0.5659
 4705TIP3    H235607   1.172   5.818   2.311  0.7314  0.6784 -0.1768
 4706TIP3   OH235608   1.268   2.346  15.792  0.2816 -0.2398 -0.3017
 4706TIP3    H135609   1.339   2.384  15.844  1.7528 -2.5652 -0.4760
 4706TIP3    H235610   1.308   2.324  15.708 -0.6121 -1.6004 -0.4080
 4707TIP3   OH235611   6.048   4.475   1.635  0.6618  0.2968  0.0357
 4707TIP3    H135612   6.105   4.520   1.573 -1.5460  1.3939 -1.3370
 4707TIP3    H235613   6.046   4.384   1.604  0.8721  0.4678 -0.4888
 4708TIP3   OH235614   0.317   2.755   2.881 -0.0205 -0.2379 -0.6255
 4708TIP3    H135615   0.346   2.664   2.892 -1.9502 -0.8604 -0.2439
 4708TIP3    H235616   0.319   2.792   2.969  0.9951  0.1987 -0.8141
 4709TIP3   OH235617   0.496   0.284   5.627 -0.1935  0.2995 -0.9137
 4709TIP3    H135618   0.491   0.202   5.578  0.5528 -0.2513 -0.1087
 4709TIP3    H235619   0.443   0.346   5.577  1.2019  0.0003 -2.8684
 4710TIP3   OH235620   1.804   1.060  17.133  0.1147 -0.1093 -0.5252
 4710TIP3    H135621   1.864   1.134  17.127 -0.9160  0.6132 -4.1061
 4710TIP3    H235622   1.737   1.088  17.196  0.6329  1.2802 -0.5610
 4711TIP3   OH235623   0.658   2.547   4.591 -0.3784 -0.1337 -0.1074
 4711TIP3    H135624   0.661   2.578   4.681  3.8314  1.6850 -0.6212
 4711TIP3    H235625   0.684   2.455   4.595 -0.1585 -0.0420  0.5170
 4712TIP3   OH235626   4.449   1.322   4.092  0.4043 -0.1412  0.1891
 4712TIP3    H135627   4.472   1.229   4.086 -0.8583 -0.3405 -3.2882
 4712TIP3    H235628   4.387   1.337   4.021 -1.0158  2.9743  1.8835
 4713TIP3   OH235629   5.013   3.510  12.537 -0.2170  0.2470 -0.2856
 4713TIP3    H135630   5.083   3.517  12.472  0.8700 -0.2642  0.7829
 4713TIP3    H235631   4.943   3.462  12.493 -0.0455  1.0693 -1.4895
 4714TIP3   OH235632   5.484   1.195   2.474  0.4099 -0.2705 -0.0262
 4714TIP3    H135633   5.459   1.280   2.438 -0.2857  0.0445  1.1492
 4714TIP3    H235634   5.508   1.143   2.398 -3.3894 -0.4642 -1.2897
 4715TIP3   OH235635   3.552   6.788   2.576  0.0449 -0.3291  0.6054
 4715TIP3    H135636   3.496   6.780   2.653 -1.3992  2.8233  0.0255
 4715TIP3    H235637   3.492   6.809   2.505  1.6740  0.0401 -0.7274
 4716TIP3   OH235638   0.017   0.203   4.656  0.0707  0.0055  0.3151
 4716TIP3    H135639   0.097   0.222   4.606  1.1132 -0.9903  1.5361
 4716TIP3    H235640  -0.029   0.287   4.659  2.2583  1.2814  1.6165
 4717TIP3   OH235641   1.260   4.296   2.521 -0.0688 -0.2748  0.0539
 4717TIP3    H135642   1.245   4.285   2.615  0.6214 -0.2764  0.1685
 4717TIP3    H235643   1.177   4.329   2.488 -0.5829 -1.0430  0.5302
 4718TIP3   OH235644   6.343   5.428  12.064  0.1594  0.1636 -0.3656
 4718TIP3    H135645   6.380   5.475  12.139  1.2793  0.6134 -1.1703
 4718TIP3    H235646   6.352   5.336  12.086  0.8006  0.2879 -0.0895
 4719TIP3   OH235647   1.277   4.426   5.058  0.0073 -0.2976  0.1116
 4719TIP3    H135648   1.227   4.365   5.004  0.4105 -0.6185  0.0874
 4719TIP3    H235649   1.221   4.444   5.133 -0.7661  0.5559 -0.6617
 4720TIP3   OH235650   3.393   5.069  15.089 -0.7924 -0.0429  0.1524
 4720TIP3    H135651   3.315   5.023  15.059 -0.0052 -0.7119 -0.9545
 4720TIP3    H235652   3.406   5.139  15.025  1.5141 -2.1315 -1.8737
 4721TIP3   OH235653   3.550   5.884  14.557 -0.5377  0.5952  0.1225
 4721TIP3    H135654   3.483   5.833  14.512 -0.8488 -0.2936  1.5141
 4721TIP3    H235655   3.508   5.911  14.639  0.1136  1.8886  0.0626
 4722TIP3   OH235656   4.129   3.605   5.002 -0.6995 -0.3825 -0.7129
 4722TIP3    H135657   4.066   3.562   5.060 -1.9623  0.6808 -1.2483
 4722TIP3    H235658   4.089   3.690   4.982  0.9951  0.4126 -0.9282
 4723TIP3   OH235659   0.535   1.409   2.363 -0.0829  0.4087 -0.1645
 4723TIP3    H135660   0.604   1.456   2.409 -0.6619  0.4656  0.6633
 4723TIP3    H235661   0.517   1.463   2.286  0.8011  0.3835 -0.3974
 4724TIP3   OH235662   2.160   0.039  14.728 -0.5156 -0.3111  0.3120
 4724TIP3    H135663   2.227   0.063  14.664  0.5843 -1.5427  0.9708
 4724TIP3    H235664   2.081   0.083  14.696  0.6873  1.6439 -0.1913
 4725TIP3   OH235665   2.943   1.370  16.035 -0.2485  0.1754  0.3890
 4725TIP3    H135666   2.917   1.292  16.084 -1.9911  0.3367 -0.1963
 4725TIP3    H235667   3.019   1.403  16.082  1.3911 -2.5854 -0.1084
 4726TIP3   OH235668   3.559   5.203  15.988 -0.8240 -0.0946 -0.0649
 4726TIP3    H135669   3.579   5.217  15.895 -0.0603  0.7852  0.2211
 4726TIP3    H235670   3.592   5.116  16.007  1.5476  0.7684  0.0460
 4727TIP3   OH235671   3.749   1.929   1.449 -0.1627  0.3409  0.0799
 4727TIP3    H135672   3.677   1.893   1.501 -0.0414 -1.6473 -1.0478
 4727TIP3    H235673   3.730   2.023   1.444 -1.3740  0.2317  1.7826
 4728TIP3   OH235674   4.726   5.720  12.348  0.0216 -0.0181  0.0169
 4728TIP3    H135675   4.780   5.743  12.273  0.9203  1.5091  1.0844
 4728TIP3    H235676   4.775   5.751  12.424 -2.0945  0.9741  1.0755
 4729TIP3   OH235677   3.980   2.587   2.623  0.6294 -0.8495  0.0939
 4729TIP3    H135678   3.979   2.548   2.711  1.5149 -0.0807  0.4655
 4729TIP3    H235679   4.034   2.665   2.632  1.7295 -1.3818 -1.4048
 4730TIP3   OH235680   4.764   3.119   6.055  0.3437  0.0986 -0.2431
 4730TIP3    H135681   4.738   3.047   6.112 -1.7415  1.3153  0.4279
 4730TIP3    H235682   4.773   3.078   5.969  0.6155 -1.2110  0.3713
 4731TIP3   OH235683   4.310   2.968   2.015  0.3813 -0.3046  0.6949
 4731TIP3    H135684   4.338   3.008   1.933  1.6618 -1.9391  0.2761
 4731TIP3    H235685   4.222   3.003   2.031  0.4880  0.7452 -0.8756
 4732TIP3   OH235686   5.034   6.461   0.704 -0.6309  0.0980 -0.2227
 4732TIP3    H135687   5.018   6.370   0.730 -0.5934  0.4839  1.2278
 4732TIP3    H235688   4.976   6.513   0.760  0.5461  1.0653  0.1440
 4733TIP3   OH235689   1.462   6.259  16.029  0.4744 -0.6347 -0.4318
 4733TIP3    H135690   1.393   6.271  16.094  0.2324 -0.3974 -0.7299
 4733TIP3    H235691   1.514   6.340  16.035  0.6046 -0.7240 -0.3540
 4734TIP3   OH235692   1.455   4.297   3.480  0.3752 -0.5361  1.0036
 4734TIP3    H135693   1.412   4.219   3.443  0.4350  0.0522 -0.3596
 4734TIP3    H235694   1.397   4.324   3.552 -1.1741 -0.2101 -0.2997
 4735TIP3   OH235695   2.040   4.596   5.553 -0.4992 -0.2760  0.4172
 4735TIP3    H135696   2.016   4.688   5.555  0.0279 -0.1275  0.1788
 4735TIP3    H235697   1.998   4.558   5.630 -1.4541 -0.0267  0.0271
 4736TIP3   OH235698   0.358   1.992  15.214 -0.2185 -0.2526 -0.3566
 4736TIP3    H135699   0.442   2.023  15.179  0.5531 -0.5513  1.1842
 4736TIP3    H235700   0.349   2.036  15.298 -1.6262 -0.2307 -0.4947
 4737TIP3   OH235701   3.774   2.865   0.869 -0.4691  0.0589 -0.0850
 4737TIP3    H135702   3.809   2.926   0.933 -1.3381 -0.4750  0.9290
 4737TIP3    H235703   3.699   2.824   0.913  0.7995 -2.6333 -0.2575
 4738TIP3   OH235704   1.007   2.738   4.407 -0.2063  0.5536  0.6514
 4738TIP3    H135705   1.092   2.780   4.396 -1.2111  2.3664 -0.6907
 4738TIP3    H235706   1.013   2.694   4.492  2.5350 -0.6171 -0.0453
 4739TIP3   OH235707   5.724   4.416   4.385 -0.4344 -0.0276  0.6481
 4739TIP3    H135708   5.715   4.349   4.453 -1.3434  0.8122  1.3773
 4739TIP3    H235709   5.751   4.495   4.432  1.3437 -0.0203 -0.2949
 4740TIP3   OH235710   5.501   1.667   6.407  0.5643 -0.4968  0.5242
 4740TIP3    H135711   5.560   1.666   6.481 -0.0720 -0.6878  1.0413
 4740TIP3    H235712   5.479   1.574   6.393  1.4398 -0.5648 -0.5285
 4741TIP3   OH235713   4.811   6.021   3.758  0.3088  0.1275  0.2401
 4741TIP3    H135714   4.739   6.075   3.725  0.5595  0.0912 -0.3829
 4741TIP3    H235715   4.889   6.057   3.716  0.2222 -2.2310 -2.2387
 4742TIP3   OH235716   1.162   0.433   4.166  0.1990 -0.1261  0.0285
 4742TIP3    H135717   1.097   0.420   4.235  1.0022  1.6365  1.2112
 4742TIP3    H235718   1.232   0.371   4.187 -0.4493 -1.0109 -0.4006
 4743TIP3   OH235719   0.114   4.030  15.395 -0.0378 -0.2695  0.1499
 4743TIP3    H135720   0.108   4.098  15.462  0.9869 -1.2811  1.3111
 4743TIP3    H235721   0.083   3.951  15.439  2.3984 -1.3494  0.0589
 4744TIP3   OH235722   2.698   0.579   0.250  0.4122  0.6860 -0.1889
 4744TIP3    H135723   2.696   0.551   0.342 -0.6190 -0.0792 -0.4214
 4744TIP3    H235724   2.614   0.622   0.237 -1.1342 -2.3990 -1.6797
 4745TIP3   OH235725   3.869   1.991  15.147 -0.2798  0.4261  0.2320
 4745TIP3    H135726   3.941   2.055  15.142  0.2797 -0.2818 -2.6806
 4745TIP3    H235727   3.905   1.911  15.108 -2.3971 -0.1729 -0.6505
 4746TIP3   OH235728   2.647   1.807   3.612  0.3133  0.4081 -0.2068
 4746TIP3    H135729   2.685   1.884   3.655 -0.4122  0.1872  0.8598
 4746TIP3    H235730   2.693   1.802   3.528  0.8587  1.5975 -0.0033
 4747TIP3   OH235731   6.141   3.859   2.461  0.0582  0.2563 -0.0882
 4747TIP3    H135732   6.062   3.848   2.408  0.4803  0.1219 -0.7102
 4747TIP3    H235733   6.154   3.773   2.502  0.8678 -0.2749 -1.4079
 4748TIP3   OH235734   5.563   2.096  16.145 -0.2947 -0.8641  0.2797
 4748TIP3    H135735   5.616   2.084  16.224 -0.2531  0.5443  0.4915
 4748TIP3    H235736   5.626   2.112  16.076 -0.3292 -2.1673 -0.0704
 4749TIP3   OH235737   1.876   6.754   4.277  0.2579 -0.7066  0.1781
 4749TIP3    H135738   1.813   6.686   4.302 -0.2364 -1.3374 -2.5438
 4749TIP3    H235739   1.836   6.836   4.307 -1.6231 -1.1473 -1.0072
 4750TIP3   OH235740   5.846   6.495  16.910  0.2462 -0.0865  0.6197
 4750TIP3    H135741   5.831   6.533  16.823  1.2342  1.2719  1.0114
 4750TIP3    H235742   5.783   6.424  16.916 -1.7258  1.4813 -0.1634
 4751TIP3   OH235743   5.212   1.463   1.450  0.0029  0.0496  0.6586
 4751TIP3    H135744   5.278   1.440   1.385 -1.0980  0.9667 -0.8310
 4751TIP3    H235745   5.138   1.406   1.432  0.5051 -1.3275  2.6494
 4752TIP3   OH235746   0.231   1.383   0.239  0.1735 -0.0364 -0.6726
 4752TIP3    H135747   0.148   1.404   0.282  0.2853  2.1567 -1.3859
 4752TIP3    H235748   0.277   1.328   0.302 -0.9158  0.5413  0.6898
 4753TIP3   OH235749   6.308   1.158   0.847 -0.2161  0.5962 -0.5161
 4753TIP3    H135750   6.328   1.251   0.846  2.2794  0.1252 -0.3692
 4753TIP3    H235751   6.307   1.132   0.754 -2.5010  1.0062 -0.6644
 4754TIP3   OH235752   1.913   5.585   4.025 -0.4824 -0.2260  0.5828
 4754TIP3    H135753   1.839   5.639   4.054 -0.7900 -0.1140 -0.3706
 4754TIP3    H235754   1.891   5.496   4.053 -0.7705 -0.1196  0.6933
 4755TIP3   OH235755   3.685   3.772   0.884 -0.2610  0.1483 -0.2736
 4755TIP3    H135756   3.715   3.846   0.831 -3.6334  0.9994 -1.2574
 4755TIP3    H235757   3.681   3.699   0.822  2.6680 -0.8942  0.6048
 4756TIP3   OH235758   0.628   2.239  12.195 -0.3353 -0.5450 -0.4120
 4756TIP3    H135759   0.661   2.194  12.117 -0.5499 -1.5418  0.0531
 4756TIP3    H235760   0.699   2.296  12.223  0.5360 -1.7283 -0.1438
 4757TIP3   OH235761   5.760   3.634   3.439  0.7222  0.3268 -0.5406
 4757TIP3    H135762   5.782   3.649   3.531 -0.2236  0.1252 -0.2685
 4757TIP3    H235763   5.711   3.711   3.413  0.7073  0.2383 -0.7772
 4758TIP3   OH235764   2.062   2.725   0.398 -0.0199 -0.3820 -0.3650
 4758TIP3    H135765   1.970   2.745   0.383  0.1561  0.7427 -0.0511
 4758TIP3    H235766   2.078   2.645   0.348 -1.1312 -0.5231 -0.5157
 4759TIP3   OH235767   0.638   3.019  11.972  0.7604  0.0425 -0.2524
 4759TIP3    H135768   0.560   2.982  11.932  0.4612  0.7357 -0.3366
 4759TIP3    H235769   0.614   3.031  12.064  0.5834  0.7057 -0.3749
 4760TIP3   OH235770   4.263   6.326  14.291  0.1999  0.0418 -1.2713
 4760TIP3    H135771   4.183   6.373  14.271 -0.5952 -1.5260 -1.9403
 4760TIP3    H235772   4.322   6.346  14.218  0.9442  2.2050 -0.1653
 4761TIP3   OH235773   1.949   2.897  16.237 -0.3249 -0.1613  0.1916
 4761TIP3    H135774   1.890   2.921  16.165 -1.1999 -1.3672  0.4743
 4761TIP3    H235775   1.912   2.816  16.272  1.1847 -0.6215  0.7772
 4762TIP3   OH235776   0.235   0.238  14.976 -0.0958  0.0037 -0.1775
 4762TIP3    H135777   0.194   0.289  15.046  0.3068  0.6218 -0.3815
 4762TIP3    H235778   0.180   0.160  14.968 -0.9691  0.5918 -0.1328
 4763TIP3   OH235779   5.192   0.977  17.194  0.5266  0.0685 -0.1523
 4763TIP3    H135780   5.269   0.923  17.213  0.8761  1.5564  3.7059
 4763TIP3    H235781   5.217   1.028  17.117  2.0976 -1.7274 -0.9140
 4764TIP3   OH235782   0.100   2.577   3.453  0.8336 -0.0879 -0.3899
 4764TIP3    H135783   0.168   2.586   3.386  0.4601 -0.3534 -0.8131
 4764TIP3    H235784   0.051   2.659   3.448  1.8949  0.6488  0.8024
 4765TIP3   OH235785   3.904   3.065  13.042 -0.9143  0.4585  0.2085
 4765TIP3    H135786   3.898   3.120  13.120 -1.3348  0.7687 -0.0396
 4765TIP3    H235787   3.988   3.089  13.002 -0.5036  0.0008  0.7835
 4766TIP3   OH235788   2.919   1.593   5.537 -0.0718 -0.2906 -0.2645
 4766TIP3    H135789   2.943   1.531   5.606 -0.5730  0.2835  0.4306
 4766TIP3    H235790   2.893   1.672   5.583 -1.9382 -0.4119 -1.0426
 4767TIP3   OH235791   4.442   1.883   0.657  0.1980  0.0487  0.1199
 4767TIP3    H135792   4.424   1.792   0.680 -0.3442  0.3995  1.1256
 4767TIP3    H235793   4.494   1.917   0.730  0.8267  0.4156 -0.4828
 4768TIP3   OH235794   6.649   4.291   5.173 -0.1984 -0.4593  0.7876
 4768TIP3    H135795   6.571   4.276   5.119  0.7208  0.3581 -0.8454
 4768TIP3    H235796   6.716   4.234   5.136  1.0343  1.6095 -0.3356
 4769TIP3   OH235797   4.991   4.502   4.950  0.1932 -0.0831  0.2438
 4769TIP3    H135798   5.020   4.593   4.944  1.0163 -0.4126 -1.4479
 4769TIP3    H235799   4.980   4.474   4.859 -3.7851 -0.5599  0.6950
 4770TIP3   OH235800   4.770   6.235   1.106  0.2947  0.3167  0.0932
 4770TIP3    H135801   4.681   6.209   1.130 -0.3621  2.3848  0.1349
 4770TIP3    H235802   4.769   6.237   1.010  0.0743  1.0133  0.1075
 4771TIP3   OH235803   3.373   3.821   5.872  0.7292 -0.0492 -0.6201
 4771TIP3    H135804   3.415   3.807   5.957  1.1412 -0.1436 -0.8395
 4771TIP3    H235805   3.418   3.760   5.813  2.2443  1.8439 -1.5017
 4772TIP3   OH235806   5.990   6.143   2.192  0.0780  0.3763 -0.0877
 4772TIP3    H135807   6.059   6.150   2.126  0.5733  0.8630  0.4590
 4772TIP3    H235808   5.976   6.234   2.221 -1.1470  0.3499 -0.5338
 4773TIP3   OH235809   0.030   2.299   6.580 -0.1712 -0.1592 -0.4759
 4773TIP3    H135810  -0.054   2.259   6.604 -0.6824  0.6411 -0.9068
 4773TIP3    H235811   0.031   2.297   6.484 -0.4734  1.3791 -0.5285
 4774TIP3   OH235812   2.807   2.116   4.856  0.7087  0.6080  0.2991
 4774TIP3    H135813   2.714   2.096   4.848  0.7208  0.3850  0.6846
 4774TIP3    H235814   2.840   2.115   4.767  0.8941 -1.9389  0.3338
 4775TIP3   OH235815   2.727   4.557   2.768  0.4576  0.0800  0.6589
 4775TIP3    H135816   2.673   4.492   2.723  1.3573 -1.1526  1.3037
 4775TIP3    H235817   2.670   4.634   2.775 -0.4498 -0.4403 -0.6006
 4776TIP3   OH235818   6.169   4.612  15.561 -0.5293  0.3428 -0.0025
 4776TIP3    H135819   6.106   4.541  15.550 -0.3830  0.2059  0.0253
 4776TIP3    H235820   6.151   4.673  15.490 -1.6119  1.0047  0.7988
 4777TIP3   OH235821   0.911   3.786  14.132  0.1574 -0.3006  0.0668
 4777TIP3    H135822   0.908   3.708  14.076  0.5925 -0.1221 -0.2171
 4777TIP3    H235823   1.005   3.801  14.147  0.0400 -0.4273  0.9631
 4778TIP3   OH235824   0.857   2.698   2.305  0.4342 -0.2627 -0.2225
 4778TIP3    H135825   0.818   2.751   2.235  0.9379  0.7306  0.2199
 4778TIP3    H235826   0.841   2.749   2.385  3.3943  0.6888 -0.1262
 4779TIP3   OH235827   1.537   6.782   5.832 -0.0073  0.1887  0.0814
 4779TIP3    H135828   1.469   6.780   5.765  0.9967 -0.1375 -0.9767
 4779TIP3    H235829   1.490   6.787   5.915 -1.2738  2.8832 -0.7036
 4780TIP3   OH235830   5.611   5.497  16.659 -0.2635 -0.1125 -0.0587
 4780TIP3    H135831   5.609   5.468  16.750  0.3840 -0.0938 -0.0276
 4780TIP3    H235832   5.686   5.450  16.621 -0.1753  0.3139 -0.4252
 4781TIP3   OH235833   6.296   2.624   0.601 -0.1936  0.2479  0.1286
 4781TIP3    H135834   6.290   2.575   0.519 -0.0701 -1.7302  1.2229
 4781TIP3    H235835   6.263   2.563   0.668 -0.9450  2.0389  1.4738
 4782TIP3   OH235836   3.706   3.289  15.398 -0.0996  0.1733  0.0879
 4782TIP3    H135837   3.619   3.300  15.359 -0.1376  2.9673  0.7470
 4782TIP3    H235838   3.710   3.196  15.421 -2.4646 -0.2746 -0.9563
 4783TIP3   OH235839   6.351   5.346   0.030 -0.0150 -0.0416  0.0950
 4783TIP3    H135840   6.289   5.313  -0.035  1.6751 -0.1706 -1.5522
 4783TIP3    H235841   6.315   5.431   0.057 -1.8611 -0.9548  0.6602
 4784TIP3   OH235842   4.033   3.853   0.127 -0.2053  0.8375 -0.6773
 4784TIP3    H135843   4.076   3.931   0.162 -1.2551  1.1611 -0.0378
 4784TIP3    H235844   3.955   3.843   0.182 -0.2616 -0.4667 -0.9735
 4785TIP3   OH235845   3.986   5.431   0.378 -0.1535  0.0301 -0.3287
 4785TIP3    H135846   3.890   5.436   0.377 -0.2122  0.8936  2.1420
 4785TIP3    H235847   4.006   5.369   0.447  1.0837  0.1396 -0.5690
 4786TIP3   OH235848   6.129   2.331   3.358  0.2033 -0.0696 -0.0718
 4786TIP3    H135849   6.149   2.290   3.274  0.5749 -1.9987  0.9066
 4786TIP3    H235850   6.045   2.293   3.383 -0.3792  1.2346 -0.0120
 4787TIP3   OH235851   6.475   1.140  15.385  0.0576  0.3775  0.0552
 4787TIP3    H135852   6.444   1.144  15.294 -0.3564  1.3465  0.2345
 4787TIP3    H235853   6.449   1.052  15.414 -0.6876  0.4191 -0.4516
 4788TIP3   OH235854   0.629   3.541  14.364 -0.4999  0.3830  0.2866
 4788TIP3    H135855   0.577   3.473  14.407 -2.5579  1.1408 -0.8852
 4788TIP3    H235856   0.716   3.502  14.355 -0.6792 -0.7716  2.7265
 4789TIP3   OH235857   1.286   5.785   4.165 -0.3670 -0.0317 -0.2232
 4789TIP3    H135858   1.261   5.831   4.085 -1.5525 -0.0735  0.1100
 4789TIP3    H235859   1.207   5.738   4.191  0.2211 -0.5874  0.5832
 4790TIP3   OH235860   0.207   1.534   5.070  0.0877 -0.0577  0.6505
 4790TIP3    H135861   0.255   1.484   5.003 -0.3509 -1.2680  1.2222
 4790TIP3    H235862   0.122   1.491   5.076 -0.8939  1.6807  0.1040
 4791TIP3   OH235863   4.373   2.958   5.705  0.0190 -0.2607  0.1509
 4791TIP3    H135864   4.420   3.039   5.685 -2.0565  1.1082  0.5265
 4791TIP3    H235865   4.291   2.965   5.656 -1.0188 -1.2384  1.6653
 4792TIP3   OH235866   6.732   5.068   0.419 -0.5003 -0.4327 -0.0474
 4792TIP3    H135867   6.720   4.976   0.394 -0.0668 -0.5514  0.1671
 4792TIP3    H235868   6.679   5.078   0.498  1.0835 -1.0764  1.1609
 4793TIP3   OH235869   4.808   4.478  12.879 -0.2082  0.1013 -0.1882
 4793TIP3    H135870   4.804   4.496  12.785 -0.9577 -1.4253 -0.4831
 4793TIP3    H235871   4.730   4.426  12.897  1.5363 -2.4412  0.6168
 4794TIP3   OH235872   2.745   6.032   6.092 -0.7342 -0.1004  0.1311
 4794TIP3    H135873   2.685   6.069   6.157 -0.0354  1.4412 -0.0505
 4794TIP3    H235874   2.815   5.994   6.145 -0.3369  0.8535  0.3271
 4795TIP3   OH235875   3.714   4.956   0.449  0.5865  0.1041  0.3639
 4795TIP3    H135876   3.699   4.960   0.544  3.3759 -1.4073  0.9933
 4795TIP3    H235877   3.647   4.897   0.417  0.7076 -0.8411  1.7458
 4796TIP3   OH235878   4.354   0.729  16.378 -0.6198 -0.3472  0.2358
 4796TIP3    H135879   4.375   0.660  16.314  0.5134 -0.3287  0.5701
 4796TIP3    H235880   4.322   0.802  16.325  0.1617 -0.3900 -0.3208
 4797TIP3   OH235881   6.752   4.748   5.457 -0.2431  0.0497  0.3636
 4797TIP3    H135882   6.791   4.790   5.381 -0.1000 -1.4121 -0.3955
 4797TIP3    H235883   6.673   4.799   5.475  0.8487  1.7506  0.6218
 4798TIP3   OH235884   5.534   5.121   6.088  0.5063 -0.4124  0.2124
 4798TIP3    H135885   5.478   5.197   6.106  0.9040  0.1187 -0.6913
 4798TIP3    H235886   5.587   5.110   6.167  1.2227  0.9557 -0.0423
 4799TIP3   OH235887   4.363   0.306   5.349  0.2736 -0.0788  0.0075
 4799TIP3    H135888   4.357   0.222   5.394 -1.4113 -0.4715 -0.8772
 4799TIP3    H235889   4.387   0.284   5.259  2.1726  0.5984  0.2984
 4800TIP3   OH235890   2.201   6.441   4.027 -0.7287 -0.6700  0.5491
 4800TIP3    H135891   2.156   6.508   4.079 -1.7041 -0.8886  0.0111
 4800TIP3    H235892   2.273   6.488   3.985 -1.8149  0.2447 -0.3813
 4801TIP3   OH235893   5.464   3.706   4.299  0.0103 -0.0544  0.6924
 4801TIP3    H135894   5.443   3.798   4.282 -0.4394  0.3448  2.9968
 4801TIP3    H235895   5.404   3.657   4.244 -1.2505  1.0553  1.0233
 4802TIP3   OH235896   0.573   0.750  15.218 -0.3165  0.5565 -0.0297
 4802TIP3    H135897   0.586   0.842  15.243  1.0575 -0.1998  2.3806
 4802TIP3    H235898   0.485   0.747  15.182 -0.9444  2.5730  1.1728
 4803TIP3   OH235899   3.855   4.942   5.425  0.2536  0.3768  0.1829
 4803TIP3    H135900   3.936   4.891   5.436  0.6122  1.0136  0.5089
 4803TIP3    H235901   3.787   4.875   5.414  0.6471 -0.1877  1.0471
 4804TIP3   OH235902   1.892   6.606   1.333 -0.1117  0.2618  0.4281
 4804TIP3    H135903   1.930   6.643   1.254 -0.7468 -0.8728 -0.4411
 4804TIP3    H235904   1.948   6.638   1.404  1.8770 -0.5713 -0.6820
 4805TIP3   OH235905   5.797   0.123   1.637 -0.2050  0.0619 -0.3099
 4805TIP3    H135906   5.800   0.055   1.569 -0.4503 -1.2261  0.9187
 4805TIP3    H235907   5.707   0.154   1.636 -0.9710 -1.8993  1.2018
 4806TIP3   OH235908   0.540   4.310  16.617  0.1128 -0.5331 -0.2587
 4806TIP3    H135909   0.509   4.361  16.542  0.5184 -0.2994 -0.2712
 4806TIP3    H235910   0.626   4.278  16.591 -0.1506 -1.2514 -0.2592
 4807TIP3   OH235911   2.129   5.319  14.921 -0.0668  0.3322  0.6960
 4807TIP3    H135912   2.125   5.319  15.017  1.2869  2.6618  0.8380
 4807TIP3    H235913   2.182   5.396  14.900 -0.9281  0.2895 -1.9612
 4808TIP3   OH235914   4.390   1.686   3.695  0.0167 -0.2841  0.0825
 4808TIP3    H135915   4.355   1.773   3.715  0.5929 -0.2984  1.1868
 4808TIP3    H235916   4.482   1.700   3.676 -0.1023 -0.5354 -0.7379
 4809TIP3   OH235917   3.365   1.329  10.928 -0.4329 -0.0788 -0.4548
 4809TIP3    H135918   3.435   1.394  10.928  1.5322 -2.0395  1.1317
 4809TIP3    H235919   3.382   1.276  10.850 -1.0610  0.2948 -0.8573
 4810TIP3   OH235920   6.112   0.062   1.614  0.0459  0.2726  0.5986
 4810TIP3    H135921   6.112  -0.030   1.640  1.9734  0.2223  0.5819
 4810TIP3    H235922   6.125   0.110   1.696 -3.0653  0.7281  0.9303
 4811TIP3   OH235923   1.839   5.436   2.028  0.5406  0.3594  0.0395
 4811TIP3    H135924   1.925   5.478   2.019  0.5646  0.3083  0.0324
 4811TIP3    H235925   1.824   5.433   2.123 -0.6621  2.8598  0.0150
 4812TIP3   OH235926   5.162   3.342  14.911  0.0943 -0.4372  0.2874
 4812TIP3    H135927   5.068   3.326  14.909 -0.1180  0.8003 -0.8447
 4812TIP3    H235928   5.182   3.382  14.826  1.8719 -1.8286 -0.0217
 4813TIP3   OH235929   6.679   4.315   2.551  0.6448 -0.5001  0.2383
 4813TIP3    H135930   6.689   4.246   2.616 -0.2098 -1.5127 -0.6649
 4813TIP3    H235931   6.584   4.325   2.541  0.7581 -0.4382 -0.9098
 4814TIP3   OH235932   2.940   5.269   0.746 -0.0897 -0.1355  0.1077
 4814TIP3    H135933   2.957   5.187   0.793 -0.0730  0.0021  0.3437
 4814TIP3    H235934   2.879   5.244   0.676  0.0379 -0.3794  0.0792
 4815TIP3   OH235935   3.537   1.807  15.523 -0.9255 -0.5760 -0.3285
 4815TIP3    H135936   3.523   1.712  15.524  3.0912 -1.3340  0.3800
 4815TIP3    H235937   3.614   1.819  15.468  1.1363  1.7300  2.7604
 4816TIP3   OH235938   4.192   5.976  16.071 -0.4077  0.4686  0.0079
 4816TIP3    H135939   4.206   6.006  16.160  0.6885  0.8955 -0.3028
 4816TIP3    H235940   4.261   5.912  16.056 -0.4954  0.5101 -0.5898
 4817TIP3   OH235941   2.454   6.821   3.971 -0.5956  0.1087  0.4116
 4817TIP3    H135942   2.410   6.865   4.044  0.1013  0.2192  0.7748
 4817TIP3    H235943   2.413   6.858   3.893 -2.3477 -1.0219  0.7206
 4818TIP3   OH235944   4.499   6.445   4.061  0.0638  0.2706 -0.0491
 4818TIP3    H135945   4.411   6.478   4.081 -0.3838 -1.1585  0.4813
 4818TIP3    H235946   4.513   6.375   4.125  1.4816  0.3050 -0.3068
 4819TIP3   OH235947   2.221   6.712   0.276  0.2421  0.3208 -0.4186
 4819TIP3    H135948   2.200   6.672   0.192 -0.4028 -1.8938  0.7134
 4819TIP3    H235949   2.153   6.777   0.290  0.3415  0.6907 -1.5620
 4820TIP3   OH235950   5.778   2.448   4.595  0.3109 -0.2113  0.0051
 4820TIP3    H135951   5.738   2.379   4.647 -3.1522 -1.8637 -4.2860
 4820TIP3    H235952   5.853   2.405   4.553  0.9735  0.0991  0.8359
 4821TIP3   OH235953   1.758   1.036   5.416 -0.1095 -0.1835 -0.4474
 4821TIP3    H135954   1.756   1.039   5.511 -0.2145 -0.1833 -0.4491
 4821TIP3    H235955   1.742   0.944   5.394 -1.8398  0.0976 -0.5014
 4822TIP3   OH235956   2.536   4.212  17.005  0.3392  0.0063 -0.1243
 4822TIP3    H135957   2.463   4.274  17.004 -1.1606 -1.6615 -0.1140
 4822TIP3    H235958   2.606   4.255  16.955 -0.3515  1.9792  0.5150
 4823TIP3   OH235959   5.636   4.005  13.279  0.2505 -0.4129  0.3799
 4823TIP3    H135960   5.573   4.026  13.210  1.3194  3.3021  0.3477
 4823TIP3    H235961   5.718   3.988  13.233  0.3154 -0.8347  0.6403
 4824TIP3   OH235962   1.388   1.244  12.453 -0.2061 -0.0098 -1.1808
 4824TIP3    H135963   1.333   1.321  12.443 -0.0500 -0.0040 -2.0650
 4824TIP3    H235964   1.340   1.188  12.514 -0.7531  0.3852 -1.2417
 4825TIP3   OH235965   3.111   3.702   2.398 -0.0239  0.1318  0.1226
 4825TIP3    H135966   3.060   3.656   2.465 -0.1860  1.1705  0.7300
 4825TIP3    H235967   3.066   3.786   2.387  1.2525  0.8674  0.3121
 4826TIP3   OH235968   2.961   4.823   4.765  0.3701  0.4343  0.4609
 4826TIP3    H135969   2.920   4.904   4.797 -0.0734  0.6343 -0.5735
 4826TIP3    H235970   3.054   4.833   4.787  0.2749  1.0984  0.5861
 4827TIP3   OH235971   6.486   4.388  15.231 -0.1413  0.4095 -0.1169
 4827TIP3    H135972   6.506   4.346  15.315  0.5842 -0.3320 -0.6560
 4827TIP3    H235973   6.537   4.340  15.167 -0.3799  1.2330 -0.9421
 4828TIP3   OH235974   4.298   1.318   5.497 -0.1073 -0.2099 -0.5735
 4828TIP3    H135975   4.357   1.242   5.499  0.6556  0.3760 -0.7039
 4828TIP3    H235976   4.240   1.300   5.423  0.1149 -0.6248 -0.6528
 4829TIP3   OH235977   1.124   1.810   2.917  0.2216  0.2274 -0.3911
 4829TIP3    H135978   1.088   1.728   2.951  0.7847  0.1995  0.1723
 4829TIP3    H235979   1.050   1.870   2.913 -0.3109 -0.4838 -1.3718
 4830TIP3   OH235980   4.132   0.424  17.120  0.1595  0.8335 -0.1166
 4830TIP3    H135981   4.140   0.427  17.215 -0.0140  1.0461 -0.1048
 4830TIP3    H235982   4.046   0.385  17.104  0.8772 -0.7955 -0.2199
 4831TIP3   OH235983   6.685   2.453  14.177 -0.0984  0.0465 -0.0458
 4831TIP3    H135984   6.754   2.508  14.142  0.5215 -0.4562  0.3628
 4831TIP3    H235985   6.648   2.503  14.250 -0.7001  0.6478 -0.7413
 4832TIP3   OH235986   2.959   5.401  11.313 -0.1906  0.7022 -0.1006
 4832TIP3    H135987   2.993   5.481  11.274 -1.0442  1.1406  0.0367
 4832TIP3    H235988   2.960   5.337  11.241  0.8121  0.7181 -0.1227
 4833TIP3   OH235989   0.673   5.988   0.344  0.0815 -0.5276  0.0375
 4833TIP3    H135990   0.613   6.042   0.394  1.3069 -0.7971  1.9071
 4833TIP3    H235991   0.657   6.012   0.253 -1.3273  0.9383  0.6237
 4834TIP3   OH235992   4.559   4.072   0.323 -0.1270  0.2731  0.2484
 4834TIP3    H135993   4.616   4.148   0.337  0.0136  0.4762 -1.2081
 4834TIP3    H235994   4.530   4.081   0.232 -1.7779 -0.3130  0.6888
 4835TIP3   OH235995   6.215   3.589  16.565 -0.5628 -0.2743  0.1910
 4835TIP3    H135996   6.289   3.643  16.539 -1.4627  0.2659 -1.3865
 4835TIP3    H235997   6.211   3.520  16.500 -1.8207  0.0838 -0.1470
 4836TIP3   OH235998   5.392   4.083  16.680  0.3903 -0.0408  0.2021
 4836TIP3    H135999   5.344   4.067  16.761 -0.6447  0.2573 -0.3306
 4836TIP3    H236000   5.376   4.176  16.661  0.6348 -0.1022 -0.3285
 4837TIP3   OH236001   4.252   6.523   2.542  0.0906  0.1409 -0.3348
 4837TIP3    H136002   4.258   6.611   2.505  1.1566 -0.5527 -1.9265
 4837TIP3    H236003   4.169   6.489   2.509 -0.7786  0.8536  1.0527
 4838TIP3   OH236004   1.644   6.154  10.912 -0.5616 -0.3883  0.2696
 4838TIP3    H136005   1.713   6.221  10.908 -0.9893  0.0929  0.7665
 4838TIP3    H236006   1.581   6.188  10.976 -1.3971 -0.6874 -0.3640
 4839TIP3   OH236007   4.007   1.794  16.608 -0.7344  0.3244  0.2816
 4839TIP3    H136008   3.988   1.701  16.617 -0.3429  0.0411 -1.4647
 4839TIP3    H236009   4.086   1.807  16.660  0.6217 -0.8891 -1.3452
 4840TIP3   OH236010   0.766   2.649   3.679 -0.6413 -0.1902  0.2881
 4840TIP3    H136011   0.694   2.711   3.666  0.7308  1.1493 -1.3019
 4840TIP3    H236012   0.768   2.596   3.600 -0.5516 -0.9826  0.7997
 4841TIP3   OH236013   2.888   2.644  11.309 -0.0237  0.5389  0.4820
 4841TIP3    H136014   2.872   2.555  11.279 -1.9446  0.9033  0.3199
 4841TIP3    H236015   2.962   2.674  11.255 -0.4300 -0.3832 -0.6368
 4842TIP3   OH236016   5.765   3.283  16.774 -0.3460 -0.2392 -0.3493
 4842TIP3    H136017   5.747   3.278  16.868  0.2480  1.6773 -0.0875
 4842TIP3    H236018   5.850   3.327  16.768 -0.5397 -0.0027 -1.8008
 4843TIP3   OH236019   1.399   6.365   0.252 -0.8266 -0.0248 -0.0911
 4843TIP3    H136020   1.341   6.295   0.223 -0.6219  0.8219 -2.8252
 4843TIP3    H236021   1.487   6.328   0.246 -0.6299  0.6623 -2.5401
 4844TIP3   OH236022   4.673   2.330   1.189 -0.0988  0.4831 -0.1356
 4844TIP3    H136023   4.610   2.311   1.119  0.4540 -1.9481 -0.0570
 4844TIP3    H236024   4.636   2.406   1.234 -2.7207 -0.5272 -0.4154
 4845TIP3   OH236025   2.618   6.621   2.859 -0.4253 -0.0668  0.4544
 4845TIP3    H136026   2.689   6.682   2.842 -0.9776  0.1070 -1.4345
 4845TIP3    H236027   2.640   6.580   2.943  2.5564 -0.9631 -0.6535
 4846TIP3   OH236028   5.132   0.303   3.752  0.0491 -0.0792  0.1223
 4846TIP3    H136029   5.193   0.258   3.811 -1.1209 -0.6522  0.9355
 4846TIP3    H236030   5.126   0.246   3.676  1.6226  0.6971 -0.6228
 4847TIP3   OH236031   0.540   6.125  12.473 -0.4292 -0.1279 -0.2518
 4847TIP3    H136032   0.609   6.170  12.521 -0.6591 -1.7482  1.7725
 4847TIP3    H236033   0.587   6.058  12.423 -0.3357  0.4658 -0.9742
 4848TIP3   OH236034   6.185   3.740   1.979  0.3371  0.5266 -0.2228
 4848TIP3    H136035   6.129   3.673   2.020  1.9197 -0.6469  0.1037
 4848TIP3    H236036   6.139   3.822   1.995 -0.5318 -0.2251  1.3856
 4849TIP3   OH236037   4.551   3.014   1.511 -0.1465 -0.2770  0.3516
 4849TIP3    H136038   4.496   3.092   1.494 -2.4047 -1.5548  1.3620
 4849TIP3    H236039   4.558   2.972   1.426  0.3954  0.5815 -0.0441
 4850TIP3   OH236040   3.050   4.149   3.319 -0.2167  0.1146 -0.2806
 4850TIP3    H136041   2.958   4.129   3.303 -0.4052 -1.1927  2.0981
 4850TIP3    H236042   3.057   4.157   3.414  2.1746 -0.0022 -0.3917
 4851TIP3   OH236043   0.166   2.592   0.649  0.0147  0.0995 -0.3843
 4851TIP3    H136044   0.150   2.674   0.603  0.1158  0.0410 -0.5273
 4851TIP3    H236045   0.260   2.576   0.637  0.2179  0.5355  0.5991
 4852TIP3   OH236046   4.683   4.070  15.208 -0.3195  0.0965  0.0108
 4852TIP3    H136047   4.635   4.081  15.290 -1.0831 -1.3623 -0.1999
 4852TIP3    H236048   4.764   4.120  15.220  0.6813 -1.9076  2.5511
 4853TIP3   OH236049   5.746   2.654   6.567 -0.1855 -0.0445  0.5028
 4853TIP3    H136050   5.836   2.627   6.585  0.0085 -0.4841 -0.9400
 4853TIP3    H236051   5.712   2.585   6.509 -0.1331  2.0407 -2.1952
 4854TIP3   OH236052   0.067   2.972  10.968  0.2893 -0.7830 -0.0306
 4854TIP3    H136053   0.011   3.007  10.900  2.7868  0.0378 -1.8202
 4854TIP3    H236054   0.023   2.995  11.050 -0.8472  1.7906 -1.2604
 4855TIP3   OH236055   2.716   6.810   3.170  0.3033  1.0859 -0.1729
 4855TIP3    H136056   2.664   6.822   3.250 -0.0411 -0.3625 -0.1602
 4855TIP3    H236057   2.807   6.809   3.200  0.1216 -1.9117  0.6218
 4856TIP3   OH236058   6.671   0.406  13.136  0.2436 -0.8056  0.1969
 4856TIP3    H136059   6.626   0.489  13.153 -0.2104 -0.0625 -3.6090
 4856TIP3    H236060   6.605   0.339  13.153 -0.6893 -0.0663 -0.3487
 4857TIP3   OH236061   3.792   6.680  14.523  0.0261 -0.3581  0.3051
 4857TIP3    H136062   3.751   6.694  14.609  1.5643 -1.2270  1.2283
 4857TIP3    H236063   3.812   6.587  14.521  1.0206 -0.1385 -0.5201
 4858TIP3   OH236064   1.752   5.923  15.304  0.2513 -0.1925 -0.1904
 4858TIP3    H136065   1.793   5.898  15.387 -0.4044 -0.1837  0.1393
 4858TIP3    H236066   1.805   5.996  15.272 -2.8292  3.9472  3.1632
 4859TIP3   OH236067   1.432   3.396   3.545 -0.3142 -0.1278 -0.1705
 4859TIP3    H136068   1.412   3.467   3.483 -1.0721  1.1491  1.4455
 4859TIP3    H236069   1.486   3.335   3.495  2.3028  2.6644 -1.0300
 4860TIP3   OH236070   1.571   2.555   5.228 -0.2297 -0.6666 -0.0996
 4860TIP3    H136071   1.580   2.562   5.323 -0.4227 -1.3336 -0.0297
 4860TIP3    H236072   1.657   2.526   5.198  0.2506  0.8155 -0.2841
 4861TIP3   OH236073   5.472   5.516  11.593  0.3365  0.6303  0.1252
 4861TIP3    H136074   5.477   5.423  11.571 -0.9425  0.4990  0.2755
 4861TIP3    H236075   5.412   5.520  11.668  1.5982  1.4350  1.1407
 4862TIP3   OH236076   2.987   2.380  17.045 -0.3769 -0.0227  0.0990
 4862TIP3    H136077   3.016   2.392  16.954 -2.9978  1.1958 -0.6918
 4862TIP3    H236078   3.050   2.430  17.097 -1.0045  2.6285 -1.4960
 4863TIP3   OH236079   5.672   2.140  14.725  0.8780 -0.1525  0.4161
 4863TIP3    H136080   5.586   2.147  14.685  0.8885 -0.3240  0.3626
 4863TIP3    H236081   5.655   2.101  14.811  1.0552 -1.7063 -0.2121
 4864TIP3   OH236082   5.288   4.716   1.122 -0.0607  0.0854  0.5458
 4864TIP3    H136083   5.323   4.786   1.067 -1.6601  1.3076  0.9843
 4864TIP3    H236084   5.235   4.762   1.188 -0.0685 -1.4769  1.6736
 4865TIP3   OH236085   2.445   0.248  14.928  0.3106 -0.6899 -0.1341
 4865TIP3    H136086   2.492   0.328  14.907 -1.4510  0.3680 -0.2829
 4865TIP3    H236087   2.440   0.201  14.845  0.5879 -0.5287 -0.2419
 4866TIP3   OH236088   2.105   1.707   1.490 -0.6975 -0.0331  0.7218
 4866TIP3    H136089   2.134   1.798   1.482  1.0272 -0.5730  0.3786
 4866TIP3    H236090   2.091   1.678   1.399 -1.0006 -0.1831  0.8155
 4867TIP3   OH236091   6.046   1.694  11.857 -0.4066  0.1742 -0.0504
 4867TIP3    H136092   6.003   1.682  11.772 -1.7167  1.1577  0.4415
 4867TIP3    H236093   6.073   1.605  11.882 -0.7886 -0.2562 -1.0810
 4868TIP3   OH236094   1.195   5.882   1.841  0.2143  0.2208  0.1096
 4868TIP3    H136095   1.251   5.814   1.878 -0.5512 -0.6124 -0.2038
 4868TIP3    H236096   1.108   5.841   1.837  0.0262  0.7165 -1.4307
 4869TIP3   OH236097   5.331   5.622  15.083  0.2652 -0.3011 -0.0133
 4869TIP3    H136098   5.243   5.642  15.115  0.3322 -1.1961  0.7694
 4869TIP3    H236099   5.321   5.619  14.987 -0.3021  0.6978  0.0038
 4870TIP3   OH236100   2.943   1.596  16.320 -0.1854 -0.1494 -0.2297
 4870TIP3    H136101   2.935   1.640  16.235 -0.5984  0.2156 -0.0044
 4870TIP3    H236102   3.037   1.588  16.334 -0.0961 -1.1098 -1.1770
 4871TIP3   OH236103   6.397   3.426  16.296  0.2812  0.1837 -0.3849
 4871TIP3    H136104   6.313   3.382  16.291  0.5349 -0.4827  0.7515
 4871TIP3    H236105   6.458   3.357  16.324  1.2491  0.5988 -1.3888
 4872TIP3   OH236106   1.073   1.895   2.265  0.4610 -0.0106  0.7527
 4872TIP3    H136107   1.143   1.939   2.217 -0.2283  0.3380  0.0513
 4872TIP3    H236108   0.993   1.942   2.241 -0.1590 -1.0229  0.7515
 4873TIP3   OH236109   5.888   1.528   2.442 -0.0634 -0.1441  0.0443
 4873TIP3    H136110   5.946   1.499   2.512  0.9173  3.0775  0.7240
 4873TIP3    H236111   5.809   1.559   2.486  0.1236  0.9152 -0.3353
 4874TIP3   OH236112   1.434   5.551   2.568  0.1247 -0.0459  0.3562
 4874TIP3    H136113   1.473   5.465   2.582  0.0817  0.0265  0.9126
 4874TIP3    H236114   1.428   5.590   2.655 -1.7338 -0.2898  0.3868
 4875TIP3   OH236115   6.246   2.510   3.522 -0.1125  0.3036  0.0821
 4875TIP3    H136116   6.211   2.438   3.471  0.8115  0.8922 -1.4439
 4875TIP3    H236117   6.209   2.589   3.482  1.1668  0.8112 -0.1646
 4876TIP3   OH236118   5.833   4.264  11.525  0.4498  0.1250 -0.1103
 4876TIP3    H136119   5.927   4.277  11.510  0.5829  0.1849  0.6867
 4876TIP3    H236120   5.799   4.353  11.540  0.4784  0.0155  0.6728
 4877TIP3   OH236121   4.787   3.645   5.399 -0.9932 -0.1623 -0.1392
 4877TIP3    H136122   4.858   3.641   5.335 -0.6333  0.7249  0.1778
 4877TIP3    H236123   4.729   3.572   5.376 -1.0969  0.3792 -1.7271
 4878TIP3   OH236124   0.363   3.896  11.258  0.1064 -0.7841 -0.1552
 4878TIP3    H136125   0.337   3.976  11.303 -1.3400 -0.8824 -0.7428
 4878TIP3    H236126   0.452   3.913  11.227 -0.1739  0.5905 -0.2580
 4879TIP3   OH236127   1.807   3.781   5.512  0.0431  0.4362  0.6265
 4879TIP3    H136128   1.724   3.820   5.540  1.5247  1.6767  3.7944
 4879TIP3    H236129   1.833   3.725   5.585  0.7343 -2.1667 -1.4811
 4880TIP3   OH236130   3.648   3.809   4.156 -0.4062  0.2287 -0.3967
 4880TIP3    H136131   3.612   3.893   4.183 -1.7702 -0.6623  0.6969
 4880TIP3    H236132   3.653   3.814   4.061 -2.1261  0.9174 -0.4807
 4881TIP3   OH236133   4.645   3.394  14.963 -0.1132  0.1047  0.2770
 4881TIP3    H136134   4.651   3.477  14.916  1.1355  0.1412  0.4810
 4881TIP3    H236135   4.718   3.342  14.931  0.2392 -0.2068  1.5232
 4882TIP3   OH236136   4.694   3.283   5.748  1.5611 -0.7003 -0.0884
 4882TIP3    H136137   4.747   3.205   5.767 -0.3600 -1.9904  0.2842
 4882TIP3    H236138   4.758   3.350   5.725  3.4054 -1.9081  1.2060
 4883TIP3   OH236139   3.394   4.130  12.828  0.7203 -0.6257 -0.2836
 4883TIP3    H136140   3.445   4.210  12.813  1.9063 -1.4441 -0.7720
 4883TIP3    H236141   3.335   4.125  12.752  0.4564 -0.0869 -0.1186
 4884TIP3   OH236142   1.078   2.608   2.438  0.3111  0.1035 -0.2810
 4884TIP3    H136143   1.004   2.664   2.414 -1.0751 -2.5329 -2.7228
 4884TIP3    H236144   1.054   2.521   2.406  3.6083 -1.3190  0.6855
 4885TIP3   OH236145   2.630   0.750   1.753  0.5154 -0.1572  0.0025
 4885TIP3    H136146   2.659   0.729   1.665  1.1694  0.9046 -0.0512
 4885TIP3    H236147   2.709   0.742   1.807 -0.0970 -1.8548  0.6973
 4886TIP3   OH236148   4.475   4.071   4.760  0.6081  0.3519 -0.3004
 4886TIP3    H136149   4.513   4.002   4.815 -1.2834 -1.3695 -1.0217
 4886TIP3    H236150   4.429   4.128   4.821  1.6213  0.6377  0.2322
 4887TIP3   OH236151   4.861   1.122  14.389  0.2949  0.2472  0.0760
 4887TIP3    H136152   4.796   1.073  14.439  0.1991  2.1513  1.9540
 4887TIP3    H236153   4.842   1.101  14.297 -2.2155 -0.1376  0.6329
 4888TIP3   OH236154   3.335   5.209  12.976 -0.0326 -0.3209  0.6455
 4888TIP3    H136155   3.264   5.246  13.029 -0.1022 -0.7503  0.8558
 4888TIP3    H236156   3.309   5.119  12.960  0.7716 -0.6781  1.2780
 4889TIP3   OH236157   2.356   5.168  13.078  0.4869  0.0621 -0.4167
 4889TIP3    H136158   2.418   5.105  13.041  1.3693  0.5996  0.1056
 4889TIP3    H236159   2.282   5.167  13.018  0.1079 -2.0692 -0.0021
 4890TIP3   OH236160   2.527   4.664  13.287  0.2111 -0.4291 -0.0252
 4890TIP3    H136161   2.453   4.665  13.227  1.3868  1.2729 -1.5568
 4890TIP3    H236162   2.495   4.617  13.364 -2.6583  0.8422 -0.3153
 4891TIP3   OH236163   0.065   0.084   1.579 -0.0962  0.5586  0.1094
 4891TIP3    H136164   0.125   0.147   1.620  2.5894 -1.3883 -0.5841
 4891TIP3    H236165   0.027   0.035   1.652  2.6175 -1.0984  0.5246
 4892TIP3   OH236166   2.353   2.421  11.269 -0.0953 -0.1240 -0.7660
 4892TIP3    H136167   2.280   2.443  11.326  1.3673  1.6194  0.5259
 4892TIP3    H236168   2.379   2.504  11.229  1.0783 -0.7313 -1.3332
 4893TIP3   OH236169   4.922   1.870   0.624  0.5575 -0.1797  0.0130
 4893TIP3    H136170   4.937   1.888   0.717 -1.1108  2.1447 -0.0699
 4893TIP3    H236171   4.842   1.817   0.623 -0.7676  1.7556 -0.1321
 4894TIP3   OH236172   1.474   6.224   5.841 -0.0480  0.3494 -0.2812
 4894TIP3    H136173   1.396   6.228   5.897  0.4103  0.1561  0.3869
 4894TIP3    H236174   1.532   6.163   5.886  0.8663  1.1933 -0.2922
 4895TIP3   OH236175   0.636   6.423  14.764  0.2286 -0.1788 -0.2158
 4895TIP3    H136176   0.631   6.477  14.685  0.5738  0.8767  0.4602
 4895TIP3    H236177   0.648   6.486  14.835  1.8558 -1.2239  0.4782
 4896TIP3   OH236178   5.390   1.430   2.350  0.6965  0.1742  0.2025
 4896TIP3    H136179   5.322   1.460   2.411  1.9059 -0.3803  1.9163
 4896TIP3    H236180   5.353   1.446   2.263 -1.9722 -0.8641  1.0291
 4897TIP3   OH236181   6.818   6.153  16.086  0.4349 -0.3091  0.2223
 4897TIP3    H136182   6.760   6.228  16.074  0.0192 -0.8619 -1.4899
 4897TIP3    H236183   6.762   6.087  16.128  0.3616 -0.2002  0.2964
 4898TIP3   OH236184   1.232   2.988  16.191  0.3937 -0.0974  0.3414
 4898TIP3    H136185   1.182   3.069  16.179  0.1775  0.1654  2.4889
 4898TIP3    H236186   1.197   2.928  16.126  2.4185  2.2790 -3.2434
 4899TIP3   OH236187   2.076   0.593  13.507  0.1666 -0.4888  0.0369
 4899TIP3    H136188   2.037   0.671  13.468  0.9818  0.1406  0.4570
 4899TIP3    H236189   2.090   0.534  13.432 -0.2022 -0.1323 -0.3206
 4900TIP3   OH236190   3.336   3.083  14.248  0.3350 -0.0761  0.7044
 4900TIP3    H136191   3.244   3.061  14.263  0.0104  1.4177  1.1189
 4900TIP3    H236192   3.385   3.022  14.304 -0.5060  0.2769  1.8660
 4901TIP3   OH236193   2.082   0.941   0.467 -0.4917  0.1337 -0.7116
 4901TIP3    H136194   2.136   0.951   0.389 -0.5238 -0.0185 -0.7547
 4901TIP3    H236195   2.115   1.007   0.527 -0.1222 -0.0876 -0.6628
 4902TIP3   OH236196   5.122   0.608   2.279  0.1383 -0.4672 -0.1367
 4902TIP3    H136197   5.036   0.647   2.291  0.9407  1.2334  0.5649
 4902TIP3    H236198   5.183   0.676   2.310  1.7583 -1.2860 -1.3680
 4903TIP3   OH236199   6.493   3.148  11.197  0.2849  0.1445 -0.2798
 4903TIP3    H136200   6.579   3.118  11.226 -0.5304 -1.8484  0.2715
 4903TIP3    H236201   6.480   3.106  11.111 -0.2908  0.0848 -0.1701
 4904TIP3   OH236202   1.224   1.325  10.735 -0.2028 -0.5411  1.1527
 4904TIP3    H136203   1.181   1.260  10.680  0.9328  0.4486 -1.0621
 4904TIP3    H236204   1.248   1.278  10.814 -1.3418 -2.2238  0.5544
 4905TIP3   OH236205   6.609   0.986   6.102 -0.3821  0.8570  0.3087
 4905TIP3    H136206   6.581   1.007   6.191  0.6221 -0.0767  0.8688
 4905TIP3    H236207   6.530   0.951   6.060 -0.7371  0.7993  0.9977
 4906TIP3   OH236208   3.689   0.932   1.045 -0.0884  0.2379  0.0464
 4906TIP3    H136209   3.737   0.856   1.076 -0.1181  0.2738  0.1819
 4906TIP3    H236210   3.745   0.970   0.977 -0.2191 -0.0838 -0.2439
 4907TIP3   OH236211   3.088   4.551  14.211 -0.3813 -0.4394  0.5224
 4907TIP3    H136212   3.125   4.471  14.248  0.4017  0.1622  1.0467
 4907TIP3    H236213   3.025   4.581  14.276  1.6907  1.1508  1.8966
 4908TIP3   OH236214   5.039   2.300   3.891  0.1645 -0.6883 -0.0724
 4908TIP3    H136215   4.948   2.303   3.862  0.5890  1.0858 -1.3735
 4908TIP3    H236216   5.057   2.207   3.903 -1.8214 -1.0755  0.2944
 4909TIP3   OH236217   2.777   6.397   3.912  0.2273 -0.3766  0.5115
 4909TIP3    H136218   2.751   6.489   3.909 -2.8908 -0.9825  3.3848
 4909TIP3    H236219   2.832   6.391   3.990 -0.8195 -1.1787  1.1975
 4910TIP3   OH236220   0.458   4.727  15.869  0.1509  0.0803  0.6310
 4910TIP3    H136221   0.466   4.820  15.890 -0.5843  0.3696 -0.2672
 4910TIP3    H236222   0.481   4.681  15.950 -0.0497  1.0564  1.2551
 4911TIP3   OH236223   4.998   3.939  15.630  0.1792  0.1238  0.1598
 4911TIP3    H136224   5.067   3.991  15.673 -0.8996  0.9610  0.9503
 4911TIP3    H236225   4.985   3.865  15.689  0.3748 -0.0184  0.0259
 4912TIP3   OH236226   5.903   3.700  15.921  0.6326  0.0765 -0.6580
 4912TIP3    H136227   5.861   3.645  15.987 -0.3560  2.2634  0.6707
 4912TIP3    H236228   5.986   3.727  15.961  0.4092  0.7400 -0.6215
 4913TIP3   OH236229   4.489   2.142  15.323 -0.2254  0.0593 -0.3490
 4913TIP3    H136230   4.395   2.160  15.315 -0.1997  2.4639  2.6360
 4913TIP3    H236231   4.503   2.134  15.418  2.6982  0.6250 -0.6499
 4914TIP3   OH236232   3.272   3.613  13.951 -0.4871  0.1904 -0.3299
 4914TIP3    H136233   3.248   3.521  13.941 -1.3893  0.4160 -0.3044
 4914TIP3    H236234   3.258   3.651  13.864 -0.7633  0.4451 -0.1770
 4915TIP3   OH236235   0.958   3.596  12.098 -0.5102 -0.3088 -0.1175
 4915TIP3    H136236   1.033   3.538  12.107  1.5180  2.2226  0.6828
 4915TIP3    H236237   0.928   3.611  12.188 -0.2187  0.7702 -0.1830
 4916TIP3   OH236238   3.995   4.671  13.673  0.1369 -0.0485 -0.0206
 4916TIP3    H136239   3.967   4.646  13.761 -1.3157 -0.2618 -0.5192
 4916TIP3    H236240   3.982   4.766  13.669  0.3814 -0.0111  0.0510
 4917TIP3   OH236241   5.543   5.883   1.475  0.3794  0.0767  0.1298
 4917TIP3    H136242   5.522   5.974   1.452  1.4882  0.1466 -0.6632
 4917TIP3    H236243   5.488   5.865   1.551 -1.0245  0.8927 -0.6479
 4918TIP3   OH236244   2.914   3.108  17.198  0.2601 -0.2029 -0.5772
 4918TIP3    H136245   2.834   3.122  17.146  0.0846  2.3454  0.2070
 4918TIP3    H236246   2.909   3.017  17.226 -1.7198 -0.4735 -1.6275
 4919TIP3   OH236247   2.389   4.028   5.785 -0.2857  0.1635 -0.0697
 4919TIP3    H136248   2.338   4.107   5.801 -0.2918  0.2535 -0.5163
 4919TIP3    H236249   2.418   4.000   5.871  0.1862  0.9720  0.0477
 4920TIP3   OH236250   0.556   0.894   3.642  0.0900 -0.8006  0.2824
 4920TIP3    H136251   0.499   0.829   3.603 -2.7531  1.5455  0.1469
 4920TIP3    H236252   0.583   0.950   3.569 -1.3514  0.8036  0.8906
 4921TIP3   OH236253   5.122   0.876  13.245  0.2103  0.2082  0.1314
 4921TIP3    H136254   5.073   0.796  13.225  0.1040  0.7867 -2.2270
 4921TIP3    H236255   5.060   0.932  13.291  0.0353 -0.7308  1.0639
 4922TIP3   OH236256   0.827   3.835   5.473  0.6704 -0.1430  0.2095
 4922TIP3    H136257   0.838   3.872   5.560  1.1456 -1.4687  0.7286
 4922TIP3    H236258   0.740   3.794   5.475 -0.3379  1.7756 -0.7157
 4923TIP3   OH236259   4.071   3.745   6.024  0.0910 -0.3947  0.1395
 4923TIP3    H136260   4.070   3.840   6.040  0.6915 -0.1126 -1.3403
 4923TIP3    H236261   4.003   3.711   6.082  1.6459  0.5700  2.6831
 4924TIP3   OH236262   2.836   4.862   5.350  0.1291  0.1106 -0.3359
 4924TIP3    H136263   2.894   4.848   5.425 -0.4368  0.4578  0.1718
 4924TIP3    H236264   2.842   4.780   5.301 -0.0707 -0.4221  0.4929
 4925TIP3   OH236265   6.378   3.015  16.774  0.1640 -0.6070 -0.6489
 4925TIP3    H136266   6.335   2.990  16.856  0.3938 -2.8323 -1.1384
 4925TIP3    H236267   6.306   3.030  16.713  0.0225 -0.5781 -0.4773
 4926TIP3   OH236268   4.090   0.682   4.670  0.1821 -0.0898  0.1138
 4926TIP3    H136269   4.048   0.619   4.610  1.0202 -0.4288 -0.1378
 4926TIP3    H236270   4.056   0.660   4.756 -1.3640  0.6719 -0.2807
 4927TIP3   OH236271   6.566   5.043   4.582  0.2267 -0.9896 -0.3875
 4927TIP3    H136272   6.641   5.075   4.633  0.2824 -0.0499 -1.0385
 4927TIP3    H236273   6.508   5.002   4.647  0.1552  0.4511  0.4904
 4928TIP3   OH236274   5.766   4.902   6.690 -0.3506 -0.2083 -0.1625
 4928TIP3    H136275   5.682   4.898   6.736 -1.1426  2.3214 -1.2494
 4928TIP3    H236276   5.744   4.886   6.598  0.2326  1.1831 -0.5564
 4929TIP3   OH236277   2.353   0.112  15.878 -0.6079 -0.0352 -0.4280
 4929TIP3    H136278   2.325   0.025  15.848 -0.3105 -0.5497  0.7386
 4929TIP3    H236279   2.446   0.116  15.857 -0.0728 -0.9358  1.5477
 4930TIP3   OH236280   5.251   2.896  10.504  0.6022 -0.8113 -0.6880
 4930TIP3    H136281   5.215   2.963  10.446  1.0826  0.9479  0.9624
 4930TIP3    H236282   5.187   2.826  10.503  0.5841 -0.8603 -3.3127
 4931TIP3   OH236283   3.769   4.960   4.005  0.7505 -0.1332  0.1533
 4931TIP3    H136284   3.743   4.908   4.081  0.4313 -1.6533 -0.9531
 4931TIP3    H236285   3.709   4.932   3.935  1.6973  0.4811 -0.9414
 4932TIP3   OH236286   2.337   0.858  16.029  0.4655  0.6181  0.5186
 4932TIP3    H136287   2.245   0.833  16.030  0.4087  0.5682 -1.6641
 4932TIP3    H236288   2.372   0.824  16.111 -1.0030 -1.1548  0.4702
 4933TIP3   OH236289   3.172   3.342   3.443 -0.6059 -0.2709 -0.1079
 4933TIP3    H136290   3.255   3.362   3.488  0.0826 -0.7609 -1.1167
 4933TIP3    H236291   3.139   3.427   3.415 -0.5168 -0.0604  0.4035
 4934TIP3   OH236292   0.314   5.594  17.211 -0.0081 -0.2711 -0.1651
 4934TIP3    H136293   0.242   5.655  17.227 -0.5099 -0.5817 -1.1296
 4934TIP3    H236294   0.318   5.587  17.116  1.4483 -0.1054 -0.1361
 4935TIP3   OH236295   2.222   4.052  15.081 -0.3229  0.3531  0.4399
 4935TIP3    H136296   2.309   4.052  15.123  0.0532  0.8077 -0.3049
 4935TIP3    H236297   2.167   4.000  15.139  1.0645 -2.1697 -0.3603
 4936TIP3   OH236298   0.504   0.847   1.129 -0.2812 -0.0668 -0.1679
 4936TIP3    H136299   0.522   0.863   1.037  0.2456 -0.3845 -0.1255
 4936TIP3    H236300   0.575   0.893   1.176  1.2547 -2.3921 -0.0449
 4937TIP3   OH236301   0.085   5.827  15.627 -0.6304  0.1421  0.8111
 4937TIP3    H136302   0.053   5.880  15.554 -0.2867 -1.8114 -0.8249
 4937TIP3    H236303   0.179   5.818  15.610 -0.5746 -0.4523  1.4213
 4938TIP3   OH236304   1.808   2.496   2.821 -0.2129 -0.3018 -0.0422
 4938TIP3    H136305   1.739   2.494   2.888  0.0285  0.0444  0.2155
 4938TIP3    H236306   1.781   2.429   2.758 -0.8539 -0.0874 -0.0054
 4939TIP3   OH236307   0.442   6.251   0.716  0.1950  0.1418  0.4200
 4939TIP3    H136308   0.422   6.217   0.629 -1.8055  0.7153  0.6160
 4939TIP3    H236309   0.364   6.233   0.768  0.7396  1.2136  1.6728
 4940TIP3   OH236310   5.678   5.866  15.111  0.2341  0.1932 -0.3237
 4940TIP3    H136311   5.602   5.903  15.067  0.4829  0.2241 -0.7393
 4940TIP3    H236312   5.647   5.845  15.199  0.0583  1.2502 -0.1242
 4941TIP3   OH236313   6.424   6.328  13.878 -0.2386  0.6977  0.1888
 4941TIP3    H136314   6.388   6.282  13.802 -2.4522  0.0800  1.5148
 4941TIP3    H236315   6.455   6.258  13.935  0.6187  1.1248  0.2670
 4942TIP3   OH236316   6.409   0.496   0.454  0.4569  0.3744 -0.1168
 4942TIP3    H136317   6.341   0.448   0.501  0.2197  0.2548 -0.5848
 4942TIP3    H236318   6.487   0.487   0.509  0.0275  0.7565  0.5665
 4943TIP3   OH236319   3.016   0.736  10.591  0.6027  0.1912 -0.3674
 4943TIP3    H136320   3.086   0.679  10.559  0.5614  0.3877 -0.8161
 4943TIP3    H236321   2.936   0.691  10.565  0.5688  0.8704 -1.5010
 4944TIP3   OH236322   1.809   1.711  16.135 -0.5010 -0.1281  0.3937
 4944TIP3    H136323   1.846   1.624  16.151 -0.6720 -0.4822 -1.0498
 4944TIP3    H236324   1.884   1.770  16.135 -0.3796 -0.2531  1.3405
 4945TIP3   OH236325   0.653   0.344  15.132 -0.2420  0.1250 -0.4214
 4945TIP3    H136326   0.740   0.384  15.138 -0.2204  0.6034 -2.8945
 4945TIP3    H236327   0.597   0.413  15.095 -0.7778 -1.2742 -2.3930
 4946TIP3   OH236328   5.274   4.168   2.309 -0.5911 -0.0641 -0.4066
 4946TIP3    H136329   5.291   4.087   2.261 -0.7317  0.2176 -0.9373
 4946TIP3    H236330   5.298   4.238   2.249 -2.0497  0.3177 -0.6035
 4947TIP3   OH236331   0.432   3.406  12.619  0.1977 -0.8451  0.6422
 4947TIP3    H136332   0.485   3.404  12.699  2.0197 -0.2823 -0.4864
 4947TIP3    H236333   0.362   3.469  12.638  2.2156  1.4990  0.9151
 4948TIP3   OH236334   2.484   4.089   1.218 -0.4569  0.4939  0.2919
 4948TIP3    H136335   2.493   4.096   1.123  0.1645  2.2301  0.4419
 4948TIP3    H236336   2.573   4.080   1.250 -0.6728 -0.2092  0.7234
 4949TIP3   OH236337   5.924   3.551  16.433  0.3892 -0.8805  0.2494
 4949TIP3    H136338   5.928   3.590  16.346 -0.1837 -0.6556  0.3149
 4949TIP3    H236339   5.886   3.620  16.489  0.8710 -0.9757  0.7025
 4950TIP3   OH236340   3.645   6.668   5.280 -0.2647  0.0858  1.0156
 4950TIP3    H136341   3.586   6.649   5.206 -0.2388  2.0373  0.4528
 4950TIP3    H236342   3.719   6.609   5.267 -1.4036 -1.3930  0.9294
 4951TIP3   OH236343   3.397   5.447   3.124 -0.0551  0.0459  0.1975
 4951TIP3    H136344   3.489   5.422   3.117  0.4070  1.4663  0.8774
 4951TIP3    H236345   3.392   5.499   3.204 -1.4187  0.1511  0.0708
 4952TIP3   OH236346   1.580   2.683  14.158  0.1180  0.0277  0.1666
 4952TIP3    H136347   1.540   2.597  14.145 -1.5710  0.2949  2.6586
 4952TIP3    H236348   1.656   2.684  14.101 -0.1889 -2.8502 -0.4385
 4953TIP3   OH236349   4.245   5.590   6.025 -0.0143 -0.1949  0.2922
 4953TIP3    H136350   4.187   5.628   6.091 -0.0438  0.0478  0.1263
 4953TIP3    H236351   4.207   5.504   6.005 -1.2333  0.6034 -0.9930
 4954TIP3   OH236352   0.152   1.375   0.957  0.1622  0.4559  0.1510
 4954TIP3    H136353   0.079   1.321   0.988  0.1879  0.7066  0.6714
 4954TIP3    H236354   0.120   1.465   0.967  0.4582  0.5594  0.1692
 4955TIP3   OH236355   4.361   3.835   3.608  0.4191  0.2409 -0.4026
 4955TIP3    H136356   4.294   3.878   3.555  1.2184  1.1297 -0.7105
 4955TIP3    H236357   4.415   3.906   3.641  1.0957 -0.4536  0.0154
 4956TIP3   OH236358   0.530   3.104   0.950  0.3561 -0.3350 -0.2937
 4956TIP3    H136359   0.507   3.171   0.885  0.8716  1.0685  0.9139
 4956TIP3    H236360   0.482   3.129   1.028 -1.2088 -2.6743 -0.3930
 4957TIP3   OH236361   2.929   0.392  15.955  0.1272  0.1951 -0.1892
 4957TIP3    H136362   2.873   0.327  15.913  0.5909  0.5878 -1.4782
 4957TIP3    H236363   3.015   0.351  15.958  0.0966  0.1659  0.4156
 4958TIP3   OH236364   4.872   3.737   0.908  0.5108  0.0564 -0.3350
 4958TIP3    H136365   4.852   3.828   0.930 -2.0767 -0.5954  0.3548
 4958TIP3    H236366   4.814   3.717   0.834 -1.2403 -1.8036  1.3889
 4959TIP3   OH236367   6.062   0.650  17.071  0.2684  0.2448 -0.6119
 4959TIP3    H136368   5.999   0.579  17.070  1.6869 -1.1117 -2.8454
 4959TIP3    H236369   6.064   0.682  16.981  0.6400  2.2422  0.0505
 4960TIP3   OH236370   6.007   2.198   5.676 -0.1969 -0.1199 -0.2022
 4960TIP3    H136371   6.052   2.216   5.759  0.9428  1.9321 -1.1697
 4960TIP3    H236372   5.924   2.246   5.683 -1.3057 -2.0903  0.7209
 4961TIP3   OH236373   1.355   1.379  13.586  0.1787 -0.4935  0.0597
 4961TIP3    H136374   1.354   1.303  13.643 -0.4352 -0.4079  0.1720
 4961TIP3    H236375   1.263   1.403  13.576  0.2130 -0.8414 -1.4021
 4962TIP3   OH236376   6.169   1.710  15.952 -0.1954  0.2552 -0.0820
 4962TIP3    H136377   6.133   1.699  16.040 -0.5758  2.1622  0.0370
 4962TIP3    H236378   6.254   1.751  15.966 -0.2050  0.4578 -0.5996
 4963TIP3   OH236379   5.081   2.536   3.708 -0.0518  0.2833 -0.1830
 4963TIP3    H136380   5.060   2.460   3.761 -0.0245  0.7554  0.5244
 4963TIP3    H236381   5.069   2.611   3.767 -1.7184  0.9732 -1.3164
 4964TIP3   OH236382   6.191   2.499   3.781  0.7146 -0.5132 -0.1757
 4964TIP3    H136383   6.237   2.519   3.699 -0.1420  0.3688 -0.4585
 4964TIP3    H236384   6.247   2.537   3.849  2.0604 -2.3122 -0.2071
 4965TIP3   OH236385   6.688   0.095   3.193  0.4301 -0.2037  0.5286
 4965TIP3    H136386   6.669   0.139   3.110  1.6590  1.2464  0.9695
 4965TIP3    H236387   6.719   0.165   3.251  0.4479 -1.3279  1.9364
 4966TIP3   OH236388   5.092   3.359   2.384 -0.4101 -0.6830  0.1208
 4966TIP3    H136389   5.173   3.360   2.435 -1.0972 -1.3131  1.2590
 4966TIP3    H236390   5.024   3.330   2.446 -1.3800 -0.8942 -0.9938
 4967TIP3   OH236391   0.110   4.294  11.438  0.1806 -0.3625  0.2181
 4967TIP3    H136392   0.150   4.373  11.401  2.5366 -1.5449  0.0533
 4967TIP3    H236393   0.034   4.277  11.383  0.4716  0.9816 -0.6408
 4968TIP3   OH236394   1.820   3.206  12.070 -0.1713 -0.4945  0.0127
 4968TIP3    H136395   1.894   3.222  12.011  0.5289 -0.8123  0.7808
 4968TIP3    H236396   1.785   3.121  12.042  0.7342 -1.0890  0.6148
 4969TIP3   OH236397   0.519   3.506   5.261 -0.0697 -0.2255 -0.1099
 4969TIP3    H136398   0.437   3.474   5.223 -1.5302  1.7864  1.1095
 4969TIP3    H236399   0.564   3.550   5.188 -0.5290 -0.5369 -0.5863
 4970TIP3   OH236400   0.044   3.169   5.310 -0.2761 -0.2910 -0.5526
 4970TIP3    H136401  -0.028   3.158   5.373 -1.0514 -0.3685 -1.4235
 4970TIP3    H236402   0.021   3.110   5.238 -0.6602  1.5130 -1.9789
 4971TIP3   OH236403   3.794   5.201   2.593 -0.0796 -0.3696  0.3885
 4971TIP3    H136404   3.756   5.279   2.552 -0.3396 -0.6958  0.0019
 4971TIP3    H236405   3.721   5.141   2.603  0.5019 -1.4927 -1.4950
 4972TIP3   OH236406   5.063   2.989  13.232  0.4890  1.0466 -0.2152
 4972TIP3    H136407   4.993   3.050  13.257 -1.1178 -0.3334 -1.1234
 4972TIP3    H236408   5.095   2.954  13.315  0.2235  1.8277  0.2265
 4973TIP3   OH236409   1.230   0.339  16.297 -0.1440  0.3509  0.2382
 4973TIP3    H136410   1.250   0.420  16.344 -1.0085  0.9193 -0.3573
 4973TIP3    H236411   1.184   0.285  16.361  0.2012  0.4224  0.5552
 4974TIP3   OH236412   4.985   6.750  16.080 -0.3654 -0.0797 -0.3321
 4974TIP3    H136413   4.927   6.796  16.020 -0.2506  0.3855 -0.0923
 4974TIP3    H236414   5.018   6.819  16.138 -2.5881 -0.8918  2.0558
 4975TIP3   OH236415   4.806   0.522   0.358  0.0377  0.0282  0.4539
 4975TIP3    H136416   4.762   0.470   0.291 -1.1700 -1.5249  2.3415
 4975TIP3    H236417   4.738   0.583   0.389  0.6768  0.9475  0.1146
 4976TIP3   OH236418   5.993   4.095  12.194  0.3875  0.3562 -0.2056
 4976TIP3    H136419   5.903   4.128  12.195  0.5623  0.9282 -1.3876
 4976TIP3    H236420   6.047   4.169  12.220  0.5590  0.1814 -0.0613
 4977TIP3   OH236421   0.595   3.479  13.899 -0.5444  0.3462  0.5987
 4977TIP3    H136422   0.680   3.522  13.908 -0.2589 -0.1909  0.5496
 4977TIP3    H236423   0.616   3.394  13.861 -1.1203  0.2562  0.4776
 4978TIP3   OH236424   5.069   1.418   0.242  0.3396 -0.1928 -0.7067
 4978TIP3    H136425   5.099   1.327   0.251 -1.5736 -0.8315 -0.2016
 4978TIP3    H236426   5.046   1.444   0.331 -1.2276 -0.0035 -1.1497
 4979TIP3   OH236427   5.952   1.103  15.361 -0.2095 -0.1718 -0.2606
 4979TIP3    H136428   6.028   1.123  15.307  0.5372  0.8613  1.1010
 4979TIP3    H236429   5.980   1.030  15.417 -0.1877  0.2261  0.2598
 4980TIP3   OH236430   2.884   5.536   5.280  0.3171  0.1614  0.3360
 4980TIP3    H136431   2.841   5.532   5.365  1.2010 -1.2421  0.7602
 4980TIP3    H236432   2.975   5.556   5.300  0.1359  2.0185 -0.4692
 4981TIP3   OH236433   6.129   3.536   3.633 -0.5152  0.6616  0.2961
 4981TIP3    H136434   6.221   3.536   3.607 -0.9664 -0.6783 -1.5272
 4981TIP3    H236435   6.127   3.488   3.715  0.4331  0.8638  0.4455
 4982TIP3   OH236436   6.224   0.840   5.840  0.4050 -0.4363 -0.3003
 4982TIP3    H136437   6.139   0.808   5.869  1.3639 -1.9066  1.0610
 4982TIP3    H236438   6.229   0.814   5.748 -1.1097  0.8377 -0.7853
 4983TIP3   OH236439   6.298   2.201  16.291 -0.4492  0.1395  0.1128
 4983TIP3    H136440   6.261   2.268  16.234 -2.8924 -0.7044  0.5583
 4983TIP3    H236441   6.249   2.211  16.373  1.4539 -0.0793  1.3261
 4984TIP3   OH236442   2.472   3.412   2.117  0.6561  0.3983  0.2705
 4984TIP3    H136443   2.559   3.438   2.088  0.9042  0.8992  1.3905
 4984TIP3    H236444   2.463   3.453   2.203 -0.5757  0.1164  0.2879
 4985TIP3   OH236445   0.619   5.068   0.092  0.6983  0.2740  0.1744
 4985TIP3    H136446   0.552   5.131   0.117 -1.1599 -1.5135 -0.0360
 4985TIP3    H236447   0.662   5.045   0.175 -1.3107 -1.0888  0.9145
 4986TIP3   OH236448   5.726   4.399   1.399  0.3323  0.6840 -0.3082
 4986TIP3    H136449   5.701   4.307   1.387  2.7539  0.0108 -0.7081
 4986TIP3    H236450   5.653   4.437   1.448 -1.6713 -0.9215 -1.8457
 4987TIP3   OH236451   0.435   0.516   5.468  0.5899 -0.1222  0.5393
 4987TIP3    H136452   0.468   0.567   5.395 -0.2935 -1.7390 -1.0842
 4987TIP3    H236453   0.341   0.507   5.451  0.6210 -1.8087  1.0259
 4988TIP3   OH236454   0.594   0.585  15.459 -0.0570  0.4128 -0.2947
 4988TIP3    H136455   0.541   0.509  15.436  2.8727 -1.3210 -1.8294
 4988TIP3    H236456   0.578   0.648  15.389 -0.7968  0.3315 -0.2073
 4989TIP3   OH236457   4.347   1.155  12.682  0.2429  0.0066  0.2265
 4989TIP3    H136458   4.367   1.218  12.751 -1.0625  1.0678 -0.3109
 4989TIP3    H236459   4.372   1.071  12.719  0.5387  0.6587  1.5920
 4990TIP3   OH236460   2.991   4.720  13.995  0.1641 -0.1054  0.2892
 4990TIP3    H136461   2.896   4.724  13.984  0.0513 -0.1660  1.2004
 4990TIP3    H236462   3.004   4.664  14.072  0.8685  1.1457  1.1079
 4991TIP3   OH236463   4.886   2.768  15.339  0.5181 -0.3883  0.7374
 4991TIP3    H136464   4.800   2.801  15.365  0.7683  0.1219  0.9155
 4991TIP3    H236465   4.893   2.787  15.246  1.0473  0.9411  1.0233
 4992TIP3   OH236466   3.220   6.277  11.388  0.1746  0.2013 -0.1413
 4992TIP3    H136467   3.185   6.280  11.477 -0.3735  0.0468 -0.3433
 4992TIP3    H236468   3.292   6.340  11.388  1.8938 -1.6629  1.1108
 4993TIP3   OH236469   0.400   0.793   0.108 -0.0194  0.3466  0.8761
 4993TIP3    H136470   0.352   0.717   0.076  0.3149  1.3315 -2.3271
 4993TIP3    H236471   0.336   0.843   0.159 -2.4635  1.3623 -2.8107
 4994TIP3   OH236472   3.890   0.396  13.423 -0.2468 -0.0086 -0.0514
 4994TIP3    H136473   3.952   0.423  13.491 -0.5587 -1.0679  0.6701
 4994TIP3    H236474   3.870   0.477  13.376  1.0741  0.4884  0.1976
 4995TIP3   OH236475   6.226   2.393  17.110 -0.1773  0.1763  0.4018
 4995TIP3    H136476   6.235   2.462  17.045 -0.6857  1.0144  1.2098
 4995TIP3    H236477   6.194   2.437  17.188 -0.4616 -0.9640  0.9499
 4996TIP3   OH236478   5.728   0.712  12.691 -0.0862 -0.1523 -0.3033
 4996TIP3    H136479   5.740   0.689  12.599 -0.0832  0.4440 -0.4564
 4996TIP3    H236480   5.733   0.629  12.738 -0.2320 -0.4737 -0.8567
 4997TIP3   OH236481   3.454   6.760  10.460 -0.5762  0.7386 -0.6888
 4997TIP3    H136482   3.390   6.724  10.398 -0.6332 -1.0317  0.3278
 4997TIP3    H236483   3.401   6.788  10.535 -0.1952 -1.7422  0.6349
 4998TIP3   OH236484   1.865   5.374  16.484  0.1754 -0.8294 -0.2716
 4998TIP3    H136485   1.801   5.304  16.471 -1.8784  0.6597  1.2100
 4998TIP3    H236486   1.927   5.338  16.547 -0.4072 -1.5940 -0.1199
 4999TIP3   OH236487   3.459   5.464  10.417  0.4685  0.1731 -0.1615
 4999TIP3    H136488   3.394   5.439  10.351 -1.7037  0.5206  1.7063
 4999TIP3    H236489   3.484   5.382  10.460 -1.7395  0.3263  1.6354
 5000TIP3   OH236490   3.624   1.090   6.074 -0.4245 -0.4774  0.0010
 5000TIP3    H136491   3.545   1.145   6.072 -1.8114 -2.1944  2.5375
 5000TIP3    H236492   3.688   1.142   6.123 -1.0428 -0.3036  0.6386
 5001TIP3   OH236493   6.281   3.620  11.820  0.2102 -0.2294 -0.1557
 5001TIP3    H136494   6.311   3.675  11.892  2.9259  0.7574 -1.8872
 5001TIP3    H236495   6.207   3.668  11.782  0.6452  0.7338  0.1839
 5002TIP3   OH236496   3.772   1.439  13.114 -0.6725  0.2328 -0.2047
 5002TIP3    H136497   3.713   1.374  13.076  0.4560 -1.0031  0.0654
 5002TIP3    H236498   3.804   1.398  13.194 -1.0882  1.7683  0.7817
 5003TIP3   OH236499   5.875   1.388  15.288  0.1610  0.0516 -0.1990
 5003TIP3    H136500   5.917   1.336  15.356  1.5497  1.0625 -0.2511
 5003TIP3    H236501   5.830   1.323  15.233 -2.6551 -0.7136  2.6605
 5004TIP3   OH236502   1.471   1.804   3.260 -0.4416  0.0149  0.0615
 5004TIP3    H136503   1.440   1.806   3.170  0.6328  0.3434 -0.3247
 5004TIP3    H236504   1.457   1.713   3.289 -1.7319  0.1601 -0.0732
 5005TIP3   OH236505   1.430   1.416   2.557 -0.2110  0.1906  0.3690
 5005TIP3    H136506   1.439   1.323   2.580 -0.1207  0.0419 -0.2352
 5005TIP3    H236507   1.394   1.457   2.635 -3.1604 -0.8882 -0.2739
 5006TIP3   OH236508   5.470   3.428  11.456  0.3253 -0.2168 -0.4449
 5006TIP3    H136509   5.505   3.517  11.454 -0.8438  0.2485 -0.9197
 5006TIP3    H236510   5.428   3.420  11.542  0.0506 -0.1668 -0.5760
 5007TIP3   OH236511   0.295   6.679  14.118 -0.2059 -0.5575  0.0041
 5007TIP3    H136512   0.326   6.756  14.165 -0.9038 -0.3322  0.1201
 5007TIP3    H236513   0.206   6.666  14.152 -0.2223 -1.1920 -0.2839
 5008TIP3   OH236514   5.500   3.762   0.521  0.1669 -0.3913 -0.8208
 5008TIP3    H136515   5.410   3.766   0.487 -1.0414  1.9233  2.1732
 5008TIP3    H236516   5.505   3.677   0.564 -1.2925  0.1441  0.5107
 5009TIP3   OH236517   3.195   0.375   2.535 -0.3532  0.2682  0.0373
 5009TIP3    H136518   3.260   0.380   2.605  0.6585  1.3463 -0.9138
 5009TIP3    H236519   3.235   0.424   2.463 -0.9978 -1.4579 -1.5637
 5010TIP3   OH236520   6.709   6.410  14.227 -0.6936 -0.1628 -0.5261
 5010TIP3    H136521   6.695   6.350  14.300  1.6604 -0.9998 -0.6854
 5010TIP3    H236522   6.737   6.354  14.155  0.2950  0.9647 -1.0533
 5011TIP3   OH236523   3.344   3.015  14.781 -0.9421 -0.1760  0.3279
 5011TIP3    H136524   3.310   3.039  14.695  1.6945  1.0692 -0.4648
 5011TIP3    H236525   3.340   3.096  14.832  0.1484 -0.1770  0.4308
 5012TIP3   OH236526   2.429   0.456   4.982 -0.1822  0.1266 -0.4322
 5012TIP3    H136527   2.340   0.428   5.004  0.6281 -2.5291 -0.1788
 5012TIP3    H236528   2.485   0.386   5.016  1.9463  1.2347 -1.4649
 5013TIP3   OH236529   0.899   6.182   0.999 -0.3784  0.1320  0.2006
 5013TIP3    H136530   0.920   6.272   1.023  1.3721 -0.7797  2.5480
 5013TIP3    H236531   0.852   6.148   1.075 -1.0601 -0.9241 -0.6684
 5014TIP3   OH236532   4.417   2.415  12.009 -0.2712  0.6993  0.0217
 5014TIP3    H136533   4.439   2.502  11.976 -1.1828  0.8611 -0.1969
 5014TIP3    H236534   4.440   2.355  11.939  0.2054  0.7804  0.1086
 5015TIP3   OH236535   1.280   1.358   5.024  0.0403  0.1762  0.4731
 5015TIP3    H136536   1.187   1.339   5.022  0.1817 -0.5571  0.6130
 5015TIP3    H236537   1.321   1.288   4.973  0.6332 -0.2857  1.5436
 5016TIP3   OH236538   2.689   4.088   1.427  0.0857 -0.3697  0.9494
 5016TIP3    H136539   2.782   4.080   1.406  0.1584 -1.1913  1.5173
 5016TIP3    H236540   2.678   4.036   1.507 -0.7944  0.0051  1.0871
 5017TIP3   OH236541   6.484   5.102   1.303  0.2659 -0.2392 -0.8090
 5017TIP3    H136542   6.440   5.112   1.219 -0.5774 -1.7147 -0.5739
 5017TIP3    H236543   6.415   5.117   1.368  0.0649 -2.4738 -0.4357
 5018TIP3   OH236544   1.571   2.564   0.275  0.5581 -0.3376  0.4330
 5018TIP3    H136545   1.648   2.572   0.219  0.3793 -0.7265  0.1261
 5018TIP3    H236546   1.565   2.648   0.320 -2.0688  2.0721 -3.7146
 5019TIP3   OH236547   3.633   5.185   5.411  0.0621 -0.3260  0.4586
 5019TIP3    H136548   3.576   5.227   5.347 -0.6830 -0.2612  1.1549
 5019TIP3    H236549   3.721   5.210   5.384 -0.3615  3.0503  1.7226
 5020TIP3   OH236550   0.374   2.473   4.584 -0.4521  0.3011 -0.1787
 5020TIP3    H136551   0.469   2.485   4.587 -0.3382 -0.3552 -0.8711
 5020TIP3    H236552   0.361   2.382   4.610 -0.8110  0.0917 -1.0725
 5021TIP3   OH236553   5.283   0.021  15.718  0.3949  0.3489  0.5175
 5021TIP3    H136554   5.299   0.029  15.624 -1.5492  1.7438  0.2610
 5021TIP3    H236555   5.235  -0.062  15.727 -0.4440  0.7799  0.1100
 5022TIP3   OH236556   6.315   6.438  17.004 -0.4029 -0.3375 -0.3092
 5022TIP3    H136557   6.228   6.402  16.990 -0.8737  0.3765  0.6984
 5022TIP3    H236558   6.374   6.371  16.970 -1.3464 -0.2958 -2.1638
 5023TIP3   OH236559   4.799   2.273  15.393  0.2027 -0.7775 -0.4201
 5023TIP3    H136560   4.768   2.222  15.467 -0.9823 -0.0692 -0.3982
 5023TIP3    H236561   4.877   2.227  15.363  0.6962 -1.0930  1.2389
 5024TIP3   OH236562   3.032   6.519  12.448  0.5177 -0.5213  0.3592
 5024TIP3    H136563   3.021   6.442  12.393  3.7656  0.4474 -1.9665
 5024TIP3    H236564   3.094   6.493  12.516  0.0271 -0.4719  0.8376
 5025TIP3   OH236565   4.546   4.955   5.582 -0.1533 -0.3870  0.3929
 5025TIP3    H136566   4.630   4.916   5.605 -0.8479 -2.2901 -0.1402
 5025TIP3    H236567   4.557   5.049   5.600  2.6827 -0.2533 -1.3700
 5026TIP3   OH236568   0.370   6.184   5.195 -0.3017  0.1301 -0.5466
 5026TIP3    H136569   0.456   6.176   5.236 -1.3213 -1.9207  1.4803
 5026TIP3    H236570   0.310   6.200   5.268 -2.0723 -2.2954 -1.3277
 5027TIP3   OH236571   3.270   3.291  15.392 -0.1956  0.0246  0.5198
 5027TIP3    H136572   3.271   3.277  15.486  0.2125  1.6119  0.7713
 5027TIP3    H236573   3.190   3.248  15.362  0.2479 -1.4838  1.4000
 5028TIP3   OH236574   4.255   3.893   5.293 -0.3847  0.5413 -0.0904
 5028TIP3    H136575   4.179   3.923   5.245 -0.5164  2.6383  1.2999
 5028TIP3    H236576   4.233   3.804   5.320 -2.1798  0.9711 -0.0608
 5029TIP3   OH236577   6.628   2.503   4.634 -0.2088  0.4565 -0.3188
 5029TIP3    H136578   6.672   2.430   4.677  0.9212  0.6939 -1.0406
 5029TIP3    H236579   6.698   2.565   4.613 -0.9613  1.1086 -0.9786
 5030TIP3   OH236580   0.252   0.274   3.111 -0.6061 -0.2416  0.1187
 5030TIP3    H136581   0.207   0.353   3.081 -0.7354 -0.4667 -0.2817
 5030TIP3    H236582   0.187   0.204   3.101 -0.5300 -0.3805  0.5781
 5031TIP3   OH236583   0.133   4.268   2.763  0.0586  0.3143  0.0887
 5031TIP3    H136584   0.100   4.351   2.799  0.7659 -0.0535  1.6747
 5031TIP3    H236585   0.055   4.215   2.749 -0.5390  1.6496 -2.1635
 5032TIP3   OH236586   6.224   5.275  15.770 -0.3739 -0.3831 -0.1343
 5032TIP3    H136587   6.212   5.302  15.861 -2.4746  0.4711 -0.6139
 5032TIP3    H236588   6.173   5.338  15.719  0.7023 -0.8797 -1.9184
 5033TIP3   OH236589   0.198   1.521  11.612 -0.0430 -0.2453 -0.1404
 5033TIP3    H136590   0.193   1.585  11.684  0.9241 -0.3823  0.0634
 5033TIP3    H236591   0.292   1.513  11.594  0.0413 -2.9859  1.0749
 5034TIP3   OH236592   4.533   4.351  16.612 -0.2173 -0.0293 -0.3915
 5034TIP3    H136593   4.474   4.291  16.658  0.7698 -1.5977 -1.0544
 5034TIP3    H236594   4.513   4.437  16.647 -2.8260 -0.5041 -0.5172
 5035TIP3   OH236595   1.640   0.612  15.615  0.0848 -0.0648 -0.4035
 5035TIP3    H136596   1.607   0.524  15.597  1.1312 -0.6411  0.3739
 5035TIP3    H236597   1.726   0.598  15.656 -0.8578  1.1955  2.2359
 5036TIP3   OH236598   0.878   4.204  11.578  0.0168  0.0858 -0.0600
 5036TIP3    H136599   0.946   4.146  11.542  0.6184  0.7668 -0.0311
 5036TIP3    H236600   0.808   4.202  11.512  0.1544 -0.4416 -0.1993
 5037TIP3   OH236601   1.750   0.881  15.672 -0.3858 -0.6211  0.0780
 5037TIP3    H136602   1.713   0.966  15.648  0.5374 -0.6995 -1.8002
 5037TIP3    H236603   1.688   0.817  15.637 -0.7654 -0.7331  0.9433
 5038TIP3   OH236604   4.621   2.299  14.348  0.1127  0.2369  0.6721
 5038TIP3    H136605   4.642   2.255  14.430 -2.0613  0.6922  1.5582
 5038TIP3    H236606   4.591   2.228  14.291 -0.3557  0.1602  1.0053
 5039TIP3   OH236607   0.483   4.189   3.497  0.4591 -0.1993  0.1393
 5039TIP3    H136608   0.490   4.117   3.560  3.1201  1.1942  1.6252
 5039TIP3    H236609   0.560   4.179   3.442  2.1426  2.6086  1.7616
 5040TIP3   OH236610   4.128   2.239  16.271  0.2996 -0.3143  0.3134
 5040TIP3    H136611   4.161   2.258  16.359 -2.2841  2.2710  0.8779
 5040TIP3    H236612   4.081   2.157  16.280  0.0613 -0.0752  1.3497
 5041TIP3   OH236613   4.602   3.327  11.138  0.0430  0.3001 -0.4477
 5041TIP3    H136614   4.543   3.317  11.213 -0.9313 -0.3404 -1.2625
 5041TIP3    H236615   4.683   3.283  11.165  0.1178  1.0643  0.6360
 5042TIP3   OH236616   5.874   6.175   2.995  0.4042 -0.2747 -0.0106
 5042TIP3    H136617   5.784   6.202   2.975  0.3157  0.2403  1.0314
 5042TIP3    H236618   5.884   6.091   2.950 -0.5810 -0.3108 -0.1852
 5043TIP3   OH236619   2.189   4.570   2.414 -0.2940 -0.5476 -0.3602
 5043TIP3    H136620   2.256   4.507   2.442 -2.1323 -2.3017  0.4109
 5043TIP3    H236621   2.133   4.580   2.491 -1.3789  0.2035 -1.2186
 5044TIP3   OH236622   3.655   1.572  11.790 -0.3628  0.3358  0.0583
 5044TIP3    H136623   3.720   1.594  11.723 -0.5107 -1.2296 -0.6650
 5044TIP3    H236624   3.671   1.479  11.808 -0.3579  0.6991  2.1985
 5045TIP3   OH236625   5.103   5.925  17.088  0.2684 -1.0100 -0.6727
 5045TIP3    H136626   5.113   5.992  17.020 -1.0454 -0.2313 -0.1494
 5045TIP3    H236627   5.188   5.920  17.131 -0.1306  1.9487  0.7028
 5046TIP3   OH236628   4.925   0.096  15.174 -0.4001 -0.4878 -0.2014
 5046TIP3    H136629   4.833   0.115  15.154 -0.2006 -1.9720 -3.1742
 5046TIP3    H236630   4.944   0.016  15.124  2.9730  0.8001 -1.2595
 5047TIP3   OH236631   6.075   6.629  15.785  0.2211 -0.0388 -0.0331
 5047TIP3    H136632   6.034   6.544  15.770  1.8868 -0.8515 -0.1674
 5047TIP3    H236633   6.122   6.618  15.867  1.6834  0.2531 -0.8075
 5048TIP3   OH236634   4.084   6.267  15.445 -0.1130 -0.3727  0.0286
 5048TIP3    H136635   4.101   6.352  15.404  0.2808 -0.1263  0.6897
 5048TIP3    H236636   4.076   6.286  15.538 -0.5663 -0.9876  0.1244
 5049TIP3   OH236637   4.842   3.836  15.425  0.1036  0.0699  0.2411
 5049TIP3    H136638   4.895   3.863  15.350 -0.0179  2.0327  0.8015
 5049TIP3    H236639   4.900   3.852  15.501 -0.9827  1.5916  0.8076
 5050TIP3   OH236640   6.332   0.426  14.080  0.1323 -0.1233  0.1508
 5050TIP3    H136641   6.336   0.433  14.176  1.2836 -2.1428  0.3044
 5050TIP3    H236642   6.370   0.508  14.049  2.4437 -0.5945  1.4924
 5051TIP3   OH236643   1.965   0.010  17.119 -0.1816  0.2843  0.0617
 5051TIP3    H136644   1.986   0.102  17.105 -0.2596 -0.0583 -3.1051
 5051TIP3    H236645   1.884  -0.004  17.070 -0.7232 -1.2781  1.3146
 5052TIP3   OH236646   3.046   5.724   4.200  0.6622 -0.3252 -0.5815
 5052TIP3    H136647   2.969   5.760   4.242  0.2908 -2.4047  0.6783
 5052TIP3    H236648   3.033   5.742   4.106 -0.4068  0.9705 -0.2099
 5053TIP3   OH236649   2.222   3.353   1.778  0.2580  0.2317 -0.2479
 5053TIP3    H136650   2.291   3.324   1.719  0.3993  0.2230 -0.0793
 5053TIP3    H236651   2.267   3.406   1.844 -0.2475  2.6689 -1.7182
 5054TIP3   OH236652   2.574   0.490   4.527  0.0225  0.4995  0.2098
 5054TIP3    H136653   2.491   0.532   4.503  0.5793  0.8025 -1.2915
 5054TIP3    H236654   2.633   0.563   4.546  0.1359  0.3015  0.6285
 5055TIP3   OH236655   1.652   1.427  11.823  0.1151 -0.1641 -0.8915
 5055TIP3    H136656   1.558   1.425  11.808 -0.1157  0.6921  0.2773
 5055TIP3    H236657   1.661   1.432  11.919  1.2799  1.6618 -1.0550
 5056TIP3   OH236658   3.769   4.494  16.581 -0.3446  0.5362 -0.1944
 5056TIP3    H136659   3.811   4.422  16.629 -1.0065  0.7630  0.7444
 5056TIP3    H236660   3.677   4.470  16.578 -0.3264  0.5282 -1.3787
 5057TIP3   OH236661   0.208   1.232   6.120  0.2302 -0.2412  0.0580
 5057TIP3    H136662   0.162   1.298   6.172 -0.8533  0.5920 -1.8485
 5057TIP3    H236663   0.138   1.178   6.084  0.7461  0.4068 -2.0523
 5058TIP3   OH236664   1.293   6.549  13.193 -0.0406 -0.0996  0.4404
 5058TIP3    H136665   1.220   6.521  13.248  0.9282 -1.8735  0.8903
 5058TIP3    H236666   1.257   6.620  13.140 -2.4414 -1.6723 -0.1819
 5059TIP3   OH236667   1.987   1.093  13.807  0.2139  0.1091  0.0899
 5059TIP3    H136668   1.978   1.160  13.739  1.1101  0.9153  0.7337
 5059TIP3    H236669   1.940   1.017  13.772  1.8172 -0.0055 -2.1066
 5060TIP3   OH236670   4.030   0.350   0.693  0.4421  0.8608 -0.1950
 5060TIP3    H136671   4.116   0.373   0.727  0.3906 -0.9146  1.2825
 5060TIP3    H236672   4.004   0.273   0.743 -2.2766  1.6667 -0.1979
 5061TIP3   OH236673   4.483   4.399  12.369  0.5039 -0.2838  0.0951
 5061TIP3    H136674   4.450   4.340  12.437  0.6138 -1.0292 -0.4901
 5061TIP3    H236675   4.427   4.477  12.376 -1.5139 -1.5540 -0.9588
 5062TIP3   OH236676   0.974   1.174  11.610  0.0595 -0.1836  0.6562
 5062TIP3    H136677   0.990   1.101  11.551  0.1515 -0.4840  1.0440
 5062TIP3    H236678   1.037   1.242  11.582 -1.3853  0.5464 -0.9998
 5063TIP3   OH236679   3.172   2.677  16.502 -0.3362 -0.4054  0.0901
 5063TIP3    H136680   3.107   2.746  16.513 -0.4084 -0.5375  0.5261
 5063TIP3    H236681   3.161   2.647  16.411  0.1756  0.6231 -0.3264
 5064TIP3   OH236682   4.311   5.711  14.082  0.1486 -1.2764 -0.3833
 5064TIP3    H136683   4.263   5.663  14.149 -1.3853 -0.3874 -0.8093
 5064TIP3    H236684   4.246   5.732  14.015  0.3001  2.5622  0.3973
 5065TIP3   OH236685   1.950   0.238  15.292  0.1139  0.8351  0.5346
 5065TIP3    H136686   2.038   0.270  15.270 -0.5958  0.7650 -3.1762
 5065TIP3    H236687   1.966   0.157  15.340  2.1684  0.3560 -0.7820
 5066TIP3   OH236688   3.981   5.878  14.777  0.0582  0.4494  0.0198
 5066TIP3    H136689   3.957   5.794  14.739 -1.3981  1.3359 -1.0928
 5066TIP3    H236690   4.073   5.867  14.802  0.3677 -0.9524 -1.5552
 5067TIP3   OH236691   0.389   6.424   1.585 -0.0732 -0.3855  0.0658
 5067TIP3    H136692   0.476   6.417   1.545  0.7366  1.0012  1.4697
 5067TIP3    H236693   0.399   6.378   1.669 -0.3893  0.5937  0.6541
 5068TIP3   OH236694   3.434   5.716  17.035  0.0812  0.0824  0.0319
 5068TIP3    H136695   3.446   5.625  17.008  0.7794  0.2232 -0.1628
 5068TIP3    H236696   3.351   5.742  16.996  1.3259  0.4641 -2.5828
 5069TIP3   OH236697   1.264   5.757   3.602  0.0377 -0.1296  0.3467
 5069TIP3    H136698   1.185   5.732   3.651 -0.9704  0.8275 -0.7407
 5069TIP3    H236699   1.333   5.758   3.669 -1.5782  2.7709  2.2180
 5070TIP3   OH236700   4.796   2.541  11.975  0.0928  0.0635 -0.0739
 5070TIP3    H136701   4.843   2.624  11.979 -0.7414  0.5288  0.3146
 5070TIP3    H236702   4.799   2.507  12.064  1.6271 -1.0285 -0.4965
 5071TIP3   OH236703   6.727   4.818  15.344  0.6431  0.1081  0.0940
 5071TIP3    H136704   6.642   4.838  15.307  1.4451  3.0825 -0.3757
 5071TIP3    H236705   6.710   4.752  15.411 -1.9215  0.3189 -0.2807
 5072TIP3   OH236706   6.656   4.561   1.519 -0.4644 -0.4224 -0.6598
 5072TIP3    H136707   6.590   4.503   1.481 -1.2754  1.6599 -2.6628
 5072TIP3    H236708   6.717   4.577   1.447  0.1961  0.5576  0.0985
 5073TIP3   OH236709   5.667   5.036   0.093 -0.2328 -0.2173  0.4735
 5073TIP3    H136710   5.671   5.119   0.140  2.9768  0.2261 -0.3164
 5073TIP3    H236711   5.634   5.059   0.006 -0.9940 -0.0808  0.7977
 5074TIP3   OH236712   1.804   6.089  13.937  0.2669  0.1876  0.2894
 5074TIP3    H136713   1.714   6.072  13.910 -0.5691  1.3317  2.1562
 5074TIP3    H236714   1.855   6.081  13.856 -1.4037 -1.0367 -0.7103
 5075TIP3   OH236715   4.762   0.775  13.502  0.7115  0.0824  0.4991
 5075TIP3    H136716   4.698   0.755  13.434  0.0466  2.2227  0.4061
 5075TIP3    H236717   4.832   0.822  13.456  0.7327  0.6775  1.1204
 5076TIP3   OH236718   5.363   0.269  15.804 -0.3380  0.3949 -0.5531
 5076TIP3    H136719   5.324   0.188  15.769 -0.5106 -0.0086  0.5395
 5076TIP3    H236720   5.429   0.239  15.866  0.6662  1.0962 -1.2593
 5077TIP3   OH236721   3.407   2.276   2.910  0.2951  0.8018  0.0058
 5077TIP3    H136722   3.462   2.338   2.958  0.7241  0.0528  0.4958
 5077TIP3    H236723   3.427   2.191   2.949 -1.7997  0.6030  0.7466
 5078TIP3   OH236724   2.754   6.792  13.920  0.0793 -0.0472 -0.1256
 5078TIP3    H136725   2.693   6.866  13.928 -1.4814 -1.2791 -0.0784
 5078TIP3    H236726   2.748   6.747  14.005  0.5739 -0.5383 -0.3497
 5079TIP3   OH236727   6.039   3.112  10.618 -0.2929  0.1516 -0.3567
 5079TIP3    H136728   6.134   3.110  10.613 -0.0897 -2.6872  2.2690
 5079TIP3    H236729   6.018   3.197  10.658  1.0310  0.9401 -1.2625
 5080TIP3   OH236730   6.292   5.377  12.361 -0.1338  0.1927 -0.1336
 5080TIP3    H136731   6.212   5.429  12.369 -0.4778 -0.3010 -0.3285
 5080TIP3    H236732   6.361   5.434  12.396 -0.8161  0.0010  1.6662
 5081TIP3   OH236733   6.683   5.615  15.272  0.4287 -0.0092  0.0432
 5081TIP3    H136734   6.657   5.700  15.237  0.1663 -0.5601 -1.1589
 5081TIP3    H236735   6.773   5.628  15.303  0.2839  0.7776  0.1535
 5082TIP3   OH236736   2.246   2.373   4.002  0.3053  0.2451  0.0176
 5082TIP3    H136737   2.320   2.433   3.993 -1.2174  1.9782 -2.1896
 5082TIP3    H236738   2.269   2.297   3.948  0.3007  1.0052 -1.0839
 5083TIP3   OH236739   0.065   1.408   5.934 -0.0430  0.0188  0.7843
 5083TIP3    H136740   0.135   1.437   5.992  0.4016 -0.2431  0.3754
 5083TIP3    H236741   0.075   1.313   5.928 -0.6993 -0.0795  1.0682
 5084TIP3   OH236742   3.578   1.672  12.516 -1.0024 -0.7265 -0.2056
 5084TIP3    H136743   3.496   1.688  12.563 -0.7266 -0.6873  0.2723
 5084TIP3    H236744   3.646   1.693  12.580 -0.6142 -0.3697 -0.7304
 5085TIP3   OH236745   2.352   6.386   3.153  0.5960 -0.7381  0.0190
 5085TIP3    H136746   2.420   6.323   3.133  1.0689 -0.0719 -0.5501
 5085TIP3    H236747   2.397   6.459   3.195 -0.0532 -1.0859  1.3695
 5086TIP3   OH236748   1.302   0.936  14.408 -0.5324  0.3775 -0.3393
 5086TIP3    H136749   1.361   0.919  14.334 -0.1272 -1.0561  0.2772
 5086TIP3    H236750   1.361   0.952  14.482 -0.9226  0.4559 -0.0448
 5087TIP3   OH236751   5.095   2.365   1.279 -0.4707  0.8861  0.1721
 5087TIP3    H136752   5.138   2.404   1.202 -1.0886  1.0686 -0.0821
 5087TIP3    H236753   5.105   2.270   1.265 -0.6704  0.9164 -0.1840
 5088TIP3   OH236754   6.333   2.576  13.800 -0.1599 -0.4906 -0.2537
 5088TIP3    H136755   6.291   2.654  13.835 -0.8966 -0.8307 -0.3657
 5088TIP3    H236756   6.421   2.576  13.839 -0.8995 -0.7817  1.4776
 5089TIP3   OH236757   3.051   6.758  11.816  0.8147 -0.7551  0.0200
 5089TIP3    H136758   2.982   6.812  11.856  1.2035  1.0050 -1.5614
 5089TIP3    H236759   3.003   6.696  11.761  0.4355 -0.0764 -0.4357
 5090TIP3   OH236760   4.288   3.063   4.932  0.2560 -0.3136  0.0773
 5090TIP3    H136761   4.202   3.027   4.911  0.6140  0.6987 -3.9372
 5090TIP3    H236762   4.350   2.995   4.904  0.8046  0.1847  0.0518
 5091TIP3   OH236763   2.057   3.066   1.328  0.1222  0.0510  0.0121
 5091TIP3    H136764   2.088   3.145   1.373 -1.1220 -0.2252  1.4044
 5091TIP3    H236765   2.052   3.092   1.236  3.3760  0.4321 -0.1949
 5092TIP3   OH236766   1.493   1.376   2.002  0.1149 -0.3536  0.2759
 5092TIP3    H136767   1.586   1.393   2.018 -0.2661  2.0520  0.2174
 5092TIP3    H236768   1.486   1.366   1.907  0.3227 -0.6248  0.2884
 5093TIP3   OH236769   6.482   0.564  15.055  0.1587 -0.3818  0.2269
 5093TIP3    H136770   6.399   0.523  15.030 -2.2978  3.1885  1.5418
 5093TIP3    H236771   6.524   0.586  14.972 -0.7148 -1.4053 -0.5068
 5094TIP3   OH236772   3.611   5.556   5.137  0.2750 -0.4607 -0.4736
 5094TIP3    H136773   3.626   5.467   5.169 -0.0941 -1.5557 -3.1340
 5094TIP3    H236774   3.693   5.603   5.156  0.6352 -1.4590  0.5539
 5095TIP3   OH236775   5.144   5.065  11.682  0.3547 -0.4401  0.0762
 5095TIP3    H136776   5.107   5.034  11.600  1.4307  0.3347 -0.7417
 5095TIP3    H236777   5.125   5.158  11.684  1.5143 -0.1845  0.0236
 5096TIP3   OH236778   3.012   4.688   1.338 -0.1848  0.1491  0.3607
 5096TIP3    H136779   2.931   4.643   1.315  0.6255 -0.5274 -1.3744
 5096TIP3    H236780   3.076   4.617   1.349  0.7497  0.7611 -0.8690
 5097TIP3   OH236781   6.404   0.037  11.522 -0.2532  0.2615 -0.4711
 5097TIP3    H136782   6.446   0.038  11.436  0.1177 -2.7176 -0.4427
 5097TIP3    H236783   6.476   0.049  11.584 -0.4151  1.6149 -0.5119
 5098TIP3   OH236784   4.216   1.634  14.971 -0.0016  0.2000 -0.0723
 5098TIP3    H136785   4.219   1.622  14.876 -1.4363 -1.7044  0.0506
 5098TIP3    H236786   4.240   1.548  15.007 -0.9104  0.4623  1.2511
 5099TIP3   OH236787   2.621   4.332  12.110 -0.4093  0.1978 -0.1891
 5099TIP3    H136788   2.634   4.415  12.156  1.2778  0.1933 -0.5840
 5099TIP3    H236789   2.536   4.341  12.067 -0.7046  1.3183  0.5885
 5100TIP3   OH236790   4.219   0.564   4.081  0.1950  0.1116  0.0893
 5100TIP3    H136791   4.248   0.478   4.112 -1.4206 -0.8471 -0.9043
 5100TIP3    H236792   4.197   0.612   4.160 -1.5312 -1.4209  0.6097
 5101TIP3   OH236793   3.110   4.297  15.585 -0.2384 -0.1244  0.1314
 5101TIP3    H136794   3.040   4.358  15.561 -0.6114 -0.8239 -0.6175
 5101TIP3    H236795   3.154   4.277  15.502  0.6801  0.0878  0.5515
 5102TIP3   OH236796   1.873   4.856  17.212  0.2047  0.1271 -0.4560
 5102TIP3    H136797   1.859   4.859  17.117  1.7009 -0.1430 -0.7131
 5102TIP3    H236798   1.855   4.946  17.241 -0.4175  0.1746 -0.9732
 5103TIP3   OH236799   6.095   5.395  14.244  0.2190 -0.1556  0.0386
 5103TIP3    H136800   6.180   5.433  14.262  0.3098 -0.2290 -0.2305
 5103TIP3    H236801   6.049   5.461  14.191 -1.3413  1.6001  3.2899
 5104TIP3   OH236802   2.584   0.494   5.344 -0.0031 -0.1531  0.5839
 5104TIP3    H136803   2.635   0.424   5.303 -0.5379 -1.0077  1.3404
 5104TIP3    H236804   2.636   0.573   5.329  0.7149 -0.7325 -0.1076
 5105TIP3   OH236805   0.109   3.870  13.205  0.2667 -0.1793 -0.6973
 5105TIP3    H136806   0.157   3.826  13.275 -0.4474  0.6428  0.3495
 5105TIP3    H236807   0.152   3.955  13.197 -1.2489  0.7688  0.5991
 5106TIP3   OH236808   1.120   4.138  10.829  0.3787 -0.1140  0.4744
 5106TIP3    H136809   1.162   4.178  10.753  0.6281  0.8203  1.0771
 5106TIP3    H236810   1.078   4.059  10.796  0.6136  0.2036 -0.5955
 5107TIP3   OH236811   3.604   6.775   1.669 -0.2810 -0.0435  0.5570
 5107TIP3    H136812   3.612   6.742   1.759  0.3046 -4.0602 -0.7659
 5107TIP3    H236813   3.530   6.727   1.633 -0.9073  1.9692 -1.0236
 5108TIP3   OH236814   2.838   2.494   5.859 -0.7058 -0.2758 -0.4662
 5108TIP3    H136815   2.869   2.565   5.915 -1.4472  0.2100 -0.6665
 5108TIP3    H236816   2.847   2.526   5.770 -2.5262  0.2090 -0.5108
 5109TIP3   OH236817   0.232   1.505   3.159  0.2728 -0.3571 -0.3474
 5109TIP3    H136818   0.209   1.581   3.211  1.7330 -0.4086  0.4442
 5109TIP3    H236819   0.155   1.487   3.106 -0.9980  0.1618  1.2553
 5110TIP3   OH236820   5.196   2.927  12.626 -0.0058  0.1503  0.0101
 5110TIP3    H136821   5.226   2.851  12.675 -0.3460  1.1120  1.8201
 5110TIP3    H236822   5.253   2.998  12.654 -1.5866  1.2071  0.7299
 5111TIP3   OH236823   2.880   2.136  15.707 -0.3961 -0.4623 -0.7034
 5111TIP3    H136824   2.838   2.147  15.622 -0.4502 -0.5674 -0.6909
 5111TIP3    H236825   2.810   2.105  15.765 -0.5027  0.2145 -0.4682
 5112TIP3   OH236826   1.338   5.888   1.310  0.7237  0.4918  0.5778
 5112TIP3    H136827   1.272   5.822   1.332 -0.0244  0.8915 -0.3796
 5112TIP3    H236828   1.399   5.842   1.252  1.1960  0.1745  1.3097
 5113TIP3   OH236829   4.422   3.830   2.548 -0.4078 -0.2350 -0.2910
 5113TIP3    H136830   4.380   3.758   2.596 -0.2058 -0.8000 -0.9415
 5113TIP3    H236831   4.402   3.812   2.456  0.5915 -0.0729 -0.5458
 5114TIP3   OH236832   3.553   1.861   1.216 -0.3010  0.1427 -0.9575
 5114TIP3    H136833   3.534   1.815   1.134  1.3185 -0.4170 -1.0653
 5114TIP3    H236834   3.476   1.848   1.270 -0.4247 -1.5924 -1.4916
 5115TIP3   OH236835   0.339   3.698   6.456  0.0716 -0.1897 -0.3703
 5115TIP3    H136836   0.343   3.696   6.360  1.0147 -1.7185 -0.3272
 5115TIP3    H236837   0.279   3.770   6.476  1.4197  1.5211 -2.0510
 5116TIP3   OH236838   2.971   0.846  11.961  0.0991 -0.4750  0.5501
 5116TIP3    H136839   2.897   0.864  12.020 -0.2973 -1.2467  0.2980
 5116TIP3    H236840   2.930   0.827  11.877  0.6905  1.6802 -0.2946
 5117TIP3   OH236841   1.792   1.792   2.578 -0.1193 -0.2351  0.5576
 5117TIP3    H136842   1.698   1.798   2.563  0.0939  1.4982 -0.2394
 5117TIP3    H236843   1.802   1.715   2.634 -1.7398 -2.0703 -1.4943
 5118TIP3   OH236844   0.862   1.577   0.349 -0.0271 -0.4272 -0.2761
 5118TIP3    H136845   0.917   1.549   0.422 -0.5179  0.0923  0.3007
 5118TIP3    H236846   0.811   1.500   0.326  1.6490 -1.2470 -1.5097
 5119TIP3   OH236847   1.565   2.460  16.342 -0.4091 -0.0433  0.0222
 5119TIP3    H136848   1.529   2.523  16.404 -1.3843 -1.6223  1.1310
 5119TIP3    H236849   1.526   2.485  16.258 -1.0878  0.6076  0.5137
 5120TIP3   OH236850   1.392   2.943   0.377 -0.3409  0.0274  0.5631
 5120TIP3    H136851   1.473   2.930   0.327 -0.3401  1.0722  0.2665
 5120TIP3    H236852   1.328   2.885   0.335 -0.2891  0.7488 -0.5458
 5121TIP3   OH236853   3.061   6.024   5.280  0.4298  0.2990  0.0378
 5121TIP3    H136854   3.124   6.031   5.351  1.3502  1.0122 -0.8185
 5121TIP3    H236855   2.996   6.092   5.300 -0.2430 -0.6046  1.0545
 5122TIP3   OH236856   3.119   3.186   5.938 -0.4368  0.1497  0.3257
 5122TIP3    H136857   3.097   3.127   5.866 -0.0125  0.0497  0.2786
 5122TIP3    H236858   3.042   3.185   5.994  0.2498 -1.8854  1.2902
 5123TIP3   OH236859   6.254   3.446  14.279  0.3322  0.0158  0.4515
 5123TIP3    H136860   6.225   3.534  14.254  2.9097  1.1744  1.2144
 5123TIP3    H236861   6.192   3.418  14.347 -0.0386  1.6111  0.7979
 5124TIP3   OH236862   5.359   5.229  14.200  0.3413  0.1464 -0.2632
 5124TIP3    H136863   5.432   5.280  14.235  0.6303 -1.1922  1.2187
 5124TIP3    H236864   5.395   5.183  14.125  0.6217  0.5870 -0.4008
 5125TIP3   OH236865   0.333   0.142  12.154 -0.4154  0.0851  0.0781
 5125TIP3    H136866   0.357   0.101  12.071  0.5705 -0.8971  0.8218
 5125TIP3    H236867   0.360   0.233  12.144  0.1023 -0.1258 -0.5269
 5126TIP3   OH236868   3.493   4.004   0.327  0.2058 -0.2740  0.0838
 5126TIP3    H136869   3.417   4.011   0.385  1.7554 -2.7762  2.6911
 5126TIP3    H236870   3.468   3.936   0.264 -0.1189 -0.2897  0.2277
 5127TIP3   OH236871   0.928   2.617   5.344 -0.4544  0.0957  1.0659
 5127TIP3    H136872   0.853   2.676   5.357 -0.3943  0.6181 -0.6834
 5127TIP3    H236873   0.976   2.656   5.272 -0.7833 -2.4286 -0.6309
 5128TIP3   OH236874   0.921   1.816  16.907 -0.4347  0.3440  0.0138
 5128TIP3    H136875   0.896   1.743  16.964  0.3519 -1.8597 -2.2765
 5128TIP3    H236876   1.014   1.829  16.924 -0.0277 -0.8014 -1.1913
 5129TIP3   OH236877   5.780   2.848   4.917 -0.1523 -0.2957 -0.3516
 5129TIP3    H136878   5.868   2.821   4.941  0.6583 -0.4882 -3.2232
 5129TIP3    H236879   5.790   2.892   4.833 -2.8476 -0.6083 -0.9330
 5130TIP3   OH236880   6.795   5.779   2.354 -0.1150  0.2135  0.3702
 5130TIP3    H136881   6.827   5.712   2.292 -0.5952  1.1193 -0.9028
 5130TIP3    H236882   6.714   5.742   2.389  0.0014 -0.1797  0.2350
 5131TIP3   OH236883   3.459   0.671   4.739 -0.0136  0.1882 -0.4932
 5131TIP3    H136884   3.418   0.604   4.794  2.0585 -1.0662 -0.3948
 5131TIP3    H236885   3.507   0.622   4.673  0.4308  1.6236 -1.2675
 5132TIP3   OH236886   0.341   2.637  16.422  0.2883  0.5895 -0.5296
 5132TIP3    H136887   0.253   2.627  16.459  0.9016  0.8645  1.0714
 5132TIP3    H236888   0.349   2.731  16.404  0.5227  0.6884  0.0637
 5133TIP3   OH236889   1.946   3.964  15.888 -0.0701  0.3087  0.2826
 5133TIP3    H136890   1.859   3.991  15.915  0.1470  0.6759  0.6191
 5133TIP3    H236891   1.993   4.046  15.874  0.3135  0.1123  0.4089
 5134TIP3   OH236892   5.603   5.599  12.824 -0.1347 -0.2904  0.0348
 5134TIP3    H136893   5.604   5.651  12.904 -1.6771 -0.1705  0.0039
 5134TIP3    H236894   5.511   5.591  12.802  0.2346 -0.8188 -1.4207
 5135TIP3   OH236895   4.086   1.309  10.619  0.0446  0.6866 -0.0698
 5135TIP3    H136896   4.000   1.267  10.608  0.0309  0.5299  0.6344
 5135TIP3    H236897   4.067   1.393  10.659  0.1314  1.1163 -0.9057
 5136TIP3   OH236898   1.880   5.078   4.152  0.2609  0.6065 -0.0975
 5136TIP3    H136899   1.795   5.053   4.116  0.5008  0.4166 -0.5479
 5136TIP3    H236900   1.873   5.061   4.246 -0.5233  1.5129  0.0188
 5137TIP3   OH236901   4.365   0.545   2.339  0.7477  0.0692 -0.9265
 5137TIP3    H136902   4.310   0.486   2.391  2.1382  1.3343  2.2621
 5137TIP3    H236903   4.433   0.488   2.303  1.2650 -0.5406  0.9120
 5138TIP3   OH236904   1.781   2.166   3.403 -0.2421 -0.0799  0.5956
 5138TIP3    H136905   1.774   2.141   3.495 -0.2844 -1.1543  0.3109
 5138TIP3    H236906   1.690   2.181   3.375 -0.2047  0.5642  0.8070
 5139TIP3   OH236907   5.574   3.239  13.687 -0.0926 -0.3713  0.0849
 5139TIP3    H136908   5.616   3.155  13.701  1.9123  0.6536  0.6818
 5139TIP3    H236909   5.645   3.297  13.659 -0.6639  1.9336  2.9245
 5140TIP3   OH236910   6.379   5.387   3.744  0.2209  0.4829 -0.5000
 5140TIP3    H136911   6.372   5.294   3.764 -0.3313  0.3952 -1.0732
 5140TIP3    H236912   6.288   5.418   3.744  0.4892  1.7541  2.9896
 5141TIP3   OH236913   1.648   2.594   1.441 -0.6468 -0.2276  0.4099
 5141TIP3    H136914   1.599   2.590   1.359 -0.1146  0.7737  0.0253
 5141TIP3    H236915   1.736   2.563   1.418 -0.4109  0.3389  0.5194
 5142TIP3   OH236916   4.058   2.431  17.079  0.7037 -0.0719  0.6680
 5142TIP3    H136917   4.064   2.515  17.125 -0.2688  0.3502  0.0679
 5142TIP3    H236918   4.127   2.377  17.118  2.7035  1.6448 -0.3088
 5143TIP3   OH236919   0.031   1.525  17.260  0.4640  0.9390  0.0323
 5143TIP3    H136920   0.076   1.445  17.233 -2.5132 -0.4762 -1.2489
 5143TIP3    H236921   0.054   1.535  17.352  0.1953 -2.0355  0.5346
 5144TIP3   OH236922   2.307   5.728  11.962  0.0089  0.0701 -0.0439
 5144TIP3    H136923   2.243   5.657  11.952  0.2859  0.0170 -1.8521
 5144TIP3    H236924   2.388   5.693  11.924 -0.5691  2.1933 -3.7605
 5145TIP3   OH236925   4.219   0.071   5.085 -0.7366  0.2279  0.2715
 5145TIP3    H136926   4.213  -0.007   5.141  0.3943  1.2669  1.9013
 5145TIP3    H236927   4.162   0.051   5.011 -0.7259 -2.0202  0.7972
 5146TIP3   OH236928   0.595   2.593   2.381 -0.6593  0.7611 -0.1555
 5146TIP3    H136929   0.655   2.537   2.430 -0.2831  4.3497  4.0865
 5146TIP3    H236930   0.652   2.645   2.325 -0.5220  0.1543 -0.5943
 5147TIP3   OH236931   3.024   2.079   2.105  0.3727 -0.2478  0.2541
 5147TIP3    H136932   3.068   2.137   2.043  0.3776  0.7372  1.1540
 5147TIP3    H236933   3.015   1.996   2.058  3.1181 -0.4821 -0.0028
 5148TIP3   OH236934   2.578   6.231   4.607  0.1335  0.5864  0.3685
 5148TIP3    H136935   2.566   6.136   4.617  0.9701  0.2169 -1.5644
 5148TIP3    H236936   2.649   6.253   4.667  0.6486 -0.2315  0.0750
 5149TIP3   OH236937   4.072   1.101  13.856  0.4801 -0.0056 -0.5218
 5149TIP3    H136938   4.057   1.194  13.874 -0.3369 -0.2529  0.1051
 5149TIP3    H236939   3.985   1.063  13.853  0.8567 -1.2402  1.8346
 5150TIP3   OH236940   6.492   4.641   4.627  0.0245  0.5378 -0.3964
 5150TIP3    H136941   6.572   4.612   4.583  0.4388  0.8595  0.1303
 5150TIP3    H236942   6.484   4.582   4.703 -2.0785 -1.7299 -2.2165
 5151TIP3   OH236943   4.817   4.400  16.702 -0.2749 -0.3006 -0.8261
 5151TIP3    H136944   4.723   4.385  16.701  0.0749 -2.9887 -1.6566
 5151TIP3    H236945   4.850   4.343  16.772  0.6872  1.1914 -0.0122
 5152TIP3   OH236946   1.870   0.961  12.575  0.3736  0.1047  0.2127
 5152TIP3    H136947   1.806   1.019  12.615  1.1368  0.4783  0.9199
 5152TIP3    H236948   1.874   0.990  12.484  0.0127  0.4983  0.3166
 5153TIP3   OH236949   1.856   6.259  13.050  0.6179  0.4149  0.1666
 5153TIP3    H136950   1.938   6.263  13.000 -1.0006 -2.6932 -3.1166
 5153TIP3    H236951   1.799   6.323  13.008  0.6666  1.1400  1.1633
 5154TIP3   OH236952   1.910   2.587   1.043  0.6584  0.7230  0.6541
 5154TIP3    H136953   1.984   2.615   0.989 -1.8561  2.6057 -2.1039
 5154TIP3    H236954   1.874   2.669   1.077 -0.1455 -0.1621  2.0290
 5155TIP3   OH236955   1.063   6.226  15.729 -0.3974  0.5380 -0.2584
 5155TIP3    H136956   1.068   6.176  15.810 -0.8531  1.3488  0.2915
 5155TIP3    H236957   0.971   6.221  15.704 -0.8289  2.4685  0.7349
 5156TIP3   OH236958   4.212   5.402   0.217  0.1350 -0.6061 -0.1615
 5156TIP3    H136959   4.272   5.474   0.236 -0.5166 -0.1303  0.1455
 5156TIP3    H236960   4.143   5.410   0.283  0.0703 -1.5384 -0.1015
 5157TIP3   OH236961   2.644   1.577  16.336  0.0145  0.1891  0.0789
 5157TIP3    H136962   2.646   1.549  16.244  1.0228  1.3184 -0.2664
 5157TIP3    H236963   2.723   1.540  16.375  0.4181  1.0209  0.0720
 5158TIP3   OH236964   2.425   4.902   3.598  0.0569 -0.2479 -0.4352
 5158TIP3    H136965   2.375   4.943   3.668 -0.2052  1.8124 -1.7638
 5158TIP3    H236966   2.494   4.854   3.643 -1.5690 -1.0682  1.3110
 5159TIP3   OH236967   4.148   0.886  12.814 -0.0626  0.3565  0.4376
 5159TIP3    H136968   4.192   0.826  12.874  0.3984  1.0657  0.8182
 5159TIP3    H236969   4.094   0.941  12.871 -0.7324  0.1023  0.0603
 5160TIP3   OH236970   0.705   5.921  12.361  0.2439  0.4367  0.1876
 5160TIP3    H136971   0.785   5.946  12.314  1.1258 -1.4979  0.5510
 5160TIP3    H236972   0.733   5.849  12.418 -1.4218  0.8399  1.5724
 5161TIP3   OH236973   0.431   4.963  15.478  0.3076 -0.0736 -0.6624
 5161TIP3    H136974   0.418   4.880  15.524  2.0975 -0.1671 -0.2747
 5161TIP3    H236975   0.344   4.984  15.443 -0.7835 -0.7641  1.4498
 5162TIP3   OH236976   0.077   6.463   1.802 -0.1794  0.6152  0.7137
 5162TIP3    H136977   0.158   6.414   1.794 -1.5500 -1.5710 -0.7084
 5162TIP3    H236978   0.051   6.454   1.894  0.5705  0.3455  0.8999
 5163TIP3   OH236979   5.236   1.112   1.446  0.1463 -0.1271 -0.3180
 5163TIP3    H136980   5.197   1.194   1.416 -0.8799 -0.3647  0.3000
 5163TIP3    H236981   5.287   1.081   1.371  1.7109  1.7460 -0.0980
 5164TIP3   OH236982   3.299   1.811   5.853 -0.5850  0.3134 -0.0673
 5164TIP3    H136983   3.327   1.750   5.922  2.6640  1.2685 -0.3701
 5164TIP3    H236984   3.267   1.754   5.783 -1.7155 -0.7867  1.2932
 5165TIP3   OH236985   5.095   1.406  14.908 -0.0124 -0.1521  0.1603
 5165TIP3    H136986   5.180   1.405  14.951  1.0829 -2.5102 -1.8261
 5165TIP3    H236987   5.116   1.399  14.815 -2.3737  1.0401 -0.5382
 5166TIP3   OH236988   2.627   6.127   3.049 -0.3410 -0.0164  0.1889
 5166TIP3    H136989   2.552   6.071   3.030 -1.2983  0.9938  0.8251
 5166TIP3    H236990   2.620   6.199   2.986 -1.6376  1.6072  2.0689
 5167TIP3   OH236991   3.622   0.384  12.801  0.0500  0.0884 -0.0886
 5167TIP3    H136992   3.563   0.380  12.877 -0.5482 -1.7681 -0.5991
 5167TIP3    H236993   3.563   0.385  12.726  0.6604 -0.2861 -0.5776
 5168TIP3   OH236994   5.616   1.586   5.216  0.3115 -0.3565 -0.0719
 5168TIP3    H136995   5.676   1.626   5.279 -1.0788  0.4963  0.7812
 5168TIP3    H236996   5.599   1.498   5.251  0.1890 -0.1866  0.2987
 5169TIP3   OH236997   3.170   0.195  15.874 -0.1462  0.0989  0.1778
 5169TIP3    H136998   3.228   0.153  15.937 -1.1674 -1.5241  0.1038
 5169TIP3    H236999   3.229   0.247  15.818  1.1903 -1.1604  0.3522
 5170TIP3   OH237000   1.921   2.227   0.179  0.3608  0.2192 -0.6749
 5170TIP3    H137001   1.953   2.296   0.120 -0.8605  0.4181 -1.1413
 5170TIP3    H237002   1.913   2.150   0.124  0.2849  0.1106 -0.5116
 5171TIP3   OH237003   5.476   4.373  14.883 -0.1272  0.6128  0.0874
 5171TIP3    H137004   5.421   4.366  14.804 -1.1679  0.9469  0.7597
 5171TIP3    H237005   5.475   4.466  14.905 -1.8515  0.2557  1.8263
 5172TIP3   OH237006   4.583   5.807  15.792 -0.7022 -0.2106  0.1927
 5172TIP3    H137007   4.605   5.895  15.822  0.0338 -0.6774  1.0646
 5172TIP3    H237008   4.534   5.821  15.711  0.4214  0.9557 -0.3223
 5173TIP3   OH237009   1.874   0.045  13.273 -0.2872 -0.5844  0.7959
 5173TIP3    H137010   1.853   0.134  13.302 -0.2300  0.5529 -2.3263
 5173TIP3    H237011   1.803  -0.009  13.310 -1.2810  1.0231  1.3403
 5174TIP3   OH237012   4.609   3.827  11.369 -0.2492  0.3497 -0.6050
 5174TIP3    H137013   4.679   3.832  11.434 -1.0148 -3.0019  0.6866
 5174TIP3    H237014   4.654   3.806  11.287  0.4633  1.6348 -0.5786
 5175TIP3   OH237015   6.640   6.760  15.078  0.1755 -0.1643  0.4997
 5175TIP3    H137016   6.668   6.833  15.133  0.7165 -0.5948  0.7996
 5175TIP3    H237017   6.582   6.708  15.134 -0.7744  0.4028  0.0674
 5176TIP3   OH237018   3.723   3.313  14.218  0.0814 -0.1334  0.6965
 5176TIP3    H137019   3.735   3.274  14.304 -1.8753 -0.7052  0.7563
 5176TIP3    H237020   3.632   3.296  14.196  0.8056 -1.1367 -2.0372
 5177TIP3   OH237021   4.884   6.314  13.187  0.4527 -0.0715 -0.2520
 5177TIP3    H137022   4.954   6.278  13.242  1.0331  0.5264 -0.5987
 5177TIP3    H237023   4.862   6.244  13.126 -0.2388 -0.7705  0.7578
 5178TIP3   OH237024   1.141   3.306   3.563  0.0658  0.0290  0.5162
 5178TIP3    H137025   1.180   3.242   3.503 -2.0114  0.8918 -1.9694
 5178TIP3    H237026   1.215   3.350   3.604  1.5997 -1.1174 -0.9134
 5179TIP3   OH237027   4.656   6.561   4.415 -0.4541 -0.0973 -0.2518
 5179TIP3    H137028   4.674   6.467   4.422 -0.8735 -0.1243  0.7494
 5179TIP3    H237029   4.561   6.568   4.424 -0.4923  0.3730 -0.9932
 5180TIP3   OH237030   4.831   2.791  11.450 -0.7175  0.0087 -0.3424
 5180TIP3    H137031   4.872   2.709  11.480 -0.5808 -0.6089 -2.1189
 5180TIP3    H237032   4.751   2.764  11.406 -1.4692  0.9764  0.3836
 5181TIP3   OH237033   0.610   1.916   2.249 -0.1083  0.0891  0.1055
 5181TIP3    H137034   0.699   1.949   2.237 -0.9601  2.5441 -0.1128
 5181TIP3    H237035   0.563   1.988   2.293 -1.6433 -1.6893  1.5931
 5182TIP3   OH237036   5.240   0.008  16.824 -0.5487  0.2936  0.1524
 5182TIP3    H137037   5.319   0.033  16.776 -0.0121 -0.3460  0.6733
 5182TIP3    H237038   5.270  -0.002  16.915 -1.0810 -0.6191  0.2415
 5183TIP3   OH237039   0.184   2.562   5.558  0.1558 -0.5409  0.4012
 5183TIP3    H137040   0.184   2.577   5.464 -0.5652 -1.5757  0.2204
 5183TIP3    H237041   0.255   2.617   5.591  0.3706 -0.1144 -0.7315
 5184TIP3   OH237042   1.390   2.290  16.751  0.2265  0.4460  0.6344
 5184TIP3    H137043   1.350   2.360  16.698 -2.1440 -0.2886  1.3006
 5184TIP3    H237044   1.443   2.336  16.816  0.2290  1.5253 -0.0995
 5185TIP3   OH237045   2.986   0.663  10.865  0.4036 -0.5375  0.4139
 5185TIP3    H137046   2.891   0.658  10.874  0.4310  1.1116  2.1968
 5185TIP3    H237047   2.999   0.717  10.787 -0.1384 -0.1204  0.6024
 5186TIP3   OH237048   1.903   0.953  15.909 -0.1482  0.3606  0.2409
 5186TIP3    H137049   1.859   0.928  15.828  2.4971 -2.4281 -0.5252
 5186TIP3    H237050   1.835   0.947  15.976 -1.5207 -1.2829 -1.1890
 5187TIP3   OH237051   2.969   1.652   4.690 -0.3192  0.1989  0.0786
 5187TIP3    H137052   2.937   1.564   4.710  0.9883 -0.5730 -1.0129
 5187TIP3    H237053   2.911   1.684   4.621 -0.8081  0.2068  0.4882
 5188TIP3   OH237054   1.666   2.800  16.251  0.0661  0.4288 -0.3680
 5188TIP3    H137055   1.665   2.873  16.189  1.9248  0.2839 -0.6357
 5188TIP3    H237056   1.634   2.725  16.200  1.0956  0.4209 -1.0414
 5189TIP3   OH237057   6.109   3.724   1.506  0.5205  0.0900  0.2149
 5189TIP3    H137058   6.116   3.634   1.537  0.3270  0.4437  1.3363
 5189TIP3    H237059   6.150   3.723   1.419 -0.6766 -1.3538 -0.3751
 5190TIP3   OH237060   1.678   4.483  14.891 -0.2072 -0.1994 -0.2203
 5190TIP3    H137061   1.626   4.426  14.948  2.3615  0.6366  3.3252
 5190TIP3    H237062   1.728   4.422  14.837 -1.6577 -1.0823 -0.6347
 5191TIP3   OH237063   4.318   0.739  12.978  0.3414  0.2876  0.1696
 5191TIP3    H137064   4.407   0.768  12.997  0.4335  0.8646 -1.0164
 5191TIP3    H237065   4.294   0.682  13.051  1.0514  1.4575  1.3375
 5192TIP3   OH237066   3.172   0.668  17.165  0.0202  0.0831 -0.4592
 5192TIP3    H137067   3.145   0.682  17.256  0.0004  1.6483 -0.6736
 5192TIP3    H237068   3.143   0.579  17.145 -1.7977  0.4164  0.4513
 5193TIP3   OH237069   3.371   2.765   2.542  0.4347  0.0488  0.2259
 5193TIP3    H137070   3.408   2.791   2.458  0.8288 -0.2083  0.3206
 5193TIP3    H237071   3.432   2.800   2.607  0.7276 -0.7140  0.3708
 5194TIP3   OH237072   0.507   1.447  11.587  0.0994 -0.5690 -0.0976
 5194TIP3    H137073   0.571   1.389  11.545 -0.6307 -1.1724 -0.4054
 5194TIP3    H237074   0.502   1.415  11.677 -1.9861 -2.5469 -0.8149
 5195TIP3   OH237075   6.506   3.163  12.399 -0.3396  0.2197 -0.3505
 5195TIP3    H137076   6.514   3.226  12.471  0.1811  0.4701 -0.6241
 5195TIP3    H237077   6.596   3.147  12.371 -0.5288 -0.0221 -0.8224
 5196TIP3   OH237078   1.101   0.141  17.271  0.6721 -0.6686  0.0316
 5196TIP3    H137079   1.144   0.205  17.328  0.4485  1.1311 -1.6711
 5196TIP3    H237080   1.008   0.160  17.280  0.5053 -1.6320  0.4461
 5197TIP3   OH237081   1.582   3.648   5.677  0.0817  0.3289 -0.0996
 5197TIP3    H137082   1.538   3.651   5.762  1.1896 -0.4697  0.5417
 5197TIP3    H237083   1.550   3.725   5.630 -0.8067  0.5985  0.9131
 5198TIP3   OH237084   4.468   1.517  15.736  0.1827 -0.5213  0.0972
 5198TIP3    H137085   4.529   1.465  15.683 -0.8627 -0.8896 -0.7757
 5198TIP3    H237086   4.471   1.475  15.822  1.9408  0.1196  0.3795
 5199TIP3   OH237087   0.824   4.183  17.085 -0.3064 -0.5681  0.3421
 5199TIP3    H137088   0.801   4.247  17.153  2.1444  1.5736 -0.6935
 5199TIP3    H237089   0.872   4.115  17.132 -0.2029 -0.0413  1.0129
 5200TIP3   OH237090   2.100   3.340  13.989  0.0535 -0.0542 -0.1374
 5200TIP3    H137091   2.194   3.350  14.004  0.2785  1.7208 -2.1179
 5200TIP3    H237092   2.068   3.295  14.066  2.3709  0.2156  1.0853
 5201TIP3   OH237093   4.846   2.999   5.298 -0.0478  0.1794  0.1840
 5201TIP3    H137094   4.826   3.000   5.391 -0.1363 -1.2647  0.2173
 5201TIP3    H237095   4.917   2.935   5.289 -2.3204 -2.4111 -1.0561
 5202TIP3   OH237096   5.673   3.459  14.804 -0.6324 -0.2307  0.3065
 5202TIP3    H137097   5.625   3.443  14.885 -0.2298 -0.6475  0.4641
 5202TIP3    H237098   5.763   3.431  14.823 -1.1448 -3.4796 -1.2464
 5203TIP3   OH237099   6.335   0.827  13.995 -0.1249 -0.0709  0.3020
 5203TIP3    H137100   6.293   0.854  14.077 -0.4231 -1.1394  0.5192
 5203TIP3    H237101   6.267   0.776  13.949  0.1580  0.2107 -0.4500
 5204TIP3   OH237102   1.001   3.951   3.435  0.4999  0.1631 -0.1668
 5204TIP3    H137103   0.921   3.986   3.395  0.3642 -1.0367 -0.9976
 5204TIP3    H237104   0.978   3.941   3.528 -0.1508  0.2987 -0.3043
 5205TIP3   OH237105   2.514   4.325  12.828 -0.0505 -0.0252 -0.2865
 5205TIP3    H137106   2.498   4.256  12.764 -2.4291  0.1979 -0.0339
 5205TIP3    H237107   2.486   4.405  12.785  1.1609  0.5890  0.0096
 5206TIP3   OH237108   4.578   2.446  12.237 -0.1443  0.2956  0.4484
 5206TIP3    H137109   4.542   2.415  12.320 -0.5486  0.4181  0.3229
 5206TIP3    H237110   4.522   2.405  12.171 -1.5420  2.3221  0.3030
 5207TIP3   OH237111   1.763   3.865  10.804  0.1131  0.1437  0.3322
 5207TIP3    H137112   1.718   3.861  10.888  0.8754  0.8903  0.7874
 5207TIP3    H237113   1.831   3.798  10.811  1.0752  1.1461  0.8688
 5208TIP3   OH237114   3.144   3.959  14.636  0.2876 -0.4763 -0.6020
 5208TIP3    H137115   3.225   3.911  14.651  1.4909  0.8787 -2.2148
 5208TIP3    H237116   3.129   3.952  14.541 -2.2905 -1.8446 -0.1697
 5209TIP3   OH237117   2.437   1.536  14.904 -0.5519 -0.3919 -0.0606
 5209TIP3    H137118   2.436   1.589  14.824 -0.3595 -1.0056 -0.4805
 5209TIP3    H237119   2.464   1.597  14.973 -2.2010  0.5252 -0.1757
 5210TIP3   OH237120   6.327   0.290  12.990  0.2888  0.0360 -0.3280
 5210TIP3    H137121   6.252   0.249  12.947  0.4699  0.4267 -1.0396
 5210TIP3    H237122   6.397   0.286  12.924  0.5970  0.5806 -0.0425
 5211TIP3   OH237123   6.628   5.174   1.605  0.0805  0.1380  0.4505
 5211TIP3    H137124   6.713   5.158   1.565 -0.3138  0.7944 -0.7212
 5211TIP3    H237125   6.610   5.097   1.658  0.8079 -0.6025 -0.3589
 5212TIP3   OH237126   1.038   2.767  17.037 -0.5316 -0.1663 -0.5412
 5212TIP3    H137127   0.995   2.691  17.076  3.7477 -3.1897 -0.9433
 5212TIP3    H237128   1.086   2.807  17.109 -0.1184  0.1087 -0.9646
 5213TIP3   OH237129   2.613   5.663  14.477  0.5575  0.4150 -0.5011
 5213TIP3    H137130   2.654   5.686  14.561  1.4966  2.0968 -1.3875
 5213TIP3    H237131   2.682   5.675  14.412 -0.3595 -0.1884 -1.6255
 5214TIP3   OH237132   0.856   0.344   4.340  0.4412  0.6022  0.2319
 5214TIP3    H137133   0.851   0.390   4.255 -1.7189 -2.0551 -1.2386
 5214TIP3    H237134   0.803   0.266   4.327  1.7268 -0.9403  3.4648
 5215TIP3   OH237135   1.496   1.510  14.379 -0.3712 -0.2889  0.1715
 5215TIP3    H137136   1.430   1.484  14.443 -1.2423 -0.9564 -0.9478
 5215TIP3    H237137   1.479   1.603  14.364  0.3336  0.0677  1.4416
 5216TIP3   OH237138   6.223   3.068   1.924  0.3547 -0.0706 -0.3616
 5216TIP3    H137139   6.303   3.106   1.887  0.6695 -0.8996 -0.5443
 5216TIP3    H237140   6.218   2.980   1.886 -1.2863  0.3928 -1.3077
 5217TIP3   OH237141   3.072   3.602  11.627  0.6122  0.2559  0.4309
 5217TIP3    H137142   3.141   3.652  11.672  1.7708 -1.6750  0.9362
 5217TIP3    H237143   3.118   3.558  11.555 -0.8753  1.8838 -1.6183
 5218TIP3   OH237144   0.768   0.885  13.058 -0.4587 -0.2140 -0.0668
 5218TIP3    H137145   0.690   0.852  13.014 -0.6024 -2.2933  1.5519
 5218TIP3    H237146   0.825   0.913  12.987 -2.8445  1.9687 -1.2893
 5219TIP3   OH237147   3.009   4.384  11.243 -0.2741 -0.8943 -0.0945
 5219TIP3    H137148   3.016   4.293  11.216  1.8658 -0.4406 -1.3061
 5219TIP3    H237149   3.049   4.434  11.172  1.7802  0.7048  2.0071
 5220TIP3   OH237150   6.034   6.644  15.500  0.2170 -0.3075 -0.4187
 5220TIP3    H137151   5.939   6.647  15.485  0.4339  0.9131 -1.8544
 5220TIP3    H237152   6.043   6.657  15.594 -1.0531 -0.4980 -0.2457
 5221TIP3   OH237153   5.050   0.511   3.187 -0.8591 -0.8660 -0.6671
 5221TIP3    H137154   4.991   0.445   3.151 -2.0136 -0.3024  0.1221
 5221TIP3    H237155   5.081   0.474   3.269 -0.2068 -1.1050 -1.0166
 5222TIP3   OH237156   6.655   6.576  12.708  0.3070 -0.2558  0.1724
 5222TIP3    H137157   6.626   6.666  12.694  1.1279 -0.0293 -0.1299
 5222TIP3    H237158   6.660   6.538  12.620 -0.3113 -0.6882  0.3176
 5223TIP3   OH237159   5.124   6.607   2.804 -0.1096  0.1663  0.2410
 5223TIP3    H137160   5.131   6.615   2.709  0.3315 -0.0840  0.2497
 5223TIP3    H237161   5.044   6.556   2.818 -0.1025  0.0868 -0.0014
 5224TIP3   OH237162   2.176   0.923  11.732  0.1388  0.1458  0.2372
 5224TIP3    H137163   2.130   0.995  11.775 -0.4711  0.3690 -0.7563
 5224TIP3    H237164   2.120   0.846  11.747 -0.5559  0.4049 -0.9169
 5225TIP3   OH237165   3.749   5.844   5.802  0.1644 -0.1524 -0.7470
 5225TIP3    H137166   3.665   5.824   5.842  0.0719  1.4077 -0.0941
 5225TIP3    H237167   3.807   5.861   5.877  0.3077  1.5855 -1.2201
 5226TIP3   OH237168   1.488   3.981   5.274 -0.4116  0.4433  0.7132
 5226TIP3    H137169   1.452   3.976   5.185 -0.0186  0.7715  0.5356
 5226TIP3    H237170   1.508   4.073   5.287  0.2850  0.2794  0.8460
 5227TIP3   OH237171   1.625   2.528  15.451  0.6985 -0.1589 -0.0398
 5227TIP3    H137172   1.608   2.475  15.373 -0.5858 -1.0000  0.7686
 5227TIP3    H237173   1.554   2.591  15.453  0.9630  0.1331  0.2239
 5228TIP3   OH237174   0.506   3.141   2.137  0.8280  0.2017  0.1694
 5228TIP3    H137175   0.529   3.157   2.045 -0.9809  0.5351 -0.2843
 5228TIP3    H237176   0.495   3.046   2.142 -0.5466  0.3010 -0.3958
 5229TIP3   OH237177   0.206   2.447   4.900  0.0681  0.1165  0.0427
 5229TIP3    H137178   0.224   2.358   4.871 -0.2143  0.6165 -1.7776
 5229TIP3    H237179   0.274   2.501   4.860 -0.7820  0.9504 -0.3239
 5230TIP3   OH237180   5.028   5.978  13.819  0.3047 -0.1577 -0.4202
 5230TIP3    H137181   5.026   6.008  13.728 -1.1925 -0.1884 -0.4289
 5230TIP3    H237182   5.039   6.058  13.871 -2.4379  0.3745 -0.5029
 5231TIP3   OH237183   1.637   2.198  12.308  0.1832  0.5013  0.1797
 5231TIP3    H137184   1.575   2.176  12.239  0.3441  2.6760 -0.7528
 5231TIP3    H237185   1.593   2.267  12.358  1.2638  1.0651  0.3868
 5232TIP3   OH237186   1.141   1.809  15.118 -0.2489  0.1608  0.4276
 5232TIP3    H137187   1.187   1.748  15.060  0.3434  0.4257  0.6081
 5232TIP3    H237188   1.069   1.758  15.154  0.2742 -0.4553  0.6267
 5233TIP3   OH237189   5.195   0.996   5.962  0.0513 -0.0268 -0.1176
 5233TIP3    H137190   5.232   0.951   5.886  0.3483 -1.2593  0.7197
 5233TIP3    H237191   5.103   1.010   5.939  0.0150 -0.8337 -0.5197
 5234TIP3   OH237192   6.508   1.855  13.658 -0.2644  0.3982  0.5701
 5234TIP3    H137193   6.550   1.883  13.576  0.5856 -1.2111  0.4138
 5234TIP3    H237194   6.415   1.877  13.646 -0.1826  0.0610 -0.9067
 5235TIP3   OH237195   3.527   4.708  12.250 -0.3383  0.0778 -0.4877
 5235TIP3    H137196   3.560   4.625  12.217 -0.9312 -0.3743  0.0200
 5235TIP3    H237197   3.540   4.770  12.179  1.3481 -0.1305 -0.4074
 5236TIP3   OH237198   3.901   2.230  11.546  0.2988  0.0945  0.4597
 5236TIP3    H137199   3.897   2.165  11.475 -1.0042 -0.3130  0.8897
 5236TIP3    H237200   3.868   2.311  11.506  0.7537  0.1951  0.2717
 5237TIP3   OH237201   2.541   3.873   0.568 -0.1094 -0.1372 -0.1717
 5237TIP3    H137202   2.484   3.797   0.578  0.9724 -1.0434 -0.7325
 5237TIP3    H237203   2.496   3.929   0.505 -0.9316 -0.2814  0.2770
 5238TIP3   OH237204   5.422   3.758   5.571 -0.1433  0.4419  0.1725
 5238TIP3    H137205   5.362   3.832   5.564 -0.7574 -0.1509 -1.2478
 5238TIP3    H237206   5.366   3.680   5.563  0.6591 -0.1390  0.0809
 5239TIP3   OH237207   0.772   4.856   2.655  0.3506 -0.8045 -0.4595
 5239TIP3    H137208   0.696   4.806   2.685  0.4133 -0.9097 -0.4731
 5239TIP3    H237209   0.780   4.928   2.717 -0.0673 -0.4994 -0.7536
 5240TIP3   OH237210   4.209   3.474  16.996  0.5861  0.6044 -0.9355
 5240TIP3    H137211   4.133   3.500  16.944 -0.1651  1.0781  0.3514
 5240TIP3    H237212   4.176   3.470  17.086  1.6345 -1.0176 -0.5798
 5241TIP3   OH237213   0.649   3.896   4.203 -0.2572  0.3941 -0.0619
 5241TIP3    H137214   0.737   3.858   4.193 -1.3990 -2.1235 -1.7200
 5241TIP3    H237215   0.664   3.982   4.241  3.2147  1.4405 -3.2211
 5242TIP3   OH237216   3.750   0.094  12.323  0.1012  0.4501  0.7650
 5242TIP3    H137217   3.678   0.141  12.280  1.3969  2.3704  0.5699
 5242TIP3    H237218   3.745   0.120  12.415 -1.1440 -1.6838  1.3512
 5243TIP3   OH237219   2.097   3.740  14.326  0.0506  0.5889 -0.6413
 5243TIP3    H137220   2.110   3.798  14.252  1.6913  0.1998 -0.6936
 5243TIP3    H237221   2.183   3.700  14.342 -0.3434  0.3514  1.2099
 5244TIP3   OH237222   2.717   3.453  17.026 -0.4731 -0.5281 -0.0660
 5244TIP3    H137223   2.734   3.406  17.108  2.6211  0.3789 -0.0782
 5244TIP3    H237224   2.651   3.518  17.050 -0.0728 -0.6775  1.5719
 5245TIP3   OH237225   4.326   4.913  13.924  0.4663 -0.0997  0.2242
 5245TIP3    H137226   4.375   4.893  13.844  0.8915  0.0982  0.4359
 5245TIP3    H237227   4.367   4.860  13.992 -0.1297 -0.5466  0.2437
 5246TIP3   OH237228   2.187   2.254   5.191  0.4575 -0.3109  0.3032
 5246TIP3    H137229   2.113   2.280   5.246 -0.4798  1.6953 -1.7662
 5246TIP3    H237230   2.257   2.233   5.254 -1.0211  0.3186  2.2703
 5247TIP3   OH237231   0.791   2.162   4.756  0.3852 -0.6661 -0.3538
 5247TIP3    H137232   0.758   2.238   4.805  0.3494 -2.0031  1.8094
 5247TIP3    H237233   0.741   2.163   4.674 -3.4986 -1.2452  1.7888
 5248TIP3   OH237234   1.968   2.259   1.907  0.1266 -0.2000  0.7004
 5248TIP3    H137235   1.917   2.238   1.829  1.1768 -0.0806 -0.0458
 5248TIP3    H237236   1.954   2.186   1.966  0.2911 -0.8951 -0.1043
 5249TIP3   OH237237   4.931   1.702  15.919 -0.0292  0.0433  0.5266
 5249TIP3    H137238   5.010   1.652  15.902  0.4126  0.9894 -0.3214
 5249TIP3    H237239   4.914   1.689  16.012  1.8348  0.8048  1.0162
 5250TIP3   OH237240   1.254   5.951   3.944  0.0063  0.3555  0.1676
 5250TIP3    H137241   1.171   5.970   3.987 -0.3045 -0.9633  0.1873
 5250TIP3    H237242   1.247   5.994   3.858 -0.4057  0.8238  0.4304
 5251TIP3   OH237243   1.081   1.356  12.552 -0.0501 -0.0575 -0.0963
 5251TIP3    H137244   1.113   1.307  12.628  1.2369 -1.1816 -1.3103
 5251TIP3    H237245   1.039   1.290  12.497 -1.7844  0.8980  0.0198
 5252TIP3   OH237246   0.624   0.127  12.668 -0.2905  0.3855 -0.2334
 5252TIP3    H137247   0.564   0.128  12.743  0.4073 -0.1504  0.3473
 5252TIP3    H237248   0.567   0.125  12.591 -1.0382 -1.2360  0.3234
 5253TIP3   OH237249   6.533   1.168   1.901 -0.6633  0.2322 -0.2705
 5253TIP3    H137250   6.503   1.226   1.830  0.1170  1.4906  0.3932
 5253TIP3    H237251   6.605   1.119   1.863  0.1037  1.2871 -0.2266
 5254TIP3   OH237252   0.626   0.681   4.130  0.3328  0.0095  0.1440
 5254TIP3    H137253   0.715   0.665   4.097  0.3348  0.2787  0.0141
 5254TIP3    H237254   0.576   0.704   4.051  0.0115 -0.7026  0.1290
 5255TIP3   OH237255   4.888   2.664  13.426 -0.4491 -0.0636  0.1842
 5255TIP3    H137256   4.975   2.624  13.436  0.6586  2.3049  0.7322
 5255TIP3    H237257   4.873   2.664  13.332  1.6449  2.2651 -0.2642
 5256TIP3   OH237258   3.847   1.663   0.382 -0.9833  0.5279 -0.0261
 5256TIP3    H137259   3.799   1.667   0.464 -0.4733 -0.7771  0.3654
 5256TIP3    H237260   3.822   1.578   0.344  2.2234 -1.0532  1.0202
 5257TIP3   OH237261   2.732   3.043   1.533 -0.4006  0.1340  0.1521
 5257TIP3    H137262   2.713   3.060   1.441  1.2716  3.1022  0.2211
 5257TIP3    H237263   2.774   2.957   1.534  0.0362  0.2747 -1.9675
 5258TIP3   OH237264   1.161   3.312  12.064 -0.0255 -0.2469 -0.1827
 5258TIP3    H137265   1.244   3.347  12.097 -0.3744 -0.5504  1.0886
 5258TIP3    H237266   1.159   3.336  11.972  0.9170  0.8313  0.0603
 5259TIP3   OH237267   1.712   3.162   3.933 -0.2780  0.0964 -0.4200
 5259TIP3    H137268   1.657   3.145   3.857 -0.6674 -1.0263  0.0804
 5259TIP3    H237269   1.777   3.091   3.931 -1.1849 -0.8502  1.0662
 5260TIP3   OH237270   3.514   2.166  15.489  0.1648 -0.0650 -0.0697
 5260TIP3    H137271   3.487   2.115  15.413 -0.0148  1.3266 -0.9720
 5260TIP3    H237272   3.471   2.122  15.563 -0.9816 -0.4989 -0.9581
 5261TIP3   OH237273   6.648   6.248   2.464 -0.2475  0.0112  0.0554
 5261TIP3    H137274   6.687   6.161   2.470 -0.2060  0.0348  0.1397
 5261TIP3    H237275   6.608   6.262   2.550 -1.5738 -0.5397 -0.4381
 5262TIP3   OH237276   5.665   4.869   2.258  0.1848  0.0580 -0.5767
 5262TIP3    H137277   5.761   4.870   2.265  0.2409 -2.2884 -0.2177
 5262TIP3    H237278   5.634   4.861   2.348 -0.2727 -0.6393 -0.7848
 5263TIP3   OH237279   3.858   3.705   2.221  0.2406 -0.0962  0.0826
 5263TIP3    H137280   3.782   3.732   2.273 -1.3816 -0.4087 -2.0059
 5263TIP3    H237281   3.852   3.610   2.218 -0.1426 -0.0511 -1.2472
 5264TIP3   OH237282   4.558   3.408  17.112  0.2758 -0.7582 -0.2678
 5264TIP3    H137283   4.581   3.500  17.121 -1.9880 -0.3114  2.0098
 5264TIP3    H237284   4.634   3.368  17.070  1.6213  1.9754 -0.6377
 5265TIP3   OH237285   0.531   2.193  11.289 -0.5111  0.3924  0.4050
 5265TIP3    H137286   0.610   2.229  11.329 -0.5338  2.3499 -1.1766
 5265TIP3    H237287   0.558   2.108  11.255  0.5445  0.4624  1.0228
 5266TIP3   OH237288   1.077   2.542  15.897 -0.5748  0.1332 -0.7196
 5266TIP3    H137289   1.006   2.477  15.906  1.4782 -2.1878 -0.2473
 5266TIP3    H237290   1.142   2.499  15.841  0.7220  1.9807 -0.7203
 5267TIP3   OH237291   5.211   5.626   5.716  0.6646  0.6695  0.5036
 5267TIP3    H137292   5.125   5.615   5.758  0.4555  1.0383  0.1857
 5267TIP3    H237293   5.272   5.636   5.788  0.5835 -0.5703  0.7618
 5268TIP3   OH237294   0.235   4.474  11.287  0.0042 -0.6337 -0.2121
 5268TIP3    H137295   0.327   4.481  11.312 -0.0371  0.2666 -0.2554
 5268TIP3    H237296   0.236   4.465  11.192  0.0105  1.8942 -0.5251
 5269TIP3   OH237297   5.130   0.202   0.083 -1.1410 -0.1643 -0.1875
 5269TIP3    H137298   5.172   0.157   0.156 -2.0626  0.1859  0.5834
 5269TIP3    H237299   5.191   0.192   0.010  0.8328  1.3323  1.1668
 5270TIP3   OH237300   3.107   2.272   0.012 -0.5428  0.2308  1.0081
 5270TIP3    H137301   3.203   2.270   0.012 -0.5436 -0.2328  0.1613
 5270TIP3    H237302   3.084   2.301  -0.076 -1.1977 -1.1451  0.6965
 5271TIP3   OH237303   6.760   4.534  14.351 -0.4302 -0.0935  0.2544
 5271TIP3    H137304   6.699   4.569  14.286 -1.7496 -1.1894  0.8664
 5271TIP3    H237305   6.716   4.545  14.435 -0.4516 -2.1747  0.5755
 5272TIP3   OH237306   0.013   4.896   0.907 -0.2106 -0.3547  0.1176
 5272TIP3    H137307   0.062   4.971   0.941 -1.3485  0.0705  0.9025
 5272TIP3    H237308   0.072   4.822   0.915  0.0472 -0.0046  1.7859
 5273TIP3   OH237309   4.228   2.328  10.570 -0.2308  0.4624  0.0219
 5273TIP3    H137310   4.243   2.235  10.552  0.1733 -0.3754  3.7406
 5273TIP3    H237311   4.136   2.342  10.546  0.0544 -0.5178 -1.7842
 5274TIP3   OH237312   0.607   2.911  13.682  0.0714 -0.3827  0.2416
 5274TIP3    H137313   0.647   2.837  13.638 -0.8845 -1.1682  0.6545
 5274TIP3    H237314   0.558   2.957  13.613 -0.6354 -1.0576  0.2828
 5275TIP3   OH237315   0.889   3.276   5.701 -0.1358  0.7113 -0.3202
 5275TIP3    H137316   0.948   3.212   5.662  2.5215  0.6954  3.2249
 5275TIP3    H237317   0.824   3.223   5.747  0.2670  0.5982  0.1259
 5276TIP3   OH237318   2.794   5.679   3.889  0.4548  0.0235 -0.2234
 5276TIP3    H137319   2.795   5.682   3.793  1.5869 -0.6263 -0.2541
 5276TIP3    H237320   2.877   5.718   3.915 -0.1348  0.7960  0.5304
 5277TIP3   OH237321   1.123   5.175   1.585 -0.4850 -0.6978 -0.5687
 5277TIP3    H137322   1.116   5.224   1.503  0.3631 -3.1769 -2.2472
 5277TIP3    H237323   1.078   5.092   1.567 -0.4165 -1.2481  1.5589
 5278TIP3   OH237324   6.225   0.555   4.230  0.2465 -0.3614 -0.0176
 5278TIP3    H137325   6.213   0.512   4.146 -1.3623 -0.4809  0.2469
 5278TIP3    H237326   6.137   0.579   4.258  0.9566  2.0160  0.4254
 5279TIP3   OH237327   3.534   1.992  11.980 -0.1701 -0.1429 -0.1054
 5279TIP3    H137328   3.582   1.981  11.897  0.3896 -0.8854  0.3076
 5279TIP3    H237329   3.581   1.937  12.042 -0.6088  0.3871  0.7065
 5280TIP3   OH237330   4.208   0.262  14.660 -0.1239 -0.0694  0.2077
 5280TIP3    H137331   4.279   0.253  14.724 -1.5944 -1.5991  1.7453
 5280TIP3    H237332   4.223   0.191  14.598  2.1596  2.2957 -2.2053
 5281TIP3   OH237333   4.421   3.451   2.289  0.0070  0.0186 -0.5247
 5281TIP3    H137334   4.423   3.376   2.348  2.9691 -0.4443 -1.0975
 5281TIP3    H237335   4.512   3.480   2.282 -1.0225  3.9665 -0.0152
 5282TIP3   OH237336   5.023   1.584   0.516 -0.4744 -0.1723 -0.5834
 5282TIP3    H137337   5.113   1.553   0.522 -0.8077 -1.2982 -1.1562
 5282TIP3    H237338   4.994   1.593   0.607 -0.8967 -3.2183 -0.3082
 5283TIP3   OH237339   4.771   6.649  16.746 -0.0171  0.3904 -0.2685
 5283TIP3    H137340   4.706   6.694  16.693  1.7880  2.1718 -1.0874
 5283TIP3    H237341   4.854   6.665  16.702  1.2211 -0.3437  1.6485
 5284TIP3   OH237342   6.437   0.747   4.238 -0.0045 -0.0289 -0.1954
 5284TIP3    H137343   6.353   0.701   4.245  0.5142 -1.2962 -1.6151
 5284TIP3    H237344   6.452   0.753   4.144 -0.4056  3.8609 -0.1668
 5285TIP3   OH237345   2.689   3.951   2.183 -0.5668  0.6226  0.6369
 5285TIP3    H137346   2.658   3.908   2.263 -3.4409  1.7857  0.2670
 5285TIP3    H237347   2.613   3.950   2.124  1.3471  0.0741 -2.0192
 5286TIP3   OH237348   6.606   0.616  11.807 -0.2653  0.3745 -0.2254
 5286TIP3    H137349   6.578   0.687  11.749  0.7845  1.1973  0.2414
 5286TIP3    H237350   6.699   0.632  11.821  0.0798 -1.2881 -0.3676
 5287TIP3   OH237351   3.293   0.389  15.711  0.1158  0.4808 -0.2182
 5287TIP3    H137352   3.382   0.417  15.690 -0.7413  3.1890 -0.6594
 5287TIP3    H237353   3.251   0.468  15.744 -2.5475 -0.3595 -1.3601
 5288TIP3   OH237354   1.821   4.227  11.638  0.2467 -0.1871 -0.2328
 5288TIP3    H137355   1.851   4.193  11.722 -0.8212 -0.5673  0.0108
 5288TIP3    H237356   1.811   4.321  11.653 -0.6285 -0.3564  0.2888
 5289TIP3   OH237357   0.671   2.908  11.415 -0.4719 -0.4012  0.4101
 5289TIP3    H137358   0.686   2.814  11.420 -0.5993 -0.5446 -1.4202
 5289TIP3    H237359   0.612   2.920  11.341  1.3539  1.2958 -0.8851
 5290TIP3   OH237360   1.788   4.766  16.330  0.1597 -0.4134  0.0218
 5290TIP3    H137361   1.834   4.769  16.414 -0.0082 -1.4433  0.1600
 5290TIP3    H237362   1.720   4.700  16.342 -1.1399  0.8026 -0.2983
 5291TIP3   OH237363   6.613   0.894   4.705  0.2957  0.4259  0.1104
 5291TIP3    H137364   6.603   0.853   4.619  2.0755 -1.2942  0.6463
 5291TIP3    H237365   6.669   0.970   4.688 -1.2823  1.4882 -0.5646
 5292TIP3   OH237366   1.145   6.474  12.176 -0.1950  0.3455  0.2479
 5292TIP3    H137367   1.224   6.520  12.148 -0.6241 -0.1236 -1.9205
 5292TIP3    H237368   1.091   6.542  12.217  0.4451  1.1024 -0.1413
 5293TIP3   OH237369   0.332   3.127   6.042  0.3964 -0.2812 -0.2075
 5293TIP3    H137370   0.348   3.078   5.962 -1.5627 -0.6437 -0.4327
 5293TIP3    H237371   0.254   3.087   6.080 -0.0268  1.3100  0.7143
 5294TIP3   OH237372   3.420   0.918   1.005 -0.2544 -0.0770  0.0509
 5294TIP3    H137373   3.387   0.993   1.054 -0.3667  0.8465 -1.3910
 5294TIP3    H237374   3.515   0.925   1.012 -0.2688  0.0897  0.0904
 5295TIP3   OH237375   6.669   0.997   3.838 -0.3667 -0.1990 -0.0777
 5295TIP3    H137376   6.721   1.032   3.911  0.8289 -1.5702 -0.2177
 5295TIP3    H237377   6.709   1.036   3.760 -1.7386  1.3820 -0.0195
 5296TIP3   OH237378   1.500   4.983  15.710 -0.7421 -0.0915  0.3804
 5296TIP3    H137379   1.496   4.988  15.805  1.8054  0.3403  0.5310
 5296TIP3    H237380   1.489   4.890  15.690 -1.7844 -0.1221  1.0397
 5297TIP3   OH237381   1.058   2.549  14.887 -0.2311  0.9085  0.2875
 5297TIP3    H137382   0.986   2.612  14.891 -1.1305  0.0187 -1.1411
 5297TIP3    H237383   1.137   2.604  14.890 -0.9460  1.9295  1.3525
 5298TIP3   OH237384   3.810   1.658  11.285  0.2927 -0.0937  0.2495
 5298TIP3    H137385   3.720   1.629  11.297  0.1085  0.4279  0.1528
 5298TIP3    H237386   3.813   1.692  11.195  0.4897  0.2158  0.3693
 5299TIP3   OH237387   4.244   0.783   2.342 -0.1779  0.4678 -0.3127
 5299TIP3    H137388   4.215   0.784   2.433 -3.0228 -1.4102 -1.0776
 5299TIP3    H237389   4.321   0.725   2.342 -0.0972  0.5533  0.8858
 5300TIP3   OH237390   5.491   4.007   0.099  0.0183  0.1598 -0.1336
 5300TIP3    H137391   5.539   3.944   0.045 -0.2387 -0.2294  0.0917
 5300TIP3    H237392   5.443   3.954   0.162 -2.7979  0.3327 -1.9358
 5301TIP3   OH237393   3.462   4.366  13.657  0.2949 -0.3874  0.0718
 5301TIP3    H137394   3.466   4.364  13.562 -1.7594 -0.4448 -0.0486
 5301TIP3    H237395   3.410   4.289  13.681  0.1732  0.0142  1.1958
 5302TIP3   OH237396   2.038   5.743   0.116 -0.4075  0.7468 -0.4767
 5302TIP3    H137397   2.051   5.768   0.207 -3.0640  1.0009 -0.0811
 5302TIP3    H237398   2.118   5.697   0.092  0.1436  0.1619  2.1567
 5303TIP3   OH237399   0.844   1.078  14.044  0.0255  0.5009 -0.1200
 5303TIP3    H137400   0.862   1.168  14.018 -0.8102  1.0619  1.1346
 5303TIP3    H237401   0.750   1.076  14.061  0.0885 -0.5230  0.1785
 5304TIP3   OH237402   0.169   5.156  13.602  0.2009  0.3943  0.3239
 5304TIP3    H137403   0.125   5.234  13.566 -0.5691  0.8104  2.0255
 5304TIP3    H237404   0.138   5.084  13.548  1.9517  1.3597 -2.1514
 5305TIP3   OH237405   3.642   0.072   4.163  0.1143  0.0885  0.1184
 5305TIP3    H137406   3.616  -0.020   4.173  1.3201 -0.2049  0.7997
 5305TIP3    H237407   3.730   0.076   4.202  1.1172  1.0187 -2.0997
 5306TIP3   OH237408   6.647   1.649  13.231  0.0208  0.2430 -0.2576
 5306TIP3    H137409   6.601   1.720  13.276 -1.7233 -1.9522  1.6548
 5306TIP3    H237410   6.690   1.600  13.301  1.7173 -0.2891 -1.5938
 5307TIP3   OH237411   2.583   6.372  12.558  0.2864 -0.3769  0.1306
 5307TIP3    H137412   2.496   6.367  12.596  0.3719 -1.3941  0.2146
 5307TIP3    H237413   2.629   6.295  12.592  1.9166  1.2117  1.8151
 5308TIP3   OH237414   0.027   6.296   0.930 -0.1775  0.2113 -0.3504
 5308TIP3    H137415  -0.044   6.275   0.990  0.4618 -0.3284  0.2477
 5308TIP3    H237416   0.056   6.383   0.958 -1.6896  1.1977 -1.7007
 5309TIP3   OH237417   1.253   3.629   0.218 -0.3438 -0.5376  0.2164
 5309TIP3    H137418   1.225   3.605   0.130 -1.2749 -0.8223  0.5759
 5309TIP3    H237419   1.180   3.681   0.253 -0.5418 -1.4429  1.2404
 5310TIP3   OH237420   1.482   6.318   4.218  0.6527  0.0181  0.0509
 5310TIP3    H137421   1.420   6.296   4.148  3.8553 -1.5294 -2.6447
 5310TIP3    H237422   1.494   6.236   4.266  1.0442  0.1265  0.1443
 5311TIP3   OH237423   1.055   3.239   5.274  0.9142 -0.4688 -0.2364
 5311TIP3    H137424   1.018   3.326   5.261  1.3645 -0.3122 -0.4871
 5311TIP3    H237425   0.985   3.189   5.317 -1.0520 -1.2769 -3.9131
 5312TIP3   OH237426   3.620   3.957   1.118  0.5893 -0.3792 -0.1409
 5312TIP3    H137427   3.662   3.886   1.069  1.1563 -0.4351  0.4057
 5312TIP3    H237428   3.647   3.942   1.208 -2.0033 -1.4365  0.5664
 5313TIP3   OH237429   6.035   6.815  13.589  0.3157 -0.7906 -0.6605
 5313TIP3    H137430   6.083   6.733  13.580  2.6478  0.6630 -2.4784
 5313TIP3    H237431   6.055   6.864  13.509 -2.4878  0.8529 -0.4993
 5314TIP3   OH237432   4.019   1.234   1.738  0.5230  0.1386 -0.0005
 5314TIP3    H137433   4.053   1.300   1.677 -0.0375  1.3377  0.9209
 5314TIP3    H237434   4.096   1.206   1.788  0.4992  1.6277  0.9598
 5315TIP3   OH237435   5.476   2.923  13.290 -0.5049 -0.4800 -0.0483
 5315TIP3    H137436   5.498   2.922  13.196 -0.0447  1.2613  0.0055
 5315TIP3    H237437   5.434   3.008  13.304  0.0717 -0.4129  1.4633
 5316TIP3   OH237438   4.386   1.006   5.384  0.0064 -0.4211 -1.1543
 5316TIP3    H137439   4.467   1.055   5.395 -0.0432 -0.2614 -1.5000
 5316TIP3    H237440   4.392   0.935   5.448 -0.3923  0.6244  0.0917
 5317TIP3   OH237441   2.571   1.996  15.521 -0.3921  0.7458 -0.9132
 5317TIP3    H137442   2.603   2.082  15.496 -0.6607  1.2880  0.5239
 5317TIP3    H237443   2.637   1.935  15.489  1.2715  1.7091  0.5156
 5318TIP3   OH237444   5.458   6.614   4.862 -0.6363  0.8465 -0.8137
 5318TIP3    H137445   5.367   6.587   4.862 -0.8818  1.6190 -2.1852
 5318TIP3    H237446   5.504   6.542   4.905 -1.9147  0.6089  0.2204
 5319TIP3   OH237447   0.556   4.931  16.853  0.1181 -0.1449 -0.1757
 5319TIP3    H137448   0.525   4.844  16.827  1.2302 -0.7306  0.3675
 5319TIP3    H237449   0.553   4.930  16.948 -0.8555  0.8183 -0.1664
 5320TIP3   OH237450   6.080   5.400  14.608 -0.2042  0.0677  0.7968
 5320TIP3    H137451   6.056   5.326  14.664  0.4470  0.2892  1.3762
 5320TIP3    H237452   6.041   5.379  14.523  0.3019 -1.1175  0.8461
 5321TIP3   OH237453   5.473   5.390   1.841  0.1854  0.4039 -0.3119
 5321TIP3    H137454   5.386   5.406   1.878  0.0229  0.2855 -0.6430
 5321TIP3    H237455   5.485   5.461   1.778  1.0041  1.3799  0.8980
 5322TIP3   OH237456   0.815   0.073   5.046  0.5697 -0.5957 -0.1077
 5322TIP3    H137457   0.782   0.106   4.963 -2.0252  0.3798  1.1984
 5322TIP3    H237458   0.751   0.008   5.074  0.6633  0.0293  1.7272
 5323TIP3   OH237459   6.255   1.510  14.594 -0.2168 -0.1431  0.6954
 5323TIP3    H137460   6.236   1.517  14.501 -1.1059 -0.8621  0.8186
 5323TIP3    H237461   6.351   1.509  14.599 -0.1404  1.2784 -0.0931
 5324TIP3   OH237462   1.050   4.039  14.963 -0.3772  0.2679 -0.4719
 5324TIP3    H137463   1.046   4.058  14.869  1.5447  0.9315 -0.4815
 5324TIP3    H237464   1.025   4.122  15.004  4.8521  2.2439 -0.5156
 5325TIP3   OH237465   2.362   3.369   0.635  0.4621 -0.1406  0.3269
 5325TIP3    H137466   2.353   3.343   0.727  1.2301 -1.9419 -0.0577
 5325TIP3    H237467   2.310   3.304   0.587  0.5947  0.3911 -0.5551
 5326TIP3   OH237468   5.761   3.697  16.638  0.3139 -0.2791 -0.2670
 5326TIP3    H137469   5.747   3.677  16.731 -0.2582 -0.5256 -0.4045
 5326TIP3    H237470   5.682   3.665  16.595  0.2405  0.5238 -0.7412
 5327TIP3   OH237471   1.542   6.796  13.990  0.7944  0.3109  0.1176
 5327TIP3    H137472   1.622   6.794  13.936  0.6562 -2.0712 -0.1237
 5327TIP3    H237473   1.571   6.763  14.075  1.1143  4.4709  1.8538
 5328TIP3   OH237474   0.553   0.441  17.228 -0.7074 -0.0792 -0.1743
 5328TIP3    H137475   0.588   0.479  17.309  2.4332 -1.4598 -0.7487
 5328TIP3    H237476   0.537   0.349  17.250 -0.6487 -0.2651 -0.9016
 5329TIP3   OH237477   0.469   1.435   3.799 -0.0586  0.2624  0.5166
 5329TIP3    H137478   0.481   1.355   3.748 -1.6039  0.6897 -0.5624
 5329TIP3    H237479   0.526   1.499   3.756 -1.3931  0.6373 -0.7815
 5330TIP3   OH237480   3.562   1.543  13.467  0.3629  0.2326 -0.5993
 5330TIP3    H137481   3.640   1.594  13.445  0.5430  0.2044 -0.0514
 5330TIP3    H237482   3.524   1.520  13.383  1.0755  0.0593 -0.8856
 5331TIP3   OH237483   1.999   0.064   0.336  0.1887  0.4934 -0.7840
 5331TIP3    H137484   2.028   0.151   0.364 -0.9820  0.1100  2.0383
 5331TIP3    H237485   1.904   0.066   0.347  0.3213 -1.9135  2.2471
 5332TIP3   OH237486   0.229   4.203  14.947 -0.3038  0.2267  0.8399
 5332TIP3    H137487   0.300   4.221  15.008  0.2660 -0.4363  0.3899
 5332TIP3    H237488   0.249   4.257  14.870 -0.3934  0.1799  0.7830
 5333TIP3   OH237489   5.097   6.470   3.275 -0.0411 -0.0261 -0.0804
 5333TIP3    H137490   5.038   6.414   3.325 -0.2832  0.2131 -0.1028
 5333TIP3    H237491   5.051   6.553   3.265  0.3173  0.1829 -0.0492
 5334TIP3   OH237492   0.617   2.327   5.465 -0.0280 -0.5519  0.1355
 5334TIP3    H137493   0.583   2.278   5.390 -0.4262  1.2033 -0.8819
 5334TIP3    H237494   0.594   2.273   5.541  0.3712 -2.3616 -0.9682
 5335TIP3   OH237495   3.260   3.738  10.963  0.1828  0.3803  0.1066
 5335TIP3    H137496   3.205   3.798  11.013 -1.6060 -1.5574  0.6057
 5335TIP3    H237497   3.218   3.733  10.876 -1.3284 -2.0377  0.8570
 5336TIP3   OH237498   0.219   4.564   4.977 -0.2455 -0.1935 -0.4905
 5336TIP3    H137499   0.169   4.529   5.051 -0.5678  1.5428  0.1619
 5336TIP3    H237500   0.193   4.509   4.903 -3.3045  0.6903 -0.2230
 5337TIP3   OH237501   3.430   2.307   5.286 -0.1109  0.2248  0.1743
 5337TIP3    H137502   3.500   2.365   5.257 -1.6689  1.7485 -0.7533
 5337TIP3    H237503   3.468   2.257   5.358  2.2179  0.2501 -0.9454
 5338TIP3   OH237504   5.920   1.567  16.900  0.1745 -0.0683  0.3781
 5338TIP3    H137505   5.952   1.547  16.988  0.7128 -0.3676  0.1144
 5338TIP3    H237506   5.998   1.572  16.846 -0.1268  0.5039 -0.0099
 5339TIP3   OH237507   5.025   1.996   1.894 -0.0377  0.2306  0.1224
 5339TIP3    H137508   4.986   1.924   1.944  2.3798 -1.1276  0.1911
 5339TIP3    H237509   5.021   2.071   1.954  0.2779 -0.6709  1.3154
 5340TIP3   OH237510   3.204   3.926  12.127  0.0422 -0.6019 -0.2964
 5340TIP3    H137511   3.168   3.837  12.115 -0.4717 -0.5200  0.5912
 5340TIP3    H237512   3.186   3.947  12.218 -0.1580  0.5636 -0.5928
 5341TIP3   OH237513   0.607   5.815   1.154 -0.0972  0.1696 -0.0594
 5341TIP3    H137514   0.531   5.802   1.097 -1.1822 -1.9666  1.7074
 5341TIP3    H237515   0.569   5.847   1.236  1.0674  0.3231  0.4327
 5342TIP3   OH237516   2.543   2.497   6.411 -0.2051 -0.9564 -0.1119
 5342TIP3    H137517   2.511   2.421   6.363 -2.0880 -0.4981  0.3621
 5342TIP3    H237518   2.588   2.550   6.346  0.9138 -2.3164 -0.5027
 5343TIP3   OH237519   3.150   1.586  15.957  0.0027  0.2269  0.2468
 5343TIP3    H137520   3.117   1.628  15.878 -2.8616 -0.9718  0.6938
 5343TIP3    H237521   3.098   1.625  16.028 -1.3684 -2.4988  0.8745
 5344TIP3   OH237522   0.562   2.035   6.456 -0.2073 -0.0292  0.2459
 5344TIP3    H137523   0.487   2.063   6.508  1.5218  0.3102  2.6864
 5344TIP3    H237524   0.578   1.944   6.483 -1.1652 -1.0234 -2.1294
 5345TIP3   OH237525   6.027   6.397   5.397 -0.5072 -0.1400  0.3863
 5345TIP3    H137526   6.020   6.340   5.474 -1.7999  1.0122  1.1605
 5345TIP3    H237527   6.079   6.471   5.428 -0.5919  0.0842 -0.0106
 5346TIP3   OH237528   2.374   5.284  16.769 -0.0146  0.4877  0.3248
 5346TIP3    H137529   2.417   5.275  16.684 -1.7630 -0.2525 -0.5333
 5346TIP3    H237530   2.442   5.260  16.832  0.4642 -2.1800 -1.0284
 5347TIP3   OH237531   3.604   4.809   0.191 -0.3809  0.6538  0.9042
 5347TIP3    H137532   3.695   4.800   0.165 -0.0226  0.2039  2.2357
 5347TIP3    H237533   3.578   4.896   0.160  0.2129  0.4294 -0.2677
 5348TIP3   OH237534   2.397   1.781   3.689 -0.2499  0.0171  0.2135
 5348TIP3    H137535   2.472   1.786   3.629 -1.3405  1.3637 -1.1234
 5348TIP3    H237536   2.415   1.848   3.755 -0.7997  1.1936 -0.7905
 5349TIP3   OH237537   2.213   2.834   5.186  0.2569  0.2217  0.1118
 5349TIP3    H137538   2.233   2.912   5.237  1.3121 -0.4388  0.7424
 5349TIP3    H237539   2.127   2.806   5.217  0.0084  0.9522  0.0935
 5350TIP3   OH237540   3.544   1.535  15.485  0.0610  0.2354 -0.1376
 5350TIP3    H137541   3.476   1.477  15.451  0.7720  1.1605 -3.5236
 5350TIP3    H237542   3.624   1.482  15.482  0.0877  0.2383  0.4270
 5351TIP3   OH237543   1.623   4.563   6.454  0.7317 -0.0253  0.0956
 5351TIP3    H137544   1.556   4.523   6.510  0.5364  0.1791  0.0120
 5351TIP3    H237545   1.703   4.560   6.506  0.1688  1.8727  1.1821
 5352TIP3   OH237546   4.273   1.583   6.354  0.1021  0.1628 -0.2708
 5352TIP3    H137547   4.245   1.592   6.263 -0.2929  1.0325 -0.0774
 5352TIP3    H237548   4.353   1.635   6.360 -1.3929  2.5575  0.5071
 5353TIP3   OH237549   1.781   5.488   4.327 -0.7912 -0.0476  0.2372
 5353TIP3    H137550   1.832   5.460   4.250 -0.2567 -0.8968  0.8816
 5353TIP3    H237551   1.712   5.544   4.291  0.2902  0.7313 -0.7191
 5354TIP3   OH237552   3.400   6.675  12.982  0.1966  0.5944 -0.0042
 5354TIP3    H137553   3.358   6.592  12.958 -2.0217  1.5410  0.3620
 5354TIP3    H237554   3.327   6.733  13.002  1.7630  1.9583  2.0319
 5355TIP3   OH237555   6.414   5.888   6.199  0.6723 -0.2642  0.1428
 5355TIP3    H137556   6.360   5.856   6.271 -0.3211 -0.1677 -0.5363
 5355TIP3    H237557   6.398   5.983   6.197 -0.0809 -0.3884 -0.7881
 5356TIP3   OH237558   3.148   4.342   4.994 -0.3055 -0.5530  0.1451
 5356TIP3    H137559   3.192   4.284   5.056  0.6937 -0.4817 -0.4802
 5356TIP3    H237560   3.210   4.413   4.979 -1.3211  0.4457  0.5314
 5357TIP3   OH237561   5.286   1.770   4.013 -0.1531 -0.3643 -1.1083
 5357TIP3    H137562   5.313   1.705   3.949 -1.4071 -1.6911 -0.3452
 5357TIP3    H237563   5.367   1.815   4.037  0.2942  0.5145 -3.9166
 5358TIP3   OH237564   5.331   6.732  16.004  0.1245  0.8171 -0.1070
 5358TIP3    H137565   5.345   6.822  15.974  0.8965  0.6375 -0.3253
 5358TIP3    H237566   5.319   6.682  15.923 -1.9811  0.9673  0.0759
 5359TIP3   OH237567   3.457   5.165   1.107 -0.5721 -0.1946  0.1440
 5359TIP3    H137568   3.479   5.229   1.175  0.0296 -0.8883  0.6216
 5359TIP3    H237569   3.467   5.213   1.025 -0.7547  0.5001  0.5145
 5360TIP3   OH237570   4.493   1.780   3.065  0.2377  0.3228 -0.7297
 5360TIP3    H137571   4.497   1.856   3.122 -0.1122  0.8541 -1.3988
 5360TIP3    H237572   4.471   1.815   2.979 -1.8124 -0.7118 -0.6868
 5361TIP3   OH237573   1.448   2.952  15.611  0.0324 -0.1312 -0.8012
 5361TIP3    H137574   1.387   3.018  15.645 -0.2993 -1.5701  1.5787
 5361TIP3    H237575   1.530   2.970  15.656  0.8398  0.4459 -2.3963
 5362TIP3   OH237576   6.336   5.930   4.210  0.6039  0.2533  0.3468
 5362TIP3    H137577   6.332   6.013   4.257  2.5337 -0.3798  1.7430
 5362TIP3    H237578   6.408   5.883   4.251  0.2107 -1.7090 -1.0947
 5363TIP3   OH237579   3.140   3.522   0.631 -0.7046  0.2577  0.1836
 5363TIP3    H137580   3.122   3.566   0.548  1.8149  0.9991 -0.0456
 5363TIP3    H237581   3.123   3.589   0.697  1.7356  1.2578 -0.0834
 5364TIP3   OH237582   0.390   6.451   3.767  0.4697 -0.2746  0.4297
 5364TIP3    H137583   0.378   6.424   3.676  0.3326  0.3497  0.2562
 5364TIP3    H237584   0.429   6.375   3.810 -0.0964 -0.8124  0.0030
 5365TIP3   OH237585   4.171   1.137  16.662 -0.5362  0.3052  0.2868
 5365TIP3    H137586   4.095   1.174  16.616  0.5465  0.1931 -1.6942
 5365TIP3    H237587   4.241   1.139  16.597  0.9924 -0.2310  1.8597
 5366TIP3   OH237588   6.391   6.741  15.579 -0.0299  0.1256 -0.0576
 5366TIP3    H137589   6.401   6.646  15.581 -0.2820  0.1081  0.4887
 5366TIP3    H237590   6.406   6.769  15.670  0.6278  0.6664 -0.3213
 5367TIP3   OH237591   1.420   1.834   4.232 -0.3745  0.4123 -0.2606
 5367TIP3    H137592   1.479   1.811   4.304 -1.1884  1.4812  0.7884
 5367TIP3    H237593   1.460   1.911   4.191 -1.1232  1.3016  0.6185
 5368TIP3   OH237594   3.463   5.393   1.253  0.6245  0.6055 -0.1742
 5368TIP3    H137595   3.405   5.434   1.317  1.2059 -0.4478  1.0826
 5368TIP3    H237596   3.511   5.466   1.214  0.6163  1.2447  0.9677
 5369TIP3   OH237597   5.024   3.935   0.540 -0.4827  0.4655  0.1961
 5369TIP3    H137598   5.096   3.908   0.483 -0.4373  1.0359 -0.0120
 5369TIP3    H237599   4.946   3.928   0.485 -0.5817 -0.0338  0.3867
 5370TIP3   OH237600   5.922   1.820   0.266  0.2588  0.7622  0.0916
 5370TIP3    H137601   5.903   1.914   0.267  0.2036  0.8088 -1.8028
 5370TIP3    H237602   5.983   1.809   0.193  0.3524 -0.6619  0.3669
 5371TIP3   OH237603   0.665   0.146   0.507 -0.1963 -0.0395 -0.5505
 5371TIP3    H137604   0.749   0.103   0.517  0.2759  0.7289 -1.1168
 5371TIP3    H237605   0.645   0.141   0.414  0.5568  2.1480 -0.9047
 5372TIP3   OH237606   1.395   0.984   0.715 -0.9567 -0.6595  0.3390
 5372TIP3    H137607   1.352   1.069   0.725 -0.2233 -0.2522  0.1258
 5372TIP3    H237608   1.379   0.960   0.624  0.7178  0.3322 -0.2657
 5373TIP3   OH237609   5.412   6.700   3.127 -0.0463  0.3849 -0.1279
 5373TIP3    H137610   5.424   6.630   3.062 -0.1343  0.3520 -0.1092
 5373TIP3    H237611   5.392   6.653   3.208 -0.1247  0.4343 -0.1198
 5374TIP3   OH237612   5.912   1.464  10.672  0.3558 -0.1797  0.1962
 5374TIP3    H137613   5.854   1.430  10.741  0.8639 -1.2961  0.1118
 5374TIP3    H237614   5.860   1.528  10.625 -1.1460 -1.8035 -0.4541
 5375TIP3   OH237615   3.326   5.313   4.334  0.9931  0.5014 -0.9186
 5375TIP3    H137616   3.349   5.356   4.416  2.1034 -0.0781 -0.9130
 5375TIP3    H237617   3.409   5.279   4.300  0.3674 -0.3215 -1.6746
 5376TIP3   OH237618   0.556   3.093  12.239 -0.0118 -0.1911  0.2479
 5376TIP3    H137619   0.535   3.186  12.239  1.0715  0.0771  0.2473
 5376TIP3    H237620   0.472   3.048  12.228 -0.6987  0.7345  1.5210
 5377TIP3   OH237621   3.030   5.055  15.588 -0.2837 -0.1415  0.0256
 5377TIP3    H137622   2.994   5.045  15.500  0.6575 -2.7814 -0.1376
 5377TIP3    H237623   3.119   5.019  15.583  1.1112  2.7601  1.3087
 5378TIP3   OH237624   0.419   2.647  12.117  0.6464 -0.4709  0.6105
 5378TIP3    H137625   0.433   2.560  12.079 -0.7320 -0.1583 -0.6973
 5378TIP3    H237626   0.377   2.630  12.201  0.5696 -1.0707  0.4549
 5379TIP3   OH237627   1.594   6.396   5.660 -0.0585  0.1400 -0.3924
 5379TIP3    H137628   1.542   6.343   5.721 -1.6240  2.0630  0.0678
 5379TIP3    H237629   1.532   6.423   5.592  1.1211 -0.0819 -1.6042
 5380TIP3   OH237630   0.769   2.473   2.576  0.2260  0.2892 -0.2869
 5380TIP3    H137631   0.688   2.505   2.616  0.4248 -0.6618  0.9321
 5380TIP3    H237632   0.830   2.464   2.650  1.1443  0.0895 -1.0519
 5381TIP3   OH237633   1.381   1.667   5.305 -0.2125  0.5888  0.3464
 5381TIP3    H137634   1.453   1.731   5.299 -1.9286  2.4634 -2.6522
 5381TIP3    H237635   1.396   1.608   5.231 -0.2166 -0.8013  1.4306
 5382TIP3   OH237636   2.167   0.475   5.121 -0.5739  0.2258  0.3065
 5382TIP3    H137637   2.113   0.396   5.130 -0.2920 -0.4608 -2.9150
 5382TIP3    H237638   2.108   0.539   5.082 -0.4385  1.2590  1.7153
 5383TIP3   OH237639   2.814   2.575   1.298  0.5033  0.2682  0.2604
 5383TIP3    H137640   2.838   2.531   1.380 -1.2615  0.2122  0.7915
 5383TIP3    H237641   2.723   2.548   1.282  0.5456  0.9537 -1.2725
 5384TIP3   OH237642   1.156   6.116   1.408 -0.1653  0.2499 -0.2921
 5384TIP3    H137643   1.161   6.166   1.327  0.8365  1.3510  0.4197
 5384TIP3    H237644   1.181   6.027   1.382  1.0899  0.7929 -1.0312
 5385TIP3   OH237645   0.156   0.880   1.816  0.5280  0.1423 -0.1726
 5385TIP3    H137646   0.200   0.894   1.732  0.7942 -1.4708 -0.3392
 5385TIP3    H237647   0.202   0.937   1.877  0.1711  1.5394 -1.1471
 5386TIP3   OH237648   5.435   3.523   6.243  0.0777  0.0950  0.1444
 5386TIP3    H137649   5.353   3.539   6.290  0.0600 -0.5344  0.3430
 5386TIP3    H237650   5.422   3.438   6.201  0.8665 -0.3169  0.7217
 5387TIP3   OH237651   1.033   4.335   4.717 -0.1605 -0.1520 -0.3493
 5387TIP3    H137652   1.087   4.317   4.640 -0.7827  1.0538 -1.0942
 5387TIP3    H237653   1.060   4.422   4.745  1.3682 -1.2924  1.9522
 5388TIP3   OH237654   3.968   2.762  15.217 -0.3224  0.2351  0.5758
 5388TIP3    H137655   4.062   2.774  15.231  0.3311  0.0028 -2.7845
 5388TIP3    H237656   3.935   2.850  15.202 -0.9448  0.4559  2.9969
 5389TIP3   OH237657   2.516   1.641  11.210  0.2287  0.2854 -0.4891
 5389TIP3    H137658   2.481   1.698  11.142  1.0877 -1.1248 -2.1829
 5389TIP3    H237659   2.580   1.695  11.257  0.0358  1.1127 -1.1716
 5390TIP3   OH237660   5.842   4.165   4.591  0.5462 -0.2748  0.0583
 5390TIP3    H137661   5.920   4.198   4.546  0.6489  0.2836  0.6295
 5390TIP3    H237662   5.803   4.104   4.529  1.7034 -0.9360 -0.0404
 5391TIP3   OH237663   3.727   4.417  12.284 -0.4084 -0.1952  0.4536
 5391TIP3    H137664   3.730   4.449  12.194  1.7302  0.2111  0.6271
 5391TIP3    H237665   3.766   4.330  12.280 -1.6848 -0.8038  0.7715
 5392TIP3   OH237666   4.549   1.283  13.196  0.1749 -0.1439  0.2220
 5392TIP3    H137667   4.602   1.303  13.119 -1.5075 -1.1582 -1.2691
 5392TIP3    H237668   4.612   1.253  13.261  1.6982  1.1819 -0.5631
 5393TIP3   OH237669   0.249   1.912   0.590 -0.0902 -0.0314 -0.2683
 5393TIP3    H137670   0.329   1.964   0.592  0.1429 -0.3928  0.6814
 5393TIP3    H237671   0.182   1.971   0.557  0.7734 -0.0445 -2.1802
 5394TIP3   OH237672   0.950   0.205   3.986 -0.2209 -0.7432 -0.0746
 5394TIP3    H137673   0.928   0.249   3.903  0.9162 -0.6454 -0.3461
 5394TIP3    H237674   1.046   0.204   3.987 -0.2123 -0.0713  1.6076
 5395TIP3   OH237675   3.185   0.481  14.443 -0.3779 -0.2358  0.1055
 5395TIP3    H137676   3.262   0.530  14.415  0.2404 -0.2752  1.6391
 5395TIP3    H237677   3.196   0.471  14.537 -1.9755 -0.7636  0.2627
 5396TIP3   OH237678   5.328   0.309  13.952  0.1999  0.1320 -0.4168
 5396TIP3    H137679   5.284   0.370  14.010 -1.2065  1.2175 -2.4931
 5396TIP3    H237680   5.408   0.354  13.925  1.1917 -0.6379  1.0757
 5397TIP3   OH237681   6.646   5.041  14.406  0.0306  0.3956 -0.0616
 5397TIP3    H137682   6.659   4.985  14.329 -1.5078  2.6903 -2.1363
 5397TIP3    H237683   6.693   5.122  14.384 -0.5707  1.1616  1.3643
 5398TIP3   OH237684   3.061   2.608  15.235 -0.0510  0.4018  0.1644
 5398TIP3    H137685   3.075   2.576  15.146 -0.0597  0.9283 -0.0315
 5398TIP3    H237686   3.030   2.697  15.223  0.5692  0.6978  0.7192
 5399TIP3   OH237687   2.545   1.860  11.893 -0.0325 -0.0073 -0.3636
 5399TIP3    H137688   2.538   1.768  11.869  0.5955  0.4114 -2.3300
 5399TIP3    H237689   2.639   1.877  11.898 -0.1305  0.2122  1.4620
 5400TIP3   OH237690   2.023   3.543   3.036 -0.3125  0.2052 -0.7185
 5400TIP3    H137691   2.023   3.448   3.021  1.0952  0.1751 -0.6935
 5400TIP3    H237692   2.064   3.554   3.121 -0.1281  0.8587 -0.8871
 5401TIP3   OH237693   0.168   1.949   3.914  0.4954  0.0217  0.1379
 5401TIP3    H137694   0.101   2.011   3.939  1.3222  0.3274  1.7113
 5401TIP3    H237695   0.220   1.995   3.847 -0.8267 -0.2400 -1.1254
 5402TIP3   OH237696   0.832   1.393  14.279  0.0315  0.1453 -0.2939
 5402TIP3    H137697   0.875   1.441  14.350 -0.6255  4.0229 -2.2111
 5402TIP3    H237698   0.739   1.413  14.289 -0.5767 -2.3962 -0.1824
 5403TIP3   OH237699   3.947   5.352  15.935 -0.1155 -0.1971  0.0161
 5403TIP3    H137700   3.874   5.372  15.876 -0.9723  0.1553  1.1504
 5403TIP3    H237701   4.015   5.414  15.911  1.4536 -2.9951 -3.7374
 5404TIP3   OH237702   5.011   6.558  16.908 -0.5954 -0.7947 -0.2067
 5404TIP3    H137703   5.020   6.600  16.822 -1.0869 -0.3739 -0.0569
 5404TIP3    H237704   5.076   6.487  16.907 -0.3762 -0.5917 -0.8012
 5405TIP3   OH237705   2.055   6.501  13.485 -0.4947  0.2615 -0.9930
 5405TIP3    H137706   2.125   6.557  13.450 -0.0812  0.0830 -0.4571
 5405TIP3    H237707   1.974   6.542  13.454 -0.1531 -1.1581 -4.2066
 5406TIP3   OH237708   3.433   4.030   1.964 -0.1715 -0.2782 -0.0430
 5406TIP3    H137709   3.494   4.052   1.894 -0.1244 -0.3407 -0.0214
 5406TIP3    H237710   3.359   3.988   1.920 -0.3067  0.0118 -0.0954
 5407TIP3   OH237711   2.121   4.362  15.583 -0.1818 -0.1287  0.2485
 5407TIP3    H137712   2.054   4.401  15.527  0.2412 -0.8410 -0.7755
 5407TIP3    H237713   2.192   4.426  15.584  0.8479 -1.1059 -2.0717
 5408TIP3   OH237714   4.378   1.541  10.434  0.3243  0.4374 -0.5748
 5408TIP3    H137715   4.379   1.553  10.529  1.3766  0.3264 -0.5563
 5408TIP3    H237716   4.350   1.451  10.421  1.5736 -0.0216 -0.2828
 5409TIP3   OH237717   3.313   4.129   2.711 -0.5412 -0.1479  0.1631
 5409TIP3    H137718   3.259   4.177   2.774 -1.0882 -0.2878 -0.1879
 5409TIP3    H237719   3.250   4.096   2.646  0.1494  1.1830 -1.2532
 5410TIP3   OH237720   1.810   3.912  12.704 -0.1145 -0.0722 -0.0786
 5410TIP3    H137721   1.868   3.903  12.779 -2.4041  0.8894  1.9683
 5410TIP3    H237722   1.781   3.823  12.685 -0.3918 -0.2264  0.9861
 5411TIP3   OH237723   6.806   1.815   5.171 -0.3964 -0.2175  0.0163
 5411TIP3    H137724   6.764   1.840   5.254 -1.2811 -1.9677  0.1301
 5411TIP3    H237725   6.812   1.898   5.122  0.1362  0.8488  1.7950
 5412TIP3   OH237726   2.784   5.193   0.529  0.0753 -0.2092  0.2978
 5412TIP3    H137727   2.782   5.289   0.534  0.6385 -0.1973  0.3255
 5412TIP3    H237728   2.847   5.173   0.460 -0.8545 -0.5498 -0.4794
 5413TIP3   OH237729   2.577   2.430   4.421 -0.3216  0.4598 -0.5974
 5413TIP3    H137730   2.667   2.458   4.406 -0.8487  1.4256 -2.2045
 5413TIP3    H237731   2.543   2.491   4.487  0.1098  0.2628 -0.1913
 5414TIP3   OH237732   5.149   1.247  11.529 -0.6027 -0.4422  0.0453
 5414TIP3    H137733   5.202   1.192  11.472  0.0487  0.9809 -0.7936
 5414TIP3    H237734   5.208   1.271  11.600  0.6488  2.6369 -1.8148
 5415TIP3   OH237735   0.177   6.437   5.122  0.1988 -0.0222  0.6283
 5415TIP3    H137736   0.217   6.351   5.137 -1.0491 -0.6655  0.3622
 5415TIP3    H237737   0.238   6.499   5.163  0.9610 -1.0530  1.0961
 5416TIP3   OH237738   0.576   5.961  16.012  0.3871 -0.1305  0.3468
 5416TIP3    H137739   0.535   5.997  15.933  0.8332 -0.3322  0.0200
 5416TIP3    H237740   0.573   5.866  15.999  0.5043 -0.1621  0.5492
 5417TIP3   OH237741   0.167   1.864   5.409  0.0248  0.5653  0.5680
 5417TIP3    H137742   0.149   1.955   5.430 -1.9675  0.2872  0.3003
 5417TIP3    H237743   0.124   1.815   5.480 -0.0277 -0.1824  0.0273
 5418TIP3   OH237744   4.969   6.800  11.103  0.2513  0.2517 -0.3177
 5418TIP3    H137745   4.977   6.891  11.130  0.1014 -0.2120  1.4061
 5418TIP3    H237746   4.889   6.769  11.146  0.1248 -0.6163 -1.1302
 5419TIP3   OH237747   6.464   4.638  15.104 -0.0545  0.7842 -0.3362
 5419TIP3    H137748   6.452   4.694  15.180  0.1858 -1.0978  1.1796
 5419TIP3    H237749   6.474   4.550  15.140 -0.5760 -0.2918 -2.5852
 5420TIP3   OH237750   3.803   5.754  13.902 -0.0249 -0.5064 -0.4382
 5420TIP3    H137751   3.750   5.774  13.825  1.2464  0.8595 -1.0046
 5420TIP3    H237752   3.752   5.689  13.950 -1.7188  0.0119 -1.4627
 5421TIP3   OH237753   5.942   0.501  13.030 -0.4600 -0.0664 -0.0762
 5421TIP3    H137754   5.926   0.438  13.101  0.2794  0.7668  0.8695
 5421TIP3    H237755   5.987   0.574  13.073  2.4705 -0.6678 -1.8477
 5422TIP3   OH237756   3.374   6.814   0.533  0.3122 -0.3757  0.1981
 5422TIP3    H137757   3.428   6.825   0.610 -0.4319 -0.2674  0.7177
 5422TIP3    H237758   3.307   6.750   0.558  0.1688 -0.4759 -0.4070
 5423TIP3   OH237759   0.975   0.445   0.483  0.4214 -0.1186 -0.4955
 5423TIP3    H137760   0.958   0.402   0.399 -0.5394  2.0214 -1.4654
 5423TIP3    H237761   0.894   0.492   0.503 -0.2980 -2.3836  2.8811
 5424TIP3   OH237762   0.651   6.428   2.288  0.6475 -0.3532  0.8867
 5424TIP3    H137763   0.612   6.368   2.225  1.0829  2.3281 -2.2465
 5424TIP3    H237764   0.580   6.450   2.348 -1.4782  0.7644 -1.7913
 5425TIP3   OH237765   1.782   2.478  16.132 -0.2145  0.1792  0.2422
 5425TIP3    H137766   1.751   2.453  16.219  2.0144  1.1602  1.3845
 5425TIP3    H237767   1.872   2.446  16.127  0.5780  2.3336 -0.6657
 5426TIP3   OH237768   6.112   5.994  14.566  0.1239 -0.1746 -0.5048
 5426TIP3    H137769   6.027   5.956  14.587  0.9762 -2.1192 -0.3716
 5426TIP3    H237770   6.165   5.980  14.645  0.7354  0.4945 -0.7804
 5427TIP3   OH237771   3.679   5.629  15.001 -0.1866 -0.0836 -0.0698
 5427TIP3    H137772   3.718   5.696  14.944 -0.1725  2.3908  2.6137
 5427TIP3    H237773   3.739   5.554  14.994  0.5505  0.6284 -2.1848
 5428TIP3   OH237774   4.400   6.230   4.483 -0.4699  0.5731 -0.1999
 5428TIP3    H137775   4.334   6.190   4.426 -1.6608  1.0437  0.7954
 5428TIP3    H237776   4.422   6.160   4.545 -0.7519  0.6948  0.0440
 5429TIP3   OH237777   5.751   3.108  14.778  0.2999  0.6010 -0.1260
 5429TIP3    H137778   5.817   3.133  14.713  0.6349  0.9756  0.3568
 5429TIP3    H237779   5.783   3.144  14.861  0.2905 -0.5682  0.4040
 5430TIP3   OH237780   3.124   2.131   1.303  0.1328 -0.0599 -0.4626
 5430TIP3    H137781   3.142   2.065   1.369  0.3281  1.1099  0.7051
 5430TIP3    H237782   3.029   2.147   1.311  0.2651  0.5442  0.0159
 5431TIP3   OH237783   0.209   3.679   5.236  0.1827  0.0855  0.0397
 5431TIP3    H137784   0.241   3.600   5.191 -1.7883 -1.6727  1.5091
 5431TIP3    H237785   0.226   3.662   5.329 -4.3046 -0.8621  0.9269
 5432TIP3   OH237786   0.343   2.783   6.142 -0.1293 -0.3333  0.5913
 5432TIP3    H137787   0.430   2.746   6.126 -0.4702 -1.0291  0.2855
 5432TIP3    H237788   0.331   2.775   6.237  0.4773  0.5630  0.7596
 5433TIP3   OH237789   1.170   3.676   2.341 -0.8391  0.3573 -0.0180
 5433TIP3    H137790   1.128   3.704   2.422 -0.5481 -0.3679  0.3890
 5433TIP3    H237791   1.098   3.672   2.277 -1.5206 -1.3258  0.7842
 5434TIP3   OH237792   6.454   2.046  16.985  0.0343 -0.1936  0.0466
 5434TIP3    H137793   6.533   2.099  16.972  1.0873 -1.0947  2.3865
 5434TIP3    H237794   6.405   2.091  17.053 -0.7540 -0.4540 -0.3288
 5435TIP3   OH237795   3.637   4.210  11.795  0.7742 -0.6191 -0.4325
 5435TIP3    H137796   3.546   4.232  11.816  0.9526 -1.0632  0.9079
 5435TIP3    H237797   3.631   4.124  11.755  0.6937 -1.2477  0.8723
 5436TIP3   OH237798   6.133   3.918  12.364  0.2715 -0.1875 -0.1282
 5436TIP3    H137799   6.086   3.995  12.331  0.5538  0.8448  1.7348
 5436TIP3    H237800   6.225   3.946  12.368  0.5650 -1.0483 -0.5505
 5437TIP3   OH237801   6.000   1.055  12.875  0.4146  0.2654 -0.1963
 5437TIP3    H137802   6.024   1.088  12.961  1.1023 -1.3189  0.2746
 5437TIP3    H237803   5.918   1.008  12.889 -0.0008  0.8698 -0.6155
 5438TIP3   OH237804   2.474   5.920   0.468  0.2423  0.3565 -0.0888
 5438TIP3    H137805   2.393   5.932   0.518  0.5309  1.9741  0.0624
 5438TIP3    H237806   2.507   5.834   0.494 -0.8601  0.1448  0.6608
 5439TIP3   OH237807   6.134   2.575  11.729  0.1599 -0.0646 -0.0677
 5439TIP3    H137808   6.089   2.492  11.716 -0.7219  0.6634 -2.0254
 5439TIP3    H237809   6.209   2.572  11.669 -0.1864  0.7617 -0.5506
 5440TIP3   OH237810   1.871   6.120   2.535  0.0541  0.1519 -0.0086
 5440TIP3    H137811   1.906   6.107   2.447  1.1473 -1.0881  0.5791
 5440TIP3    H237812   1.897   6.210   2.558 -0.1322  0.4375 -0.8949
 5441TIP3   OH237813   1.089   5.439   2.486 -0.4812  0.8407  0.5322
 5441TIP3    H137814   1.129   5.436   2.573  0.0792  1.0406  0.2853
 5441TIP3    H237815   0.999   5.467   2.503 -0.5161  0.4175  1.0895
 5442TIP3   OH237816   4.504   6.385   5.113  0.4823  0.3971  0.2747
 5442TIP3    H137817   4.551   6.314   5.069  0.5375 -0.3061  1.4483
 5442TIP3    H237818   4.418   6.348   5.135 -0.0312  1.1573 -0.3846
 5443TIP3   OH237819   6.223   1.608   0.816 -0.2423 -0.2978 -0.2957
 5443TIP3    H137820   6.235   1.579   0.906 -0.2070 -2.1575 -0.8568
 5443TIP3    H237821   6.272   1.690   0.810  0.2313 -0.4513  1.2218
 5444TIP3   OH237822   4.711   5.908   3.983 -0.2011  0.0104  0.2130
 5444TIP3    H137823   4.695   5.827   3.936  2.7858 -0.2488 -0.6014
 5444TIP3    H237824   4.757   5.963   3.920 -2.9055  2.7968  0.4347
 5445TIP3   OH237825   4.586   1.016   4.351  0.6005  0.2624  0.1633
 5445TIP3    H137826   4.494   1.033   4.371  1.1159  0.1767  3.0821
 5445TIP3    H237827   4.595   0.921   4.356  0.7817  0.2254 -0.6534
 5446TIP3   OH237828   0.008   1.764  15.743 -0.0504 -0.5316  0.6471
 5446TIP3    H137829   0.001   1.724  15.829  0.4085  1.1607  1.5256
 5446TIP3    H237830  -0.081   1.766  15.709 -0.2589 -1.0525  1.1705
 5447TIP3   OH237831   1.856   1.940   1.840  0.1390  0.1825 -0.5217
 5447TIP3    H137832   1.826   2.020   1.885  2.5704  0.0724  1.5141
 5447TIP3    H237833   1.809   1.941   1.757 -1.5229  2.6092  0.3174
 5448TIP3   OH237834   1.007   3.909   4.930  0.2435 -0.0272  0.0310
 5448TIP3    H137835   1.049   3.841   4.983  1.2615  0.0433 -0.6510
 5448TIP3    H237836   1.066   3.920   4.855 -0.6634  0.5664 -0.6138
 5449TIP3   OH237837   1.567   5.339  11.868 -0.0260 -0.1604  0.3072
 5449TIP3    H137838   1.575   5.304  11.957  1.0106 -1.2257 -0.1751
 5449TIP3    H237839   1.519   5.271  11.820  0.2356 -0.0155 -0.1673
 5450TIP3   OH237840   4.705   3.772  12.998 -0.2847  0.3216  0.2979
 5450TIP3    H137841   4.771   3.728  13.052  0.4324  1.5330  0.4405
 5450TIP3    H237842   4.751   3.846  12.960 -0.6583 -0.6873 -2.3123
 5451TIP3   OH237843   3.669   4.563   6.506 -0.1206  0.1676  0.0258
 5451TIP3    H137844   3.726   4.637   6.527  0.3649 -0.6477  1.8139
 5451TIP3    H237845   3.582   4.591   6.535  0.3909 -0.6063  2.6452
 5452TIP3   OH237846   2.622   0.609   3.433  0.3058 -0.4534 -0.8638
 5452TIP3    H137847   2.531   0.616   3.460  0.5535 -1.8068  0.4474
 5452TIP3    H237848   2.624   0.535   3.373  0.6667 -1.0075 -0.1856
 5453TIP3   OH237849   3.698   6.168  13.545  0.6956  0.8705  0.3186
 5453TIP3    H137850   3.701   6.252  13.499  2.0549  0.5084 -0.3323
 5453TIP3    H237851   3.702   6.103  13.475  0.8875  0.2788  0.8680
 5454TIP3   OH237852   0.941   5.099  15.044 -0.1817 -0.2874  0.1695
 5454TIP3    H137853   1.005   5.028  15.046 -1.7513 -1.7643  1.7488
 5454TIP3    H237854   0.922   5.111  14.951 -0.8780 -2.9839 -0.1298
 5455TIP3   OH237855   3.238   1.178  12.040  0.4446 -0.5643 -0.8906
 5455TIP3    H137856   3.229   1.084  12.052 -1.3737 -0.3876 -0.5215
 5455TIP3    H237857   3.320   1.189  11.992  1.3508 -2.2221  0.2027
 5456TIP3   OH237858   1.031   3.715   0.375 -0.1509  0.3238  0.8980
 5456TIP3    H137859   0.991   3.777   0.435 -3.0369 -1.6767  1.2145
 5456TIP3    H237860   1.071   3.649   0.432  0.1286  0.2160  0.5807
 5457TIP3   OH237861   1.882   5.914  12.159 -0.0550  0.3968 -0.2875
 5457TIP3    H137862   1.859   5.843  12.099  2.0846 -0.7837  0.1647
 5457TIP3    H237863   1.888   5.871  12.245  1.8548  0.9268 -0.1024
 5458TIP3   OH237864   3.767   3.848  16.974 -0.1167 -0.4374  0.0140
 5458TIP3    H137865   3.856   3.881  16.968 -0.7225  1.2626 -0.1609
 5458TIP3    H237866   3.737   3.874  17.061 -0.7860 -0.0370 -0.3251
 5459TIP3   OH237867   6.276   6.255   1.066  0.2388  0.0296  0.2394
 5459TIP3    H137868   6.254   6.323   1.002 -1.2022 -0.6670 -0.0595
 5459TIP3    H237869   6.267   6.299   1.151 -1.6869  0.0059  0.1001
 5460TIP3   OH237870   0.073   0.234  17.048  0.7484  0.3002 -0.2338
 5460TIP3    H137871   0.018   0.198  17.118  0.8685  1.1547  0.3175
 5460TIP3    H237872   0.011   0.255  16.978  0.2817  1.7214  0.5754
 5461TIP3   OH237873   6.442   4.190  14.464  0.3676  0.4493  0.1224
 5461TIP3    H137874   6.404   4.242  14.535  0.2194 -0.1230  0.4638
 5461TIP3    H237875   6.455   4.253  14.393 -0.1662  0.8795  0.3974
 5462TIP3   OH237876   6.019   4.654  11.448 -0.9300 -0.5966  0.2442
 5462TIP3    H137877   5.969   4.618  11.521 -2.6737  0.3988 -0.3755
 5462TIP3    H237878   5.968   4.731  11.420  1.8342  1.5066  0.5964
 5463TIP3   OH237879   0.942   6.092   4.584  0.1057 -0.1754  0.0548
 5463TIP3    H137880   0.864   6.082   4.531 -0.0338  1.8287 -0.1898
 5463TIP3    H237881   0.910   6.103   4.673  0.2551 -1.6043  0.3158
 5464TIP3   OH237882   4.780   1.551  16.542  0.2236 -0.5257  0.2462
 5464TIP3    H137883   4.707   1.514  16.492  0.8930  0.3752 -1.4903
 5464TIP3    H237884   4.752   1.545  16.634 -2.2122  0.1966 -0.3757
 5465TIP3   OH237885   6.813   2.119   3.989 -0.1334  0.4289  0.0270
 5465TIP3    H137886   6.834   2.208   3.964  0.6908  0.1117 -0.4473
 5465TIP3    H237887   6.723   2.106   3.961 -0.0484  0.9040 -0.4694
 5466TIP3   OH237888   4.578   6.772  14.775  0.0895  0.2530  0.4441
 5466TIP3    H137889   4.599   6.715  14.848 -2.3275  0.8113  1.6788
 5466TIP3    H237890   4.504   6.730  14.732 -1.2471  2.0229  0.9184
 5467TIP3   OH237891   5.567   4.830   1.321  0.1250 -0.3283  0.4822
 5467TIP3    H137892   5.494   4.891   1.333 -1.1169 -2.2025  3.9141
 5467TIP3    H237893   5.643   4.875   1.358 -0.3710 -0.1484  1.3013
 5468TIP3   OH237894   3.455   3.024  15.561 -0.0680  0.1242 -0.2910
 5468TIP3    H137895   3.500   2.968  15.625  1.8478  0.1431 -1.5363
 5468TIP3    H237896   3.425   3.099  15.612  2.4927  0.7357  0.4616
 5469TIP3   OH237897   0.352   5.941   0.717  0.1141 -0.0058  0.2707
 5469TIP3    H137898   0.310   5.966   0.800 -0.6287 -0.5445  0.0700
 5469TIP3    H237899   0.314   6.000   0.652  1.3389  0.9915  0.4480
 5470TIP3   OH237900   2.782   2.767  15.454 -0.4366 -0.4499 -0.4415
 5470TIP3    H137901   2.863   2.798  15.496 -0.2221  2.2606 -2.5622
 5470TIP3    H237902   2.723   2.748  15.527  1.6957 -1.4767  1.1454
 5471TIP3   OH237903   3.971   6.705   3.006  0.1285  0.3253  0.0687
 5471TIP3    H137904   3.915   6.733   2.934  1.3983 -0.7271 -1.3861
 5471TIP3    H237905   4.060   6.709   2.971  0.7622 -0.4368  1.4970
 5472TIP3   OH237906   5.015   1.615  12.428  0.5596  0.4865 -0.0527
 5472TIP3    H137907   4.925   1.643  12.412  0.0400 -1.3184 -0.5224
 5472TIP3    H237908   5.009   1.519  12.435  1.8461  0.5057  3.6753
 5473TIP3   OH237909   0.839   2.800  14.416  0.4023 -0.0829 -0.2992
 5473TIP3    H137910   0.873   2.712  14.429 -0.1232 -0.4684 -1.3989
 5473TIP3    H237911   0.916   2.857  14.416  0.8696 -0.7051 -0.8223
 5474TIP3   OH237912   0.468   6.293  13.782 -0.1624 -0.6485  0.0366
 5474TIP3    H137913   0.461   6.366  13.843  1.5919 -1.1505  0.8980
 5474TIP3    H237914   0.410   6.317  13.710 -1.4828  0.4563  1.3862
 5475TIP3   OH237915   1.126   2.236   0.654 -0.7574 -0.1592  0.2889
 5475TIP3    H137916   1.201   2.282   0.691 -1.0914  0.1796  0.5587
 5475TIP3    H237917   1.093   2.294   0.586 -0.5634 -0.4673 -0.0661
 5476TIP3   OH237918   0.803   4.797   5.288 -0.1577 -0.0805  0.0701
 5476TIP3    H137919   0.884   4.749   5.307 -1.5294 -2.5629  0.1421
 5476TIP3    H237920   0.792   4.857   5.362  0.2189 -1.7147  1.5206
 5477TIP3   OH237921   5.332   1.098   1.173  0.2187  0.4210  0.3734
 5477TIP3    H137922   5.341   1.011   1.133  0.5101  1.0642 -1.0286
 5477TIP3    H237923   5.401   1.150   1.133  1.6363  0.7107  3.0131
 5478TIP3   OH237924   0.271   4.205   5.325  0.0334 -0.0629 -0.1533
 5478TIP3    H137925   0.277   4.161   5.240  0.4101  0.2472 -0.2882
 5478TIP3    H237926   0.354   4.185   5.368  0.5467  1.1667 -0.5355
 5479TIP3   OH237927   4.700   4.325  11.170  0.0837 -0.0097 -0.1984
 5479TIP3    H137928   4.686   4.379  11.247 -2.8404 -2.4244  1.1626
 5479TIP3    H237929   4.773   4.267  11.194 -2.3090 -2.3958  1.9617
 5480TIP3   OH237930   3.974   5.226   4.648 -0.1103  0.6609 -0.0984
 5480TIP3    H137931   3.909   5.252   4.582 -1.4096 -0.9267  0.4780
 5480TIP3    H237932   4.051   5.202   4.597 -1.0543 -0.4493 -1.0842
 5481TIP3   OH237933   4.535   5.479  11.434  0.6292  0.8566 -0.0899
 5481TIP3    H137934   4.630   5.465  11.443  0.7133 -0.6046 -2.3705
 5481TIP3    H237935   4.528   5.550  11.371  0.2249  0.4981 -0.4538
 5482TIP3   OH237936   4.403   1.395   2.687 -0.1043 -0.4134  0.2637
 5482TIP3    H137937   4.375   1.451   2.759  0.2784 -0.1551  0.2195
 5482TIP3    H237938   4.336   1.406   2.620  0.0517  0.1342  0.1883
 5483TIP3   OH237939   4.290   6.419  10.873  0.5659 -0.0903  0.4962
 5483TIP3    H137940   4.238   6.444  10.796  0.8974  1.0982  0.6445
 5483TIP3    H237941   4.225   6.390  10.937  0.1707  0.3578  0.3007
 5484TIP3   OH237942   4.087   5.748   4.114  0.3073 -0.8843  0.8877
 5484TIP3    H137943   4.004   5.793   4.129  0.9777  1.0043 -0.7597
 5484TIP3    H237944   4.103   5.758   4.020  1.5549 -2.7598  0.8512
 5485TIP3   OH237945   2.674   3.199  11.316 -0.6626 -0.3731 -0.0210
 5485TIP3    H137946   2.741   3.266  11.310 -1.3358  0.5141  1.6598
 5485TIP3    H237947   2.721   3.116  11.310  0.5119  0.2376  0.6497
 5486TIP3   OH237948   0.249   0.639   0.533  0.3071  0.1104 -0.5337
 5486TIP3    H137949   0.311   0.712   0.541  1.1633 -0.6429 -0.0781
 5486TIP3    H237950   0.237   0.608   0.623 -0.4051 -0.0253 -0.6698
 5487TIP3   OH237951   3.906   4.871  12.734 -0.3045  0.0923  0.2586
 5487TIP3    H137952   3.850   4.799  12.705 -1.3205  0.4098  1.3692
 5487TIP3    H237953   3.845   4.942  12.753  0.3835  0.2238  2.1458
 5488TIP3   OH237954   4.511   3.554  13.718  0.1891 -0.3160 -0.2718
 5488TIP3    H137955   4.531   3.643  13.747 -2.7039 -0.1974  1.7782
 5488TIP3    H237956   4.442   3.565  13.653  0.0449 -1.0474 -0.2545
 5489TIP3   OH237957   0.667   2.831  14.044 -0.1875 -0.0315  0.1329
 5489TIP3    H137958   0.586   2.804  14.087  0.9702 -1.0523  1.7511
 5489TIP3    H237959   0.665   2.785  13.960 -0.3688 -1.6687  0.9932
 5490TIP3   OH237960   4.633   0.409   4.652 -0.0879 -0.1075  0.2875
 5490TIP3    H137961   4.552   0.433   4.607  0.1091  1.6903  0.8198
 5490TIP3    H237962   4.604   0.373   4.736 -0.3553  0.0363  0.2583
 5491TIP3   OH237963   3.545   0.077   5.595  0.0897 -0.9621  0.0089
 5491TIP3    H137964   3.569   0.123   5.676  0.3718  1.2423 -1.2333
 5491TIP3    H237965   3.450   0.089   5.588  0.3671  1.1457 -1.1895
 5492TIP3   OH237966   5.824   5.173  16.356  0.2395 -0.1462  0.6514
 5492TIP3    H137967   5.798   5.081  16.363  0.5860 -0.2866  0.1526
 5492TIP3    H237968   5.765   5.210  16.290  1.2400 -0.4618 -0.4687
 5493TIP3   OH237969   6.524   5.956  17.281  0.2874  0.6570 -0.5013
 5493TIP3    H137970   6.526   5.943  17.186  1.6150 -0.3851 -0.3784
 5493TIP3    H237971   6.570   5.879  17.316 -0.8272  0.6400  1.0361
 5494TIP3   OH237972   3.940   6.528   0.660  0.4333  0.2920  0.0593
 5494TIP3    H137973   3.963   6.457   0.601 -0.3832  0.9743 -1.1253
 5494TIP3    H237974   3.854   6.505   0.694  0.4986  0.3519  0.2715
 5495TIP3   OH237975   6.271   6.330  14.383 -0.2050 -0.1921 -0.1004
 5495TIP3    H137976   6.316   6.366  14.459  1.1815  1.0468 -1.4462
 5495TIP3    H237977   6.336   6.273  14.341 -0.9740 -0.9181 -0.3245
 5496TIP3   OH237978   4.582   6.280  10.633 -0.3710  0.0085 -0.4699
 5496TIP3    H137979   4.608   6.208  10.575 -2.3497  0.4380 -1.9703
 5496TIP3    H237980   4.637   6.353  10.606  1.2541 -0.7080  0.6900
 5497TIP3   OH237981   6.592   6.190   3.680 -0.2054 -0.0346 -0.2593
 5497TIP3    H137982   6.582   6.102   3.714 -2.4896  0.1483 -0.3149
 5497TIP3    H237983   6.592   6.180   3.585  1.4297 -0.1022 -0.2860
 5498TIP3   OH237984   6.742   5.990   1.002  0.0651 -0.5450  0.1076
 5498TIP3    H137985   6.693   6.056   1.052  1.8197  2.8676 -2.3185
 5498TIP3    H237986   6.677   5.951   0.943 -0.7861 -0.2668  0.8383
 5499TIP3   OH237987   5.992   4.780  15.712 -0.0728 -0.1887 -0.4011
 5499TIP3    H137988   5.952   4.815  15.632  2.1280  0.4423 -1.3117
 5499TIP3    H237989   6.049   4.710  15.681  1.3741  0.5447  0.5015
 5500TIP3   OH237990   6.617   6.545  12.156 -0.0300  0.7732 -0.7367
 5500TIP3    H137991   6.680   6.598  12.108 -1.1008  1.7880 -1.0652
 5500TIP3    H237992   6.533   6.562  12.113 -0.4187 -1.1781 -0.8258
 5501TIP3   OH237993   0.660   1.045   4.806  0.9020  0.6462  0.3376
 5501TIP3    H137994   0.753   1.063   4.819  1.0904 -0.6114  0.9297
 5501TIP3    H237995   0.642   1.077   4.717  1.7709  1.3611  0.4003
 5502TIP3   OH237996   4.409   2.463   6.313  0.0306  0.3057 -0.7481
 5502TIP3    H137997   4.470   2.524   6.271  0.5917  0.6435  0.5113
 5502TIP3    H237998   4.322   2.500   6.296  0.3077  0.9306 -0.8242
 5503TIP3   OH237999   2.945   1.979  16.829 -0.1215 -0.4205  0.0993
 5503TIP3    H138000   2.984   2.019  16.907  0.2716  1.6291 -1.0883
 5503TIP3    H238001   3.019   1.934  16.787 -0.1294 -0.7134  0.3899
 5504TIP3   OH238002   0.076   6.686   5.050 -0.1579 -0.1520 -0.3194
 5504TIP3    H138003   0.095   6.592   5.045  0.0891 -0.0856 -0.6322
 5504TIP3    H238004   0.158   6.729   5.025 -0.2891  0.1480 -0.2403
 5505TIP3   OH238005   0.279   4.197  15.994 -0.5420 -0.0177 -0.6217
 5505TIP3    H138006   0.210   4.263  15.998 -0.9953 -0.5640  1.2468
 5505TIP3    H238007   0.248   4.134  15.929 -1.2967  0.2965 -0.5761
 5506TIP3   OH238008   0.797   3.680   4.651  0.0475 -0.0320 -0.2571
 5506TIP3    H138009   0.792   3.589   4.680 -1.4208 -0.1507 -0.7752
 5506TIP3    H238010   0.725   3.688   4.588 -0.0345  1.5711  0.0182
 5507TIP3   OH238011   1.209   1.876  16.928 -0.0901 -0.7021  0.3861
 5507TIP3    H138012   1.276   1.939  16.901  0.4127 -0.4574  2.0978
 5507TIP3    H238013   1.224   1.800  16.872  0.1522  0.1885 -0.7987
 5508TIP3   OH238014   2.236   4.545  16.763  0.0107 -0.2904  0.0161
 5508TIP3    H138015   2.327   4.542  16.793  0.4138 -0.0644 -1.1485
 5508TIP3    H238016   2.219   4.457  16.729 -0.2244 -0.3417  0.2576
 5509TIP3   OH238017   5.478   1.074   4.444  0.0391  0.3947  0.2123
 5509TIP3    H138018   5.463   0.995   4.391 -1.6598 -1.1876  2.8297
 5509TIP3    H238019   5.573   1.080   4.451  0.3218 -3.3956  2.4707
 5510TIP3   OH238020   5.134   5.020  14.274  0.0520  0.6172 -0.1994
 5510TIP3    H138021   5.075   5.068  14.333  1.0724  1.0080  0.5223
 5510TIP3    H238022   5.192   5.087  14.239  0.1728  0.2078 -0.7896
 5511TIP3   OH238023   5.004   0.247  16.522  0.5478 -0.1384  0.1357
 5511TIP3    H138024   4.958   0.270  16.603 -1.4804  1.1396 -1.3087
 5511TIP3    H238025   5.059   0.323  16.503  0.2497 -0.0121 -0.2225
 5512TIP3   OH238026   1.919   5.135   5.027 -0.3707  0.0031  0.2384
 5512TIP3    H138027   1.907   5.230   5.033  0.4876  0.0898  0.6353
 5512TIP3    H238028   1.991   5.115   5.086  0.6471 -0.6630 -1.1660
 5513TIP3   OH238029   4.967   4.408   4.678 -0.4067  0.2669 -0.1540
 5513TIP3    H138030   5.060   4.418   4.656  0.2048 -2.0327  1.0445
 5513TIP3    H238031   4.920   4.448   4.604  1.4630  3.0708  0.0150
 5514TIP3   OH238032   5.790   5.377   2.969  0.5809 -0.3021 -0.2283
 5514TIP3    H138033   5.863   5.434   2.947  1.2698 -0.5341  1.3561
 5514TIP3    H238034   5.725   5.395   2.901  2.2348 -0.3842 -1.9194
 5515TIP3   OH238035   6.684   6.738   3.870  0.4474  0.5195  0.1692
 5515TIP3    H138036   6.600   6.722   3.914  0.0992  1.1851 -0.2466
 5515TIP3    H238037   6.666   6.721   3.778  1.3116 -1.4054  0.3094
 5516TIP3   OH238038   2.030   3.132  14.385  0.1078  0.3035 -0.3023
 5516TIP3    H138039   2.125   3.130  14.397  0.0414  2.2409  1.1573
 5516TIP3    H238040   1.996   3.149  14.473 -1.3906  2.2862 -1.1840
 5517TIP3   OH238041   4.272   3.100   5.209  0.3103 -0.2471  0.0321
 5517TIP3    H138042   4.300   3.089   5.118  0.1255 -0.9245  0.0564
 5517TIP3    H238043   4.213   3.027   5.226  1.6536 -1.0990  1.2264
 5518TIP3   OH238044   3.810   2.716   4.065 -0.2039 -0.2626 -0.0635
 5518TIP3    H138045   3.858   2.708   4.147 -0.7084 -0.6131  0.2036
 5518TIP3    H238046   3.726   2.756   4.090  0.2712  1.1865 -0.6417
 5519TIP3   OH238047   3.020   6.037  15.969  0.7741 -0.1161  0.3501
 5519TIP3    H138048   3.104   6.082  15.966  1.9234 -2.1672 -0.2123
 5519TIP3    H238049   3.001   6.014  15.878  0.7016 -1.5512  0.7077
 5520TIP3   OH238050   2.700   6.266   5.601 -0.6915 -0.1181 -0.1919
 5520TIP3    H138051   2.717   6.210   5.677  0.2033  0.5741  0.1331
 5520TIP3    H238052   2.608   6.250   5.580 -0.4805 -1.6621 -0.0752
 5521TIP3   OH238053   0.298   0.563  13.817 -0.6865  0.1840 -0.0366
 5521TIP3    H138054   0.348   0.558  13.736  1.6653 -0.6142  1.3514
 5521TIP3    H238055   0.338   0.636  13.865 -0.3268 -0.9275  1.4239
 5522TIP3   OH238056   2.877   2.644   0.764  0.3193 -0.0477  0.0067
 5522TIP3    H138057   2.839   2.590   0.833 -0.0788  0.6120  0.3052
 5522TIP3    H238058   2.922   2.715   0.811  1.0150 -0.2225 -0.3747
 5523TIP3   OH238059   0.284   6.167   0.964  0.4986 -0.1719  0.7187
 5523TIP3    H138060   0.192   6.194   0.960  0.6470  0.1997 -0.6175
 5523TIP3    H238061   0.291   6.117   1.046 -0.8917 -0.2284  0.8219
 5524TIP3   OH238062   3.287   1.085   4.578 -0.2120  0.3209 -0.3168
 5524TIP3    H138063   3.326   1.031   4.509 -2.8028 -0.2222 -1.5227
 5524TIP3    H238064   3.232   1.147   4.531 -1.9838  0.0157  1.2186
 5525TIP3   OH238065   2.452   2.107   5.697 -0.1382 -0.0628 -0.6989
 5525TIP3    H138066   2.485   2.029   5.652 -2.6668 -1.8723  0.3203
 5525TIP3    H238067   2.370   2.127   5.652 -0.7079  0.5233  0.5626
 5526TIP3   OH238068   0.606   5.770   1.715 -0.3973  0.5758  0.0283
 5526TIP3    H138069   0.533   5.713   1.691 -0.6316  0.7680  0.2773
 5526TIP3    H238070   0.645   5.728   1.792  0.5020 -0.1698 -0.8047
 5527TIP3   OH238071   4.657   4.175   3.038 -0.7666 -0.3787  0.1141
 5527TIP3    H138072   4.701   4.233   3.100 -0.8495 -0.2411  0.0426
 5527TIP3    H238073   4.712   4.175   2.960  0.5825 -2.3426  0.9893
 5528TIP3   OH238074   1.411   3.734   0.426 -0.3086 -0.6581 -0.0542
 5528TIP3    H138075   1.349   3.687   0.369 -1.7652 -1.1672  1.8248
 5528TIP3    H238076   1.356   3.794   0.476  1.2999  1.9296 -1.1705
 5529TIP3   OH238077   3.580   3.940  11.708 -0.4013  0.4590 -0.1832
 5529TIP3    H138078   3.517   3.914  11.774 -0.1393  0.3089  0.0100
 5529TIP3    H238079   3.527   3.959  11.630 -0.7180  0.7760  0.1126
 5530TIP3   OH238080   5.334   0.526  15.665 -0.5421 -0.5310  0.3448
 5530TIP3    H138081   5.299   0.614  15.682 -1.4050 -0.5780 -1.0757
 5530TIP3    H238082   5.285   0.470  15.725  0.6395  0.0308  1.9104
 5531TIP3   OH238083   2.326   1.715  13.516 -0.2320  0.3726  0.4800
 5531TIP3    H138084   2.327   1.759  13.601 -0.5921 -0.9406  1.1908
 5531TIP3    H238085   2.334   1.786  13.453 -1.9623  1.6001  1.5345
 5532TIP3   OH238086   4.681   5.342  10.625  0.7349 -0.6207 -0.6155
 5532TIP3    H138087   4.673   5.270  10.686  0.9578 -0.7189 -0.7017
 5532TIP3    H238088   4.751   5.316  10.565  1.1647 -0.1202 -0.3448
 5533TIP3   OH238089   1.005   0.679  11.625 -0.4941  0.1839 -0.0224
 5533TIP3    H138090   0.952   0.750  11.662 -1.2569 -0.6757  0.5578
 5533TIP3    H238091   0.975   0.671  11.535  0.7815  1.7151 -0.6392
 5534TIP3   OH238092   1.533   5.145  12.706  0.0192  0.0133  0.5394
 5534TIP3    H138093   1.490   5.194  12.777 -1.3664 -0.4730  0.0645
 5534TIP3    H238094   1.469   5.079  12.681  1.5257 -1.5285  0.5983
 5535TIP3   OH238095   1.740   3.564   1.610 -1.1468 -0.1961  0.8677
 5535TIP3    H138096   1.759   3.526   1.696 -0.8750 -0.1376  0.8335
 5535TIP3    H238097   1.656   3.609   1.621 -1.0365 -0.0619  1.1392
 5536TIP3   OH238098   5.080   0.753  16.477 -0.5966 -0.1433 -0.2442
 5536TIP3    H138099   5.133   0.829  16.501 -1.2521  0.5750 -1.0224
 5536TIP3    H238100   5.041   0.776  16.393 -0.4926 -1.5088 -0.6905
 5537TIP3   OH238101   5.700   6.012   3.510  0.1584 -0.4224  0.0546
 5537TIP3    H138102   5.731   6.058   3.588  1.2909 -1.8534  0.5050
 5537TIP3    H238103   5.612   6.045   3.495  0.0977  0.2084  1.6815
 5538TIP3   OH238104   2.569   2.289  13.559  0.7554  0.4947  0.1015
 5538TIP3    H138105   2.597   2.215  13.613 -0.2579 -0.6679 -0.9132
 5538TIP3    H238106   2.520   2.346  13.620 -0.7857 -1.0339  0.3642
 5539TIP3   OH238107   3.252   1.221  12.760 -0.0872 -0.3763 -0.1659
 5539TIP3    H138108   3.180   1.280  12.783  0.3893  0.1840 -0.0761
 5539TIP3    H238109   3.269   1.239  12.668  0.5362  0.1693  0.0417
 5540TIP3   OH238110   0.476   2.898  11.204  0.4232 -0.2881 -0.1139
 5540TIP3    H138111   0.424   2.819  11.219  1.9184 -1.1970  0.5465
 5540TIP3    H238112   0.473   2.912  11.110 -2.4002  0.7119  0.0396
 5541TIP3   OH238113   1.454   4.236   4.334 -0.2635 -0.3886 -0.3007
 5541TIP3    H138114   1.537   4.208   4.373 -0.5064 -0.1284  0.4170
 5541TIP3    H238115   1.398   4.159   4.340  0.5790 -1.2737 -2.7683
 5542TIP3   OH238116   5.609   0.312   5.200  0.2823  0.2519  0.2438
 5542TIP3    H138117   5.686   0.363   5.224 -0.9303  2.5071 -0.3371
 5542TIP3    H238118   5.586   0.344   5.112 -2.3613  1.0394  1.1432
 5543TIP3   OH238119   4.512   6.753  13.760 -0.1693 -0.3532 -0.2357
 5543TIP3    H138120   4.561   6.819  13.712  0.8648 -0.4227  0.6634
 5543TIP3    H238121   4.439   6.730  13.703  0.2648  0.5181 -1.1731
 5544TIP3   OH238122   6.766   2.579  11.355  0.0958  0.0153  0.1420
 5544TIP3    H138123   6.790   2.533  11.436  0.3049  0.0880  0.1211
 5544TIP3    H238124   6.849   2.614  11.322 -0.1413  0.9376  0.4811
 5545TIP3   OH238125   1.860   2.307  13.768  0.3155 -0.4866 -0.2785
 5545TIP3    H138126   1.847   2.400  13.787 -0.0707 -0.9530  2.0270
 5545TIP3    H238127   1.941   2.304  13.717  1.2867  1.0132  1.0745
 5546TIP3   OH238128   5.857   4.766  13.813 -0.0705 -0.4440 -0.0209
 5546TIP3    H138129   5.817   4.716  13.743  0.1807 -1.6473  0.6668
 5546TIP3    H238130   5.820   4.729  13.893  1.2175 -0.5242  0.5635
 5547TIP3   OH238131   6.755   1.462   3.854 -0.0659 -0.3256  0.2571
 5547TIP3    H138132   6.833   1.418   3.822  0.9119  1.4178  0.1105
 5547TIP3    H238133   6.782   1.553   3.867 -1.8259  0.1332  1.0956
 5548TIP3   OH238134   1.185   3.506  15.916  0.5961 -0.3026  0.3933
 5548TIP3    H138135   1.272   3.484  15.950  0.8972  0.1122 -0.0960
 5548TIP3    H238136   1.191   3.491  15.822 -0.1108 -1.0531  0.4551
 5549TIP3   OH238137   5.505   4.276   3.435  0.7501 -0.1666  0.1799
 5549TIP3    H138138   5.600   4.270   3.421  1.0705  0.2242  1.9009
 5549TIP3    H238139   5.497   4.317   3.521 -1.0087  1.9606 -0.8890
 5550TIP3   OH238140   6.534   4.208  16.729 -0.3064 -0.0023 -0.2881
 5550TIP3    H138141   6.453   4.201  16.678 -0.6936 -0.2334  0.3428
 5550TIP3    H238142   6.511   4.171  16.814  1.0570 -2.0727 -0.7498
 5551TIP3   OH238143   6.607   0.486   0.849 -0.3811  0.0451  0.0559
 5551TIP3    H138144   6.641   0.403   0.814  0.7172  1.2180 -1.7928
 5551TIP3    H238145   6.512   0.473   0.851 -0.3801 -0.6579 -1.9334
 5552TIP3   OH238146   6.021   0.135  11.705  0.4352 -0.1617  0.2603
 5552TIP3    H138147   5.927   0.139  11.690  0.5865  0.0424 -0.6940
 5552TIP3    H238148   6.030   0.087  11.788 -0.5135  0.1101  0.5393
 5553TIP3   OH238149   4.662   3.749   0.753 -0.1980  0.1251 -0.1074
 5553TIP3    H138150   4.603   3.694   0.804 -0.9439  0.4346 -0.6145
 5553TIP3    H238151   4.636   3.839   0.774  0.8195  0.2940  0.4955
 5554TIP3   OH238152   4.446   0.271  13.998 -0.2357 -0.3224 -0.2513
 5554TIP3    H138153   4.500   0.302  13.926 -2.1405  1.4439 -1.0029
 5554TIP3    H238154   4.508   0.256  14.069  1.3347  0.8246 -1.3072
 5555TIP3   OH238155   0.925   3.387  17.027 -0.3348  0.8862  0.0174
 5555TIP3    H138156   0.881   3.338  17.097 -0.2625  0.2564 -0.3642
 5555TIP3    H238157   0.950   3.319  16.963  1.8804  1.1317  0.5755
 5556TIP3   OH238158   0.134   1.252  15.594  0.1149 -0.1568 -0.1318
 5556TIP3    H138159   0.056   1.211  15.556 -0.5561  0.0651  0.9549
 5556TIP3    H238160   0.113   1.346  15.595  1.0890  0.1014 -1.3573
 5557TIP3   OH238161   2.079   3.539   2.753  0.2703  0.2561 -0.4069
 5557TIP3    H138162   2.059   3.533   2.846  0.1972 -0.6692 -0.4711
 5557TIP3    H238163   2.080   3.448   2.723  3.3843  0.2449 -0.6618
 5558TIP3   OH238164   0.058   2.677   4.912  0.0662  0.0461 -0.3181
 5558TIP3    H138165   0.114   2.600   4.901 -0.7102 -0.8099  1.3842
 5558TIP3    H238166   0.118   2.748   4.934  0.7660 -0.0828 -1.6680
 5559TIP3   OH238167   3.404   2.756  17.115  0.4267 -0.0679 -0.1602
 5559TIP3    H138168   3.317   2.788  17.137 -0.1848 -1.1856 -0.8853
 5559TIP3    H238169   3.447   2.830  17.071  0.5771  1.1457  1.9074
 5560TIP3   OH238170   5.264   1.458   4.632  0.2994 -0.3938  0.2360
 5560TIP3    H138171   5.322   1.431   4.704 -0.1160 -0.6241  0.4877
 5560TIP3    H238172   5.184   1.488   4.675  0.5144  0.6728 -0.0678
 5561TIP3   OH238173   6.186   5.870  15.828 -0.0354  0.0918  0.1073
 5561TIP3    H138174   6.152   5.840  15.912  1.4804  0.8590  1.0316
 5561TIP3    H238175   6.280   5.876  15.841  0.2767 -0.1447 -1.7836
 5562TIP3   OH238176   6.634   0.564  16.611  0.1596  0.0116 -0.3818
 5562TIP3    H138177   6.636   0.658  16.627 -0.0125  0.3133 -1.9672
 5562TIP3    H238178   6.573   0.553  16.538  0.5062 -1.2777 -0.5106
 5563TIP3   OH238179   1.815   1.872   1.422 -0.4419  0.5683  0.3435
 5563TIP3    H138180   1.745   1.932   1.397 -2.1369 -2.3457 -2.7752
 5563TIP3    H238181   1.781   1.827   1.499 -1.1581  0.5278  0.0098
 5564TIP3   OH238182   3.287   1.378  15.754  0.3867  0.2367  0.0983
 5564TIP3    H138183   3.249   1.400  15.839  0.6838  2.5247 -0.2814
 5564TIP3    H238184   3.372   1.423  15.754 -0.6243  2.3566 -2.2757
 5565TIP3   OH238185   4.221   6.189  11.962  0.1210 -0.6496  0.4307
 5565TIP3    H138186   4.275   6.165  12.037 -2.1290 -0.4489  2.2146
 5565TIP3    H238187   4.154   6.121  11.958  0.2222 -0.6998 -1.5028
 5566TIP3   OH238188   3.336   4.508   4.868  0.0048  0.0226  0.2303
 5566TIP3    H138189   3.399   4.468   4.808  0.5758  0.1820  0.7163
 5566TIP3    H238190   3.278   4.558   4.811  0.0705 -0.4463 -0.2619
 5567TIP3   OH238191   4.162   5.884   5.895  0.5517  0.2684 -0.3739
 5567TIP3    H138192   4.228   5.919   5.835  0.0661  1.2220 -0.3783
 5567TIP3    H238193   4.205   5.883   5.981  0.5779  0.8899 -0.3738
 5568TIP3   OH238194   1.713   2.984  16.061  0.1276 -0.0924 -0.0587
 5568TIP3    H138195   1.698   2.920  15.991 -0.8078 -0.4683  0.4553
 5568TIP3    H238196   1.756   3.057  16.019  0.2616 -0.6352 -0.8762
 5569TIP3   OH238197   5.280   0.878  13.028 -0.4361 -0.0088 -0.3847
 5569TIP3    H138198   5.335   0.956  13.039 -1.1458  0.6639 -1.3711
 5569TIP3    H238199   5.247   0.860  13.116  1.9336 -0.9268  0.4174
 5570TIP3   OH238200   0.345   6.644   1.942  0.5645  0.2896  0.2354
 5570TIP3    H138201   0.264   6.695   1.947  0.1047 -0.2390 -1.2977
 5570TIP3    H238202   0.322   6.558   1.978  0.8684  0.5940  1.1887
 5571TIP3   OH238203   1.195   2.123   1.599  0.3736 -0.2238 -0.3601
 5571TIP3    H138204   1.275   2.137   1.549 -0.1446  0.0737 -1.1324
 5571TIP3    H238205   1.127   2.114   1.532 -0.0574 -1.7120  0.2406
 5572TIP3   OH238206   4.045   2.543  15.870 -0.1224 -0.0590 -0.1414
 5572TIP3    H138207   4.069   2.621  15.820 -1.8733  1.8906  1.8413
 5572TIP3    H238208   4.096   2.550  15.951  0.6442 -1.6971 -0.4432
 5573TIP3   OH238209   6.729   3.527  13.412  0.2962  0.0692 -0.2102
 5573TIP3    H138210   6.740   3.566  13.325  3.3029  0.5547  0.3080
 5573TIP3    H238211   6.724   3.602  13.472 -3.7753 -0.1629  0.0155
 5574TIP3   OH238212   3.140   3.961  12.892 -0.1707  0.5021  0.0956
 5574TIP3    H138213   3.211   3.920  12.842 -0.0529 -0.6388  1.1298
 5574TIP3    H238214   3.060   3.930  12.850 -0.0649  0.4756 -0.0874
 5575TIP3   OH238215   5.700   4.152   0.854  0.5875  0.0228  0.3715
 5575TIP3    H138216   5.733   4.236   0.821 -0.3930  0.6762  0.9766
 5575TIP3    H238217   5.668   4.107   0.777  1.6266 -0.0524 -0.0401
 5576TIP3   OH238218   3.001   2.127  11.680  0.2718 -0.3931 -0.0378
 5576TIP3    H138219   2.907   2.120  11.693  0.1403  1.4656  0.1591
 5576TIP3    H238220   3.022   2.056  11.618 -0.6277 -3.1559  2.5837
 5577TIP3   OH238221   4.113   2.958   1.389 -0.1568 -0.0734  0.7629
 5577TIP3    H138222   4.020   2.959   1.366 -0.9632 -0.2111  3.6350
 5577TIP3    H238223   4.158   2.945   1.306 -2.7588 -1.4759 -0.5527
 5578TIP3   OH238224   2.078   2.042  11.153  0.1300 -0.1286  0.9361
 5578TIP3    H138225   2.058   1.988  11.077  1.2260 -1.3533  1.4886
 5578TIP3    H238226   2.173   2.054  11.151  0.1446  0.0570  1.9583
 5579TIP3   OH238227   4.961   5.357  10.618  0.3387 -0.3932 -0.6937
 5579TIP3    H138228   4.973   5.325  10.708  0.9603  0.7739 -0.3386
 5579TIP3    H238229   4.915   5.440  10.628  0.1615 -0.3924 -1.4741
 5580TIP3   OH238230   0.058   5.290   6.141  0.4049 -0.8388  0.0127
 5580TIP3    H138231  -0.017   5.250   6.185 -0.5362  0.0350 -0.7537
 5580TIP3    H238232   0.107   5.333   6.211 -0.3991 -0.4953  0.3719
 5581TIP3   OH238233   5.848   1.927   3.535 -0.2135  0.4185  0.2305
 5581TIP3    H138234   5.800   1.919   3.453 -1.0010  3.5828  0.2458
 5581TIP3    H238235   5.782   1.919   3.603 -0.3363  2.0918  0.3475
 5582TIP3   OH238236   4.962   2.179  14.816 -0.3329  0.0383  0.0600
 5582TIP3    H138237   4.996   2.226  14.892  1.0175 -0.5288 -0.1698
 5582TIP3    H238238   4.868   2.176  14.830 -0.3619  1.9432  0.5700
 5583TIP3   OH238239   0.730   3.503  13.039 -0.3730  0.2460  0.2452
 5583TIP3    H138240   0.821   3.531  13.028 -0.3371 -0.3256 -1.2402
 5583TIP3    H238241   0.730   3.452  13.120  1.2082 -1.7656 -0.8962
 5584TIP3   OH238242   4.303   4.158  10.720  0.1931  0.0071 -0.1110
 5584TIP3    H138243   4.225   4.209  10.700 -0.9265 -0.6369  2.2077
 5584TIP3    H238244   4.373   4.223  10.725 -0.9120  1.1766  1.2571
 5585TIP3   OH238245   2.137   5.665   5.814 -0.2726  0.1996 -0.3806
 5585TIP3    H138246   2.199   5.730   5.847  0.7430 -0.9019 -0.0847
 5585TIP3    H238247   2.142   5.674   5.719  0.9683 -0.4473 -0.3837
 5586TIP3   OH238248   0.709   4.375   2.740  0.0149 -0.0968 -0.2037
 5586TIP3    H138249   0.663   4.364   2.824  0.6120  3.4543  0.7332
 5586TIP3    H238250   0.768   4.299   2.736  0.0684 -0.3351  2.6839
 5587TIP3   OH238251   0.953   3.929  10.749 -0.3495 -0.1951 -0.2487
 5587TIP3    H138252   1.000   3.892  10.674 -0.3361 -0.6829 -0.0081
 5587TIP3    H238253   0.903   3.855  10.784  0.0270 -0.1003  0.5196
 5588TIP3   OH238254   5.363   2.359  16.998 -0.4945 -0.3899  0.1379
 5588TIP3    H138255   5.375   2.342  17.091  2.2557 -1.2164 -0.2604
 5588TIP3    H238256   5.416   2.437  16.981 -1.0584 -0.1773 -0.7040
 5589TIP3   OH238257   3.205   4.509   5.481  0.6202 -0.1044  0.3646
 5589TIP3    H138258   3.115   4.484   5.460  0.6067 -1.3978  1.7123
 5589TIP3    H238259   3.196   4.584   5.539  0.4267  0.0622  0.1197
 5590TIP3   OH238260   5.780   0.614  16.719  0.7666 -0.0410  0.1429
 5590TIP3    H138261   5.705   0.566  16.753 -0.4043  0.7595 -1.2071
 5590TIP3    H238262   5.782   0.591  16.625  0.5759  1.9844 -0.3908
 5591TIP3   OH238263   5.623   4.487   4.110  0.1000 -0.2648  0.0983
 5591TIP3    H138264   5.586   4.513   4.194 -1.6975 -1.3557 -0.3046
 5591TIP3    H238265   5.619   4.565   4.055 -0.4176 -0.0368  0.4630
 5592TIP3   OH238266   5.097   5.334  14.277  0.2571 -0.0367 -0.1849
 5592TIP3    H138267   5.117   5.426  14.294  0.6479 -0.0502 -0.5580
 5592TIP3    H238268   5.175   5.300  14.234  0.6736 -0.9054  1.2037
 5593TIP3   OH238269   1.187   5.629  15.995  0.1410  0.0890  0.0953
 5593TIP3    H138270   1.129   5.631  15.919 -0.4381  2.7186  0.4764
 5593TIP3    H238271   1.259   5.687  15.971  0.4527  0.1675  1.1745
 5594TIP3   OH238272   3.891   4.090  15.760 -0.1606 -0.4199 -0.5322
 5594TIP3    H138273   3.904   4.007  15.807  0.4360  0.7218  1.3949
 5594TIP3    H238274   3.910   4.158  15.824 -0.8727  1.2493 -2.0029
 5595TIP3   OH238275   0.319   6.335   1.871  0.5537 -0.0434 -0.0271
 5595TIP3    H138276   0.314   6.352   1.965 -0.7371  1.0079 -0.2613
 5595TIP3    H238277   0.329   6.240   1.865 -0.3416 -0.2430  1.1513
 5596TIP3   OH238278   1.184   4.406  17.211 -0.0008 -0.1427 -0.4003
 5596TIP3    H138279   1.241   4.358  17.151 -0.0548 -0.7394  0.0143
 5596TIP3    H238280   1.181   4.352  17.290  0.2425  0.7447  0.2280
 5597TIP3   OH238281   2.533   2.967  15.267 -0.2242  0.3283  0.1937
 5597TIP3    H138282   2.454   3.017  15.245  0.2422  0.8637 -0.3097
 5597TIP3    H238283   2.522   2.946  15.360 -1.3391 -0.3235 -0.0665
 5598TIP3   OH238284   5.680   4.251  16.144 -0.4301 -0.5626 -0.1859
 5598TIP3    H138285   5.659   4.284  16.057 -0.2473 -0.9499 -0.3794
 5598TIP3    H238286   5.766   4.211  16.135 -0.0931  0.0175  0.3355
 5599TIP3   OH238287   5.713   5.995  14.756  0.2392  0.3064  0.3669
 5599TIP3    H138288   5.757   5.920  14.715 -1.3133  0.4505 -1.6735
 5599TIP3    H238289   5.754   6.072  14.716 -0.6683  0.4622 -0.2891
 5600TIP3   OH238290   4.971   2.187  13.589 -0.1793 -0.7074 -0.3551
 5600TIP3    H138291   4.909   2.235  13.535  0.5022  1.2360  0.4825
 5600TIP3    H238292   4.921   2.113  13.624 -0.9571 -1.3155 -2.5975
 5601TIP3   OH238293   1.221   2.267   4.960  0.1895 -0.2556 -0.2592
 5601TIP3    H138294   1.310   2.293   4.937  0.9828 -1.7001  0.9949
 5601TIP3    H238295   1.223   2.256   5.055 -0.8675 -1.9816 -0.4028
 5602TIP3   OH238296   1.564   1.597   4.894  0.1403 -0.3726  0.0598
 5602TIP3    H138297   1.566   1.501   4.887 -2.6664 -0.5453  0.2316
 5602TIP3    H238298   1.653   1.625   4.876  0.7659 -2.9491 -1.3221
 5603TIP3   OH238299   3.677   5.606  15.556 -0.1549  0.6353 -0.1934
 5603TIP3    H138300   3.755   5.656  15.578  0.2455 -0.6816  1.5799
 5603TIP3    H238301   3.653   5.636  15.468  0.9081  2.8205  0.1901
 5604TIP3   OH238302   1.897   2.376   5.870  0.5486 -0.0044  0.2482
 5604TIP3    H138303   1.897   2.379   5.966 -0.9575  2.7215  0.2497
 5604TIP3    H238304   1.805   2.377   5.845  0.9308  0.4292 -1.2517
 5605TIP3   OH238305   3.000   4.109  13.927  0.2223  0.6462  0.0606
 5605TIP3    H138306   3.022   4.141  14.015 -0.9872 -0.0267  0.6358
 5605TIP3    H238307   2.907   4.126  13.918 -0.3736 -2.1372  0.1816
 5606TIP3   OH238308   6.780   2.229   0.138 -0.0366  0.1214 -0.3425
 5606TIP3    H138309   6.695   2.275   0.140  0.0442  0.2935 -0.7345
 5606TIP3    H238310   6.758   2.138   0.155 -0.1694  0.3368  0.7744
 5607TIP3   OH238311   4.229   1.378  14.772  0.3385  0.1154  0.3917
 5607TIP3    H138312   4.198   1.467  14.757 -2.3551 -0.6555  0.9971
 5607TIP3    H238313   4.257   1.348  14.686  1.8366  1.6650  0.2676
 5608TIP3   OH238314   5.894   3.369  15.258 -0.1825  0.3510  0.1445
 5608TIP3    H138315   5.839   3.420  15.316 -0.4021  2.5497 -1.8449
 5608TIP3    H238316   5.973   3.422  15.246  0.2895 -0.5104 -0.7706
 5609TIP3   OH238317   5.814   0.346  15.018  0.0745 -0.3238 -0.5693
 5609TIP3    H138318   5.736   0.355  15.073 -0.3332  0.9883 -1.3379
 5609TIP3    H238319   5.781   0.321  14.932  0.6342 -1.2830 -0.5241
 5610TIP3   OH238320   2.476   3.490   0.134  0.0492 -0.2545  0.2074
 5610TIP3    H138321   2.459   3.504   0.227  0.1638 -0.7414  0.3022
 5610TIP3    H238322   2.476   3.395   0.123  5.0989 -0.5922  0.7381
 5611TIP3   OH238323   3.199   1.372   4.702  0.5222 -0.2504  0.2971
 5611TIP3    H138324   3.185   1.435   4.774  0.1511 -0.0453  0.0505
 5611TIP3    H238325   3.221   1.290   4.747 -1.4425 -0.5900  0.7505
 5612TIP3   OH238326   4.150   1.924  15.297  0.3663 -0.1803 -0.4312
 5612TIP3    H138327   4.176   2.008  15.335 -2.1808  1.2399 -1.6300
 5612TIP3    H238328   4.078   1.894  15.351  0.4889 -1.0395 -0.7275
 5613TIP3   OH238329   1.375   1.438  12.812 -0.7270 -0.1210 -0.6450
 5613TIP3    H138330   1.291   1.484  12.820 -0.8567 -0.4669  0.0645
 5613TIP3    H238331   1.355   1.347  12.832 -0.4390 -0.4820 -1.8937
 5614TIP3   OH238332   4.660   5.204  11.784  0.0043  0.1332 -0.8057
 5614TIP3    H138333   4.578   5.168  11.818  0.4525 -0.1667 -0.0219
 5614TIP3    H238334   4.693   5.260  11.854  0.2448  0.6114 -1.2956
 5615TIP3   OH238335   6.059   4.231   3.426  0.9407  0.0315 -0.5305
 5615TIP3    H138336   6.085   4.147   3.389 -0.8134  0.1365 -2.1590
 5615TIP3    H238337   6.079   4.295   3.357  1.1449  0.7999  0.2157
 5616TIP3   OH238338   6.035   0.455  14.036  0.3755 -0.1820  0.2869
 5616TIP3    H138339   5.972   0.501  14.091  0.3008 -0.3086  0.3058
 5616TIP3    H238340   6.121   0.482  14.070  0.3470  0.5780 -0.2153
 5617TIP3   OH238341   5.695   5.505  13.141 -0.3111  0.6065 -0.3249
 5617TIP3    H138342   5.775   5.518  13.089  1.1389  0.6371  1.7772
 5617TIP3    H238343   5.676   5.592  13.177 -0.4471  0.3129  0.3196
 5618TIP3   OH238344   6.459   5.357   0.885 -0.1239  0.7383 -0.1972
 5618TIP3    H138345   6.536   5.305   0.864 -1.8154 -2.5059  0.9084
 5618TIP3    H238346   6.413   5.366   0.802 -0.8984 -1.6261 -0.0946
 5619TIP3   OH238347   5.785   0.944   4.231 -0.0039  0.0666 -0.3348
 5619TIP3    H138348   5.723   0.925   4.160  0.2649 -0.0385 -0.5446
 5619TIP3    H238349   5.865   0.972   4.186  0.3406 -0.4992 -0.0953
 5620TIP3   OH238350   3.359   1.693   0.005 -0.4004  0.6532  0.4485
 5620TIP3    H138351   3.422   1.673   0.074  0.8304  1.3516 -0.4219
 5620TIP3    H238352   3.336   1.785   0.019 -2.1119  0.1042  1.4200
 5621TIP3   OH238353   5.168   5.506  16.949  0.6482 -0.1009 -0.6426
 5621TIP3    H138354   5.193   5.413  16.944 -0.7499 -0.9700  3.7812
 5621TIP3    H238355   5.092   5.513  16.891 -0.4447 -2.3150  0.3785
 5622TIP3   OH238356   2.123   5.201   1.876  0.4079  0.3300 -0.1406
 5622TIP3    H138357   2.034   5.221   1.847  0.3758 -0.6403 -0.7624
 5622TIP3    H238358   2.112   5.172   1.967  0.2783  1.5668  0.2578
 5623TIP3   OH238359   3.693   4.469  16.271  0.2749  0.2670  0.5849
 5623TIP3    H138360   3.703   4.375  16.290  0.8357  0.0121 -0.8319
 5623TIP3    H238361   3.695   4.511  16.357  1.7351 -0.8671  1.1588
 5624TIP3   OH238362   1.864   1.087   0.186  0.0247  0.0501  0.6260
 5624TIP3    H138363   1.795   1.087   0.119  1.3281  0.5131 -0.7770
 5624TIP3    H238364   1.832   1.147   0.253 -0.5097  1.0334 -0.4709
 5625TIP3   OH238365   4.651   0.582  15.358 -0.6490 -0.3146 -0.0113
 5625TIP3    H138366   4.742   0.570  15.334 -0.7074 -2.9625  0.7416
 5625TIP3    H238367   4.653   0.644  15.431  0.4686  0.1356 -0.4183
 5626TIP3   OH238368   0.297   0.103  14.212 -0.3377  0.2510 -0.5803
 5626TIP3    H138369   0.369   0.154  14.175 -0.7786  0.9640 -0.4776
 5626TIP3    H238370   0.227   0.109  14.147 -0.8245  0.8216 -0.0138
 5627TIP3   OH238371   0.972   4.664   5.972 -0.0816 -0.0539  0.0225
 5627TIP3    H138372   0.944   4.692   5.885 -1.4137  1.1938  0.8033
 5627TIP3    H238373   1.064   4.690   5.977 -0.9278  3.3036  0.2623
 5628TIP3   OH238374   3.603   6.522   3.598 -0.6822 -0.3476 -0.2728
 5628TIP3    H138375   3.674   6.481   3.549  0.5903 -0.1468  1.3293
 5628TIP3    H238376   3.615   6.492   3.688 -0.8673  1.9482  0.5830
 5629TIP3   OH238377   2.856   2.488   5.587 -0.3120 -0.5576  0.6044
 5629TIP3    H138378   2.786   2.425   5.606  0.5841 -1.9565 -0.5229
 5629TIP3    H238379   2.815   2.553   5.530 -0.7087 -1.3371 -0.0070
 5630TIP3   OH238380   0.042   2.518   1.060 -0.0036 -0.0464  0.3768
 5630TIP3    H138381   0.034   2.609   1.030 -0.0074 -0.1144  0.1654
 5630TIP3    H238382   0.027   2.522   1.154 -0.0481  0.1664  0.3617
 5631TIP3   OH238383   3.119   5.993   1.485 -0.8769 -0.0687  1.0399
 5631TIP3    H138384   3.155   5.912   1.450  0.3196  0.1603  1.7005
 5631TIP3    H238385   3.024   5.984   1.474 -0.7039 -1.2079  0.3895
 5632TIP3   OH238386   1.487   0.107  14.823  0.3354 -0.2108 -0.0549
 5632TIP3    H138387   1.448   0.079  14.906 -0.3040 -1.1397 -0.6530
 5632TIP3    H238388   1.430   0.178  14.793 -0.4371 -1.0218 -0.5304
 5633TIP3   OH238389   0.225   2.897   1.971  0.2633  0.6961  0.8713
 5633TIP3    H138390   0.194   2.808   1.982 -0.3084  0.3777 -2.3487
 5633TIP3    H238391   0.153   2.953   2.000 -1.3997  0.0038 -1.6974
 5634TIP3   OH238392   5.772   5.219  12.175  0.0746 -0.3495  0.0072
 5634TIP3    H138393   5.858   5.177  12.179 -0.1239 -0.7690 -0.1039
 5634TIP3    H238394   5.731   5.197  12.258 -0.2950 -0.9593 -0.3279
 5635TIP3   OH238395   1.635   5.779   4.929  0.6263  0.6124  0.1024
 5635TIP3    H138396   1.612   5.804   5.019 -0.9658 -0.1862 -0.0482
 5635TIP3    H238397   1.695   5.705   4.939  2.3418  1.9910  0.4978
 5636TIP3   OH238398   1.596   5.990   5.914  0.0176  0.8272  0.0220
 5636TIP3    H138399   1.627   6.033   5.994 -1.4354  1.2880  0.3757
 5636TIP3    H238400   1.509   5.958   5.936  0.8069 -1.8440 -0.4291
 5637TIP3   OH238401   0.010   6.176   3.878 -0.2296 -0.5247 -0.2042
 5637TIP3    H138402  -0.072   6.224   3.887 -0.0425 -0.3525  0.6934
 5637TIP3    H238403   0.053   6.215   3.803 -0.2333  0.4996  0.3047
 5638TIP3   OH238404   4.705   2.984  16.433 -0.3697  0.3697  0.0803
 5638TIP3    H138405   4.685   2.931  16.356 -0.4809 -1.3120  1.2172
 5638TIP3    H238406   4.756   2.926  16.490 -0.4823  1.4919  1.3813
 5639TIP3   OH238407   2.773   0.424  12.480 -0.0043 -0.9357 -0.2889
 5639TIP3    H138408   2.847   0.459  12.528  1.2521 -2.2225 -1.1964
 5639TIP3    H238409   2.699   0.430  12.541  0.7741  0.5514  0.5581
 5640TIP3   OH238410   3.728   3.388  15.710  0.6916  0.0691 -0.3890
 5640TIP3    H138411   3.729   3.478  15.743  0.9350 -0.5203  1.3286
 5640TIP3    H238412   3.683   3.394  15.626 -0.9940  1.5278  0.5289
 5641TIP3   OH238413   1.018   0.966   2.485  0.1740  0.0090  0.2497
 5641TIP3    H138414   1.084   0.979   2.553  0.6380 -0.6574 -0.0602
 5641TIP3    H238415   1.069   0.956   2.405 -0.3371  0.1117 -0.0914
 5642TIP3   OH238416   4.235   1.397  13.014 -0.0667  0.0810 -0.2577
 5642TIP3    H138417   4.264   1.473  13.064  0.5321 -0.3241  0.0168
 5642TIP3    H238418   4.277   1.406  12.928 -0.1896  0.1816 -0.3089
 5643TIP3   OH238419   1.424   4.412  13.473 -0.4075  0.4029 -0.1398
 5643TIP3    H138420   1.505   4.366  13.452 -0.9702 -1.5429  1.6643
 5643TIP3    H238421   1.421   4.413  13.568 -2.4348  0.5709 -0.1755
 5644TIP3   OH238422   5.400   2.248  11.500  0.1017 -0.2347 -0.0101
 5644TIP3    H138423   5.481   2.246  11.550 -0.0972 -2.2913  0.2961
 5644TIP3    H238424   5.331   2.236  11.565 -0.2708 -1.0504 -0.5349
 5645TIP3   OH238425   6.725   0.113  15.284 -0.4146 -0.2000 -0.1405
 5645TIP3    H138426   6.725   0.085  15.375 -0.4824 -0.6257 -0.2706
 5645TIP3    H238427   6.768   0.199  15.286 -1.5534  0.3843  0.4585
 5646TIP3   OH238428   3.529   1.766  11.068 -0.0111 -0.3317 -0.3169
 5646TIP3    H138429   3.467   1.781  10.997 -2.1900  0.1847  1.5871
 5646TIP3    H238430   3.544   1.853  11.106  1.7677 -0.4768 -0.5727
 5647TIP3   OH238431   3.491   0.218   5.029 -0.3306 -0.5122 -1.2872
 5647TIP3    H138432   3.406   0.219   4.984 -0.1391  0.5271 -1.6355
 5647TIP3    H238433   3.496   0.130   5.068 -1.4579 -0.6641 -1.4594
 5648TIP3   OH238434   6.543   6.057   5.131 -0.0407 -0.1645  0.8348
 5648TIP3    H138435   6.557   6.143   5.170  0.4990  0.0496  0.1842
 5648TIP3    H238436   6.608   6.051   5.061 -0.9087 -0.5880  0.0465
 5649TIP3   OH238437   3.098   4.962  13.574  0.4481  0.0704 -0.4617
 5649TIP3    H138438   3.062   4.873  13.565 -2.2482  1.0332  0.0303
 5649TIP3    H238439   3.153   4.958  13.652 -1.1885 -0.7512  0.7122
 5650TIP3   OH238440   1.635   0.637   3.536  0.0503  0.2500 -0.0402
 5650TIP3    H138441   1.658   0.545   3.526 -1.4148 -0.1834  0.4654
 5650TIP3    H238442   1.713   0.677   3.576  0.4648 -0.8961  0.3236
 5651TIP3   OH238443   3.887   1.188  11.678 -0.1096  0.3596  0.4912
 5651TIP3    H138444   3.858   1.099  11.696  0.5523  0.2809  1.2003
 5651TIP3    H238445   3.812   1.243  11.698  0.4974  0.2677  3.4041
 5652TIP3   OH238446   5.005   1.924  13.158 -0.4728  0.1119 -0.3310
 5652TIP3    H138447   5.057   1.854  13.119  0.6616  0.8518 -0.1866
 5652TIP3    H238448   5.044   2.005  13.125  1.2348  0.8405  3.0120
 5653TIP3   OH238449   5.096   4.577   5.661 -0.1841 -0.7078  0.1963
 5653TIP3    H138450   5.167   4.522   5.692 -1.2304 -1.5629  1.1656
 5653TIP3    H238451   5.071   4.630   5.737  0.1460  0.4116 -0.4504
 5654TIP3   OH238452   0.809   1.016   4.045 -0.6033  0.0043  0.1059
 5654TIP3    H138453   0.734   1.006   4.104 -1.8503  2.2908 -0.9856
 5654TIP3    H238454   0.797   1.101   4.004  2.1515  0.0711 -0.8016
 5655TIP3   OH238455   1.863   2.245  11.618 -0.0637  0.2098  0.0167
 5655TIP3    H138456   1.909   2.288  11.546  0.6614 -0.9270 -0.2187
 5655TIP3    H238457   1.790   2.304  11.638  0.5237  1.2279 -0.7126
 5656TIP3   OH238458   5.645   1.726  11.701 -0.6338 -0.3926  0.1958
 5656TIP3    H138459   5.657   1.732  11.795  2.3709  3.0134 -0.2250
 5656TIP3    H238460   5.581   1.794  11.680  0.2948  0.3396 -0.3642
 5657TIP3   OH238461   5.107   3.127  14.345  0.4188 -1.0534 -0.4103
 5657TIP3    H138462   5.045   3.090  14.407  0.2879 -0.2332 -0.0389
 5657TIP3    H238463   5.052   3.168  14.278  0.5567 -2.1038 -1.1874
 5658TIP3   OH238464   1.638   3.088  11.292  0.1564 -0.7247  0.0556
 5658TIP3    H138465   1.694   3.145  11.239  1.6600 -2.7092 -0.6086
 5658TIP3    H238466   1.692   3.012  11.311 -1.5240 -1.6297  1.5359
 5659TIP3   OH238467   4.262   2.035  10.591 -0.0423 -0.4448  0.1601
 5659TIP3    H138468   4.319   1.973  10.546 -1.6272 -1.2304 -0.8401
 5659TIP3    H238469   4.174   2.017  10.558 -0.9714  0.4381  1.9439
 5660TIP3   OH238470   6.798   2.123  11.190  0.3350  0.1347  0.3120
 5660TIP3    H138471   6.779   2.216  11.182 -0.3516 -0.0257  0.0230
 5660TIP3    H238472   6.858   2.104  11.117  0.5814  0.3722  0.4513
 5661TIP3   OH238473   6.666   3.690   0.499 -0.4209 -0.2173  0.3879
 5661TIP3    H138474   6.626   3.777   0.495  1.4889  0.8110  1.7457
 5661TIP3    H238475   6.668   3.660   0.408 -1.1456  1.1573 -0.1049
 5662TIP3   OH238476   0.432   2.378  12.082  0.5117 -0.8535  0.1087
 5662TIP3    H138477   0.373   2.309  12.112  0.4671 -1.6758 -1.7258
 5662TIP3    H238478   0.515   2.360  12.127  0.2656 -1.6310  0.2590
 5663TIP3   OH238479   4.255   3.455   3.751 -0.2826  0.3329  0.1225
 5663TIP3    H138480   4.193   3.385   3.737 -0.9657  1.1279 -1.0469
 5663TIP3    H238481   4.326   3.415   3.801 -0.7618 -1.1106 -0.3061
 5664TIP3   OH238482   3.931   1.611   2.968 -0.1021  0.8370  0.3661
 5664TIP3    H138483   3.997   1.571   2.911  0.1518  0.5763  0.8395
 5664TIP3    H238484   3.883   1.671   2.911  1.5690  2.2390  0.3611
 5665TIP3   OH238485   0.874   2.933   6.625 -0.1643 -0.4939  0.2906
 5665TIP3    H138486   0.805   2.988   6.588 -0.6281 -2.4236 -1.9514
 5665TIP3    H238487   0.861   2.938   6.720 -1.8778  1.0474  0.0246
 5666TIP3   OH238488   5.398   4.228   3.202 -0.0465 -0.3237 -0.3714
 5666TIP3    H138489   5.424   4.216   3.294 -0.4852 -1.2201 -0.3474
 5666TIP3    H238490   5.376   4.321   3.195  1.1814  0.0168  0.1118
 5667TIP3   OH238491   6.788   3.418   1.820  0.3404  0.0789 -0.5665
 5667TIP3    H138492   6.858   3.360   1.789  1.8957  1.7722 -0.4271
 5667TIP3    H238493   6.737   3.438   1.741  1.4412  0.6522 -1.1622
 5668TIP3   OH238494   1.982   0.435   0.249  0.1050  0.6301 -0.2336
 5668TIP3    H138495   1.895   0.459   0.218  0.6385  2.2363 -0.5871
 5668TIP3    H238496   2.004   0.356   0.199 -0.8058  0.6823 -0.7432
 5669TIP3   OH238497   5.001   3.728  11.622 -0.6487 -0.2133  0.1353
 5669TIP3    H138498   4.914   3.766  11.633 -1.0292 -0.7421 -0.9687
 5669TIP3    H238499   5.006   3.704  11.529  0.9336  0.4547  0.0010
 5670TIP3   OH238500   2.070   3.668  16.674 -0.3898 -0.2409 -0.4587
 5670TIP3    H138501   2.046   3.701  16.588  0.2904  1.5484 -0.0199
 5670TIP3    H238502   2.098   3.746  16.722 -0.7178 -1.1974  1.3722
 5671TIP3   OH238503   0.319   6.509  16.323  0.3123  0.1170 -0.0198
 5671TIP3    H138504   0.390   6.457  16.285  0.6639 -1.1429  2.2283
 5671TIP3    H238505   0.240   6.474  16.283  0.8083  0.6981 -1.6145
 5672TIP3   OH238506   2.096   5.336   4.335  0.0290 -0.5568  0.2102
 5672TIP3    H138507   2.012   5.335   4.381  0.0808  0.1602  0.3231
 5672TIP3    H238508   2.139   5.255   4.363  0.0254 -0.1761  1.3522
 5673TIP3   OH238509   2.100   1.201  11.424 -0.4368  0.0945 -0.0701
 5673TIP3    H138510   2.116   1.250  11.343  1.6364 -2.7890 -1.6431
 5673TIP3    H238511   2.023   1.146  11.404  0.2066 -0.7781 -0.2290
 5674TIP3   OH238512   3.879   5.269  13.718 -0.1677  0.1177  0.2314
 5674TIP3    H138513   3.916   5.256  13.805  0.5489  0.5439 -0.0026
 5674TIP3    H238514   3.935   5.335  13.678 -0.4595 -0.1160 -0.5741
 5675TIP3   OH238515   4.009   6.050   0.790 -0.6693 -0.5856  0.3377
 5675TIP3    H138516   3.962   6.109   0.731 -0.9349 -0.7286  0.4034
 5675TIP3    H238517   3.940   6.001   0.835 -0.4358 -1.5533 -0.3386
 5676TIP3   OH238518   1.150   2.268   1.180 -0.1199 -0.2668 -0.0428
 5676TIP3    H138519   1.124   2.286   1.090  0.9067  1.0607 -0.1109
 5676TIP3    H238520   1.074   2.292   1.232 -0.1870  0.4647 -0.4601
 5677TIP3   OH238521   2.955   2.316   2.257  0.6696 -0.0956 -0.3428
 5677TIP3    H138522   3.009   2.242   2.228  1.6378  0.7505 -0.7880
 5677TIP3    H238523   3.019   2.382   2.285 -0.1425  0.8035 -0.5437
 5678TIP3   OH238524   1.217   0.115   0.649  0.0998 -0.4745 -0.2130
 5678TIP3    H138525   1.234   0.053   0.578  0.2231  2.2578 -2.7802
 5678TIP3    H238526   1.304   0.149   0.672  0.1173 -1.6322  1.6880
 5679TIP3   OH238527   2.291   2.505   6.225  0.2105 -0.4515  0.1238
 5679TIP3    H138528   2.310   2.420   6.264 -0.7400 -0.7933 -0.1171
 5679TIP3    H238529   2.267   2.485   6.135 -0.0918  0.0576  0.0856
 5680TIP3   OH238530   4.319   6.326  14.856 -0.1944 -0.2567 -0.0642
 5680TIP3    H138531   4.302   6.388  14.785  0.4914  0.5229  0.4309
 5680TIP3    H238532   4.254   6.347  14.923  0.1697  0.0684  0.1888
 5681TIP3   OH238533   1.979   4.166  11.420  0.6929  0.4024 -0.2219
 5681TIP3    H138534   1.922   4.197  11.490  1.5774  3.0593 -0.5803
 5681TIP3    H238535   2.033   4.098  11.462  0.0369  0.7100  1.1963
 5682TIP3   OH238536   6.052   5.137   2.875 -0.6530  0.3166 -0.0639
 5682TIP3    H138537   6.069   5.166   2.786 -0.0875 -0.9242 -0.3787
 5682TIP3    H238538   6.056   5.217   2.927  3.0326  0.6487 -0.5735
 5683TIP3   OH238539   0.114   4.890  14.034  0.0290 -0.0425  0.2425
 5683TIP3    H138540   0.186   4.858  14.088 -0.6635 -1.3731  0.4097
 5683TIP3    H238541   0.086   4.971  14.077  0.3133 -0.4115  1.1420
 5684TIP3   OH238542   1.341   2.853   5.011 -0.0934  0.0475  0.3626
 5684TIP3    H138543   1.329   2.877   4.920 -3.9231 -1.3013  0.3292
 5684TIP3    H238544   1.412   2.788   5.010 -0.1331 -0.0142 -1.6497
 5685TIP3   OH238545   3.261   5.691  15.678 -0.1119  0.3623  0.4493
 5685TIP3    H138546   3.271   5.619  15.740 -0.1866 -0.3592 -0.3417
 5685TIP3    H238547   3.275   5.650  15.592 -0.3150  1.2656 -0.0310
 5686TIP3   OH238548   4.318   2.219   4.048 -0.6441  0.0070  0.4251
 5686TIP3    H138549   4.345   2.131   4.021 -0.1610  0.0230  0.8313
 5686TIP3    H238550   4.387   2.247   4.108 -0.2921  1.0468 -0.4475
 5687TIP3   OH238551   3.875   3.782   3.887 -0.5725  0.1970 -0.1855
 5687TIP3    H138552   3.896   3.849   3.952  0.5935 -0.7463  0.4454
 5687TIP3    H238553   3.866   3.830   3.804 -2.7478  1.5081  0.7344
 5688TIP3   OH238554   5.464   1.326  14.426 -0.6578  0.2792 -0.4377
 5688TIP3    H138555   5.392   1.352  14.484 -2.3876  0.1969 -2.4134
 5688TIP3    H238556   5.480   1.234  14.447 -0.5891  0.5061  0.5467
 5689TIP3   OH238557   4.239   1.695   4.248 -0.2561  0.3119  0.5028
 5689TIP3    H138558   4.154   1.707   4.292  0.5869  2.7268  1.6775
 5689TIP3    H238559   4.267   1.607   4.273 -2.3460 -0.5039  0.1683
 5690TIP3   OH238560   5.352   0.226   3.883 -0.4645  0.2886 -0.2481
 5690TIP3    H138561   5.371   0.142   3.840 -1.4343 -0.1212  0.0825
 5690TIP3    H238562   5.437   0.268   3.892 -0.1568  0.0954 -1.9502
 5691TIP3   OH238563   6.623   3.006  15.861  0.4667  0.2397  0.8408
 5691TIP3    H138564   6.529   2.993  15.846  0.4551  0.5293  0.6656
 5691TIP3    H238565   6.639   3.097  15.838  1.1691 -0.3252 -1.1504
 5692TIP3   OH238566   4.878   5.687   3.338  0.3907 -0.5271  0.6604
 5692TIP3    H138567   4.865   5.677   3.432  1.8272 -0.5079  0.8781
 5692TIP3    H238568   4.953   5.631   3.317 -0.0349 -0.6922 -0.5161
 5693TIP3   OH238569   6.514   1.913  14.594  0.3244  0.2876 -0.6992
 5693TIP3    H138570   6.601   1.897  14.556  0.1430 -0.7549 -0.6789
 5693TIP3    H238571   6.453   1.879  14.529 -0.0669  0.6447 -0.5252
 5694TIP3   OH238572   4.995   3.172   5.030 -0.1830  0.0017  0.2808
 5694TIP3    H138573   4.969   3.130   4.948 -0.2488  0.2026  0.1958
 5694TIP3    H238574   5.064   3.116   5.066  0.0114  0.0383 -0.0319
 5695TIP3   OH238575   1.263   6.636  16.303  0.7935  0.0549 -0.2522
 5695TIP3    H138576   1.277   6.684  16.384 -2.1106  0.0901  0.3239
 5695TIP3    H238577   1.343   6.584  16.293  2.1778  1.7086  1.3997
 5696TIP3   OH238578   4.232   4.382  14.463 -0.3890 -0.1949  0.1172
 5696TIP3    H138579   4.151   4.340  14.435 -0.7832  0.9899 -0.5802
 5696TIP3    H238580   4.240   4.359  14.556  0.0507 -2.7666 -0.4892
 5697TIP3   OH238581   0.832   5.914   3.718  0.2784 -0.1730  0.9502
 5697TIP3    H138582   0.756   5.868   3.682  0.9009  0.2393 -0.9685
 5697TIP3    H238583   0.801   6.003   3.732  0.1483 -0.2417  1.1164
 5698TIP3   OH238584   2.379   4.763   4.879 -0.2458 -0.3555 -0.1971
 5698TIP3    H138585   2.372   4.690   4.940 -1.0581 -0.2995 -0.2050
 5698TIP3    H238586   2.466   4.798   4.894 -0.3709 -0.4303  0.8427
 5699TIP3   OH238587   0.761   5.903   4.989 -0.9563  0.0227 -0.1470
 5699TIP3    H138588   0.762   5.903   5.084  2.8467  1.0465 -0.0090
 5699TIP3    H238589   0.748   5.812   4.964 -1.0772 -0.3920  1.3523
 5700TIP3   OH238590   5.926   2.343  13.470 -0.0622 -0.4479  0.2835
 5700TIP3    H138591   6.006   2.316  13.515  0.3540 -0.0464 -0.1986
 5700TIP3    H238592   5.957   2.391  13.394 -0.7665 -0.4530 -0.0140
 5701TIP3   OH238593   1.009   3.817   1.240  0.1248  0.0353  0.2260
 5701TIP3    H138594   1.033   3.894   1.187 -0.1455  1.3743  1.9742
 5701TIP3    H238595   1.085   3.803   1.297  0.5583 -1.6159 -0.6841
 5702TIP3   OH238596   3.816   1.180  14.749 -0.0527 -0.2858 -0.1800
 5702TIP3    H138597   3.767   1.261  14.733  0.1527 -0.3467 -1.1348
 5702TIP3    H238598   3.748   1.117  14.776 -0.6888 -0.6313 -2.3994
 5703TIP3   OH238599   2.993   2.608  14.520  0.3894 -0.0163 -0.2156
 5703TIP3    H138600   3.026   2.634  14.434  0.7025  1.3679  0.2966
 5703TIP3    H238601   2.969   2.516  14.510  2.4586 -0.4930 -1.1636
 5704TIP3   OH238602   4.371   3.577  10.415  0.0989 -0.4397  0.1992
 5704TIP3    H138603   4.432   3.643  10.381  1.2295 -1.4750  0.1738
 5704TIP3    H238604   4.310   3.627  10.470  1.3780  0.5318  0.7779
 5705TIP3   OH238605   3.566   3.814  11.170 -0.0571 -0.8346 -0.6040
 5705TIP3    H138606   3.577   3.853  11.083  2.2133  1.2458  0.5180
 5705TIP3    H238607   3.655   3.805  11.204 -0.8391 -2.3270  1.2437
 5706TIP3   OH238608   2.035   0.935   3.489  0.1043 -0.5249  0.2005
 5706TIP3    H138609   2.110   0.919   3.546 -0.4070  0.8694  1.3269
 5706TIP3    H238610   2.053   0.883   3.411  1.4423 -1.4940  1.1052
 5707TIP3   OH238611   4.539   5.113   0.813 -0.3940  0.3562 -0.5402
 5707TIP3    H138612   4.601   5.042   0.797 -0.8892 -0.0984 -0.4718
 5707TIP3    H238613   4.591   5.181   0.855  0.1896  0.2270 -1.0510
 5708TIP3   OH238614   4.646   2.509   4.259 -0.2508 -0.2121 -0.6884
 5708TIP3    H138615   4.579   2.577   4.251  1.6511  1.8057 -0.3690
 5708TIP3    H238616   4.654   2.472   4.170 -0.8642  0.4486 -1.0236
 5709TIP3   OH238617   0.734   0.969   2.370  0.2983  0.1023 -0.1916
 5709TIP3    H138618   0.678   0.935   2.438  0.4203 -1.1722 -0.7052
 5709TIP3    H238619   0.823   0.956   2.403  0.4487 -2.3179 -1.3308
 5710TIP3   OH238620   5.479   1.583  14.631  0.0243  0.2097 -0.4174
 5710TIP3    H138621   5.440   1.668  14.654 -1.2820 -0.5713  0.3822
 5710TIP3    H238622   5.409   1.536  14.586  0.6523 -0.5484 -0.6094
 5711TIP3   OH238623   5.693   1.926  13.952  0.7281  0.2845  0.0834
 5711TIP3    H138624   5.788   1.926  13.945  0.8309 -0.8205  1.1011
 5711TIP3    H238625   5.677   1.926  14.047 -0.2124 -2.7490  0.0277
 5712TIP3   OH238626   5.510   0.140   4.513 -0.3692 -0.1853 -0.1083
 5712TIP3    H138627   5.539   0.183   4.594 -0.6617 -0.3422  0.0821
 5712TIP3    H238628   5.533   0.202   4.444  1.7995 -0.9542 -0.1254
 5713TIP3   OH238629   5.915   4.383   4.007  0.0016 -0.5756  0.2484
 5713TIP3    H138630   5.891   4.456   3.951 -4.0620 -1.9865 -0.2230
 5713TIP3    H238631   5.935   4.312   3.946 -0.2568 -0.9714  0.6175
 5714TIP3   OH238632   3.344   5.706  14.430  0.0235 -0.5116 -0.0786
 5714TIP3    H138633   3.259   5.735  14.463 -1.3175 -0.9129 -2.8715
 5714TIP3    H238634   3.335   5.612  14.418  1.8200 -1.0176  1.9939
 5715TIP3   OH238635   0.111   5.954   5.583  0.1898  0.4424 -0.1717
 5715TIP3    H138636   0.172   5.941   5.510  0.7154 -1.3248  0.5430
 5715TIP3    H238637   0.025   5.934   5.545  0.4249 -0.1917 -0.3819
 5716TIP3   OH238638   0.048   5.639  11.899  0.0143  0.2449 -0.0976
 5716TIP3    H138639  -0.021   5.586  11.860  0.7995 -1.4797  0.7250
 5716TIP3    H238640   0.094   5.678  11.825 -0.8366  0.0894 -0.7112
 5717TIP3   OH238641   4.405   3.853   1.031 -0.2380 -0.2834 -0.5276
 5717TIP3    H138642   4.391   3.807   0.948 -0.6597  1.3956 -1.4366
 5717TIP3    H238643   4.318   3.858   1.071 -0.1389 -0.5401 -0.2753
 5718TIP3   OH238644   4.396   3.629  15.227 -0.6491  0.1724 -0.2946
 5718TIP3    H138645   4.340   3.705  15.218  0.2394  0.6314 -2.9073
 5718TIP3    H238646   4.369   3.570  15.157  1.0427 -0.2883 -0.6178
 5719TIP3   OH238647   6.357   4.654   5.831 -0.3399 -0.0771  0.5170
 5719TIP3    H138648   6.298   4.648   5.756  1.7682 -0.6133 -1.2016
 5719TIP3    H238649   6.362   4.748   5.849 -0.5717  0.0921 -0.2578
 5720TIP3   OH238650   3.395   0.876   2.579 -0.5269 -0.0825  0.1108
 5720TIP3    H138651   3.404   0.791   2.620 -0.9645  0.2086  0.8370
 5720TIP3    H238652   3.357   0.858   2.493 -4.3501 -0.4141  1.6840
 5721TIP3   OH238653   0.637   3.537  12.113 -0.9606 -0.4619  0.3746
 5721TIP3    H138654   0.711   3.588  12.081 -1.4180 -0.5775 -0.9079
 5721TIP3    H238655   0.676   3.468  12.166 -0.2920  0.8221  1.6185
 5722TIP3   OH238656   2.958   3.583  17.027 -0.5502 -0.4516  0.1379
 5722TIP3    H138657   2.904   3.655  17.060 -1.6118 -1.6232  1.0559
 5722TIP3    H238658   2.896   3.513  17.007  0.4434 -1.1015 -0.8351
 5723TIP3   OH238659   3.146   5.915   3.296 -0.3429 -0.4319 -0.4712
 5723TIP3    H138660   3.100   5.833   3.315  0.9832 -1.1799 -0.3433
 5723TIP3    H238661   3.085   5.984   3.322 -0.8970 -1.3925  0.8947
 5724TIP3   OH238662   2.022   3.673  11.178  0.3814  0.1460  0.0952
 5724TIP3    H138663   1.980   3.596  11.141  0.3286  0.1626  0.1200
 5724TIP3    H238664   2.075   3.709  11.107 -0.6898  0.8939 -0.3573
 5725TIP3   OH238665   0.623   6.484  17.109  0.0431 -0.0480  0.4556
 5725TIP3    H138666   0.586   6.422  17.172  0.0511  0.5406  1.0544
 5725TIP3    H238667   0.710   6.450  17.089  0.5686  0.4621  1.7988
 5726TIP3   OH238668   3.779   6.265   1.718 -0.8386 -0.5015  0.3441
 5726TIP3    H138669   3.869   6.298   1.714 -0.4115 -0.9991  3.2884
 5726TIP3    H238670   3.789   6.173   1.743 -2.1721 -1.2323 -1.5861
 5727TIP3   OH238671   2.123   6.318   5.095  0.6919 -0.5091 -0.5667
 5727TIP3    H138672   2.162   6.281   5.175 -0.5518  2.0392  1.3514
 5727TIP3    H238673   2.186   6.384   5.066  0.1046  0.1407 -0.3674
 5728TIP3   OH238674   6.296   1.477   0.317  0.3195 -0.4490  0.2386
 5728TIP3    H138675   6.270   1.391   0.284 -0.1763  0.0507 -0.7247
 5728TIP3    H238676   6.256   1.484   0.403 -0.6596 -0.7086 -0.1875
 5729TIP3   OH238677   0.792   6.423  14.391 -0.2679  0.3457  0.5320
 5729TIP3    H138678   0.706   6.434  14.432 -0.4651  0.5312  0.0738
 5729TIP3    H238679   0.777   6.360  14.321  0.3081 -0.8588  1.4486
 5730TIP3   OH238680   4.918   3.127  16.886  0.4916 -0.7647 -0.1987
 5730TIP3    H138681   5.007   3.147  16.856  0.2867  1.4068  0.4601
 5730TIP3    H238682   4.924   3.133  16.982 -0.5603  0.4370 -0.1884
 5731TIP3   OH238683   0.118   2.322  15.846 -0.1890  0.7501  0.5695
 5731TIP3    H138684   0.179   2.340  15.918  0.5806 -0.0335  0.1274
 5731TIP3    H238685   0.102   2.228  15.851  1.2257  0.3644 -1.3147
 5732TIP3   OH238686   4.259   0.601   3.318  0.3867  0.0415  0.4150
 5732TIP3    H138687   4.264   0.657   3.241 -1.5302 -1.0855 -0.6096
 5732TIP3    H238688   4.210   0.653   3.382 -0.8684 -0.1841 -0.3216
 5733TIP3   OH238689   6.540   6.618  14.185 -0.3165 -0.5070 -0.1227
 5733TIP3    H138690   6.612   6.556  14.198  0.0470  0.0044  0.4175
 5733TIP3    H238691   6.496   6.620  14.270 -0.4183 -0.1463 -0.1846
 5734TIP3   OH238692   1.384   0.999   5.732 -0.2565 -0.7738 -0.6122
 5734TIP3    H138693   1.426   0.914   5.726  0.6456 -0.3405 -0.5669
 5734TIP3    H238694   1.329   0.993   5.810  1.0775 -0.7730  0.3518
 5735TIP3   OH238695   3.780   2.251  12.241  0.2711 -0.4104  0.1302
 5735TIP3    H138696   3.807   2.189  12.309  1.0482 -0.6724 -0.4056
 5735TIP3    H238697   3.811   2.336  12.273  1.0102 -0.5916 -0.0823
 5736TIP3   OH238698   4.290   3.982  10.946  0.2544 -0.5958 -0.9403
 5736TIP3    H138699   4.321   4.045  10.882  2.7387 -0.2874  0.4279
 5736TIP3    H238700   4.280   3.901  10.897  0.1507  0.0841 -2.0839
 5737TIP3   OH238701   4.744   6.347  15.820 -0.0402 -0.2810 -0.0073
 5737TIP3    H138702   4.667   6.322  15.769  1.4569 -0.8183 -2.1892
 5737TIP3    H238703   4.741   6.443  15.822  0.1937 -0.1992 -1.7806
 5738TIP3   OH238704   4.447   6.588   2.737  0.2638  0.3473  0.0085
 5738TIP3    H138705   4.396   6.531   2.681 -0.2757  0.9537 -0.1277
 5738TIP3    H238706   4.531   6.542   2.749 -1.3456 -2.2546  2.8526
 5739TIP3   OH238707   1.873   6.738  14.790 -0.0718  0.7907  0.0012
 5739TIP3    H138708   1.825   6.677  14.846  0.2969 -1.1718 -1.7361
 5739TIP3    H238709   1.872   6.821  14.839 -1.5051 -0.2997  1.9407
 5740TIP3   OH238710   6.394   3.172   5.088 -0.1821 -0.2290  0.2561
 5740TIP3    H138711   6.454   3.222   5.034 -0.1981  0.4100  0.8219
 5740TIP3    H238712   6.330   3.236   5.119 -1.1327 -0.8738 -0.2786
 5741TIP3   OH238713   1.994   5.451   3.239  0.0155  0.3014  0.4598
 5741TIP3    H138714   2.076   5.431   3.282  0.8177  1.3277 -0.5291
 5741TIP3    H238715   1.976   5.543   3.262 -2.1792 -0.5720  2.7090
 5742TIP3   OH238716   1.763   3.510  17.291  0.6194 -0.5168  0.5147
 5742TIP3    H138717   1.724   3.505  17.204  0.5866  1.3447  0.3807
 5742TIP3    H238718   1.857   3.512  17.275  0.6501  3.4083  0.1283
 5743TIP3   OH238719   5.598   0.147  11.237 -0.1689  0.1820  0.1130
 5743TIP3    H138720   5.602   0.069  11.293 -0.7084  0.0381 -0.0387
 5743TIP3    H238721   5.597   0.112  11.148 -0.0161  0.3788  0.0353
 5744TIP3   OH238722   3.692   0.524  16.587  0.1558  0.3719 -0.5727
 5744TIP3    H138723   3.701   0.464  16.662  1.3835  0.7115 -0.4280
 5744TIP3    H238724   3.608   0.568  16.601  0.5752  0.7570  0.8572
 5745TIP3   OH238725   0.970   4.918  15.850 -0.0927  0.1015 -0.2353
 5745TIP3    H138726   0.876   4.932  15.851 -0.3264 -1.3566 -0.3860
 5745TIP3    H238727   0.982   4.832  15.810  1.1879 -0.4807  1.2652
 5746TIP3   OH238728   5.343   6.165  14.345 -0.1983 -0.4461  0.2874
 5746TIP3    H138729   5.311   6.241  14.296 -1.7087 -0.4184  1.2594
 5746TIP3    H238730   5.379   6.107  14.278 -4.1161 -1.4189 -1.2661
 5747TIP3   OH238731   4.659   3.110  14.648  0.1093  0.5801  0.0430
 5747TIP3    H138732   4.725   3.041  14.654 -0.8855 -0.4133 -0.1919
 5747TIP3    H238733   4.626   3.103  14.559 -1.2020  0.2256  0.5464
 5748TIP3   OH238734   3.521   5.369   4.917 -0.3948  0.8748 -0.1387
 5748TIP3    H138735   3.572   5.345   4.993 -1.1487  2.1138  0.8029
 5748TIP3    H238736   3.544   5.461   4.900 -1.7894  1.2577 -0.0875
 5749TIP3   OH238737   4.693   2.832  11.095  0.3683 -0.2962  0.3491
 5749TIP3    H138738   4.725   2.913  11.056  2.3891 -0.7714  0.8733
 5749TIP3    H238739   4.767   2.771  11.086 -0.1352 -1.2708  2.3234
 5750TIP3   OH238740   3.331   2.650  13.608  0.3301 -0.5031 -0.0990
 5750TIP3    H138741   3.299   2.683  13.524  1.4900 -0.5314 -0.5607
 5750TIP3    H238742   3.340   2.728  13.662  1.1026 -0.2847 -0.5258
 5751TIP3   OH238743   2.956   5.204  11.071 -0.1302 -0.2985 -0.1705
 5751TIP3    H138744   2.963   5.269  11.001  1.5820 -1.0839 -0.7938
 5751TIP3    H238745   2.865   5.174  11.067 -1.2012  2.5212  0.6217
 5752TIP3   OH238746   0.705   4.405   2.061  0.1231  0.5986 -0.2116
 5752TIP3    H138747   0.610   4.391   2.068  0.0903  0.1513 -1.4788
 5752TIP3    H238748   0.726   4.459   2.138 -0.5227 -2.2961  2.2242
 5753TIP3   OH238749   2.825   0.401   5.798 -0.4560 -0.5997  0.6634
 5753TIP3    H138750   2.799   0.397   5.706 -0.3268 -1.7602  0.6649
 5753TIP3    H238751   2.918   0.378   5.797 -0.3702 -0.2705  1.0536
 5754TIP3   OH238752   0.217   1.846   4.844  0.1497  0.6357 -0.3128
 5754TIP3    H138753   0.214   1.920   4.785  1.1132  0.0238 -1.1575
 5754TIP3    H238754   0.288   1.791   4.811 -0.9717 -1.0076 -0.1355
 5755TIP3   OH238755   5.170   1.101  13.613  0.3596  0.2683 -0.1636
 5755TIP3    H138756   5.187   1.058  13.697 -2.0928  1.1855  0.9037
 5755TIP3    H238757   5.076   1.089  13.599  0.5432  0.9646 -2.3224
 5756TIP3   OH238758   4.957   0.539  11.820  0.3214 -0.5646  0.0422
 5756TIP3    H138759   5.048   0.538  11.790 -0.2042  0.4508 -1.7452
 5756TIP3    H238760   4.914   0.472  11.767 -0.6977  1.4791 -1.9137
 5757TIP3   OH238761   4.773   5.573  15.341  0.1621  0.3135 -0.2704
 5757TIP3    H138762   4.834   5.647  15.345 -0.8520  1.1400  0.5780
 5757TIP3    H238763   4.686   5.613  15.340 -0.5977 -0.8162  3.7109
 5758TIP3   OH238764   1.155   1.000  11.110 -0.4020 -0.1556  0.4380
 5758TIP3    H138765   1.143   1.007  11.016  0.0202 -0.0036  0.3923
 5758TIP3    H238766   1.154   1.090  11.142  0.8907 -0.0985  0.3857
 5759TIP3   OH238767   2.191   5.348  14.524 -0.5670 -0.3917 -0.2491
 5759TIP3    H138768   2.206   5.258  14.495  3.2062 -0.1862  0.5780
 5759TIP3    H238769   2.198   5.400  14.444 -0.7652 -0.6565 -0.4411
 5760TIP3   OH238770   1.551   0.067   0.760  0.1015 -0.3100  0.3128
 5760TIP3    H138771   1.543   0.092   0.852 -1.1618  1.1744 -0.1679
 5760TIP3    H238772   1.610   0.132   0.722 -0.5445 -0.0198 -0.2256
 5761TIP3   OH238773   1.595   1.035   0.490  0.0091  0.0950  0.2785
 5761TIP3    H138774   1.616   0.945   0.466 -1.1442  0.0735 -0.7171
 5761TIP3    H238775   1.538   1.027   0.566 -0.6055 -0.0538 -0.1905
 5762TIP3   OH238776   4.921   5.303  16.845  0.9431 -0.0527  0.1362
 5762TIP3    H138777   4.834   5.263  16.842  0.2212  1.4798 -0.4268
 5762TIP3    H238778   4.965   5.260  16.919 -0.7467  0.0446  1.2414
 5763TIP3   OH238779   2.246   3.924   4.498 -0.0880 -0.1319  0.5454
 5763TIP3    H138780   2.233   4.009   4.539 -1.4163 -0.7016  1.3788
 5763TIP3    H238781   2.175   3.870   4.532 -0.4805 -1.0201 -1.5235
 5764TIP3   OH238782   6.766   4.478  10.971 -0.1130 -0.2275 -0.1906
 5764TIP3    H138783   6.747   4.385  10.971  2.4756 -0.8637 -1.4432
 5764TIP3    H238784   6.724   4.511  10.891 -1.6724 -0.1214  0.6445
 5765TIP3   OH238785   1.494   2.103  13.394 -0.0877 -0.1517 -0.0794
 5765TIP3    H138786   1.587   2.113  13.417  0.3694 -1.0360 -1.3819
 5765TIP3    H238787   1.455   2.061  13.471  0.6974 -0.2109  0.2972
 5766TIP3   OH238788   1.093   0.610   3.135  0.2613 -0.4849 -0.2174
 5766TIP3    H138789   1.165   0.583   3.078  1.5581 -0.5559  1.3564
 5766TIP3    H238790   1.081   0.703   3.116  0.7399 -0.4829 -0.5387
 5767TIP3   OH238791   0.729   3.951   1.395 -0.4793  0.3444  0.1979
 5767TIP3    H138792   0.767   3.873   1.354 -0.5536 -0.1056  0.9763
 5767TIP3    H238793   0.688   3.998   1.322  0.4107  0.1614 -0.4440
 5768TIP3   OH238794   0.130   4.007  13.556  0.3062  0.1352  0.2944
 5768TIP3    H138795   0.155   4.046  13.640  1.2911  0.4164 -0.1118
 5768TIP3    H238796   0.144   4.077  13.492  3.6813 -1.2479 -0.6888
 5769TIP3   OH238797   5.264   3.741  17.204 -0.1307 -0.1274 -1.1813
 5769TIP3    H138798   5.290   3.728  17.113 -2.4644  0.3743 -1.9998
 5769TIP3    H238799   5.258   3.836  17.214  1.9468 -0.0576  0.1384
 5770TIP3   OH238800   4.075   0.729  13.767 -0.2786 -1.0069  0.0334
 5770TIP3    H138801   4.009   0.740  13.836  1.1136  0.4915  1.2111
 5770TIP3    H238802   4.140   0.670  13.806 -0.4550 -1.7487 -0.7734
 5771TIP3   OH238803   2.481   4.187   2.153  0.2951  0.2964 -0.8022
 5771TIP3    H138804   2.435   4.174   2.070  1.0547 -0.1218 -1.1746
 5771TIP3    H238805   2.490   4.282   2.161  0.0483  0.3463 -1.1071
 5772TIP3   OH238806   4.371   5.760  16.014 -0.6391 -0.7346  0.7153
 5772TIP3    H138807   4.393   5.688  16.073  3.4533  0.7354  1.2554
 5772TIP3    H238808   4.441   5.761  15.949 -1.6263  1.5442 -0.4410
 5773TIP3   OH238809   1.286   4.559   2.278  0.0003 -0.4471  0.3068
 5773TIP3    H138810   1.357   4.499   2.300  0.8910  0.7838  0.9071
 5773TIP3    H238811   1.254   4.591   2.362 -0.8920 -0.5595  0.0160
 5774TIP3   OH238812   2.821   4.381  13.407 -0.1879  0.1252  0.1497
 5774TIP3    H138813   2.844   4.461  13.360 -0.2989 -0.3133 -0.6689
 5774TIP3    H238814   2.754   4.339  13.353  0.5354 -0.9850  0.0875
 5775TIP3   OH238815   5.099   2.851  15.512 -0.2420  0.5859  0.1528
 5775TIP3    H138816   5.173   2.841  15.452 -1.2349 -0.5450 -0.9370
 5775TIP3    H238817   5.022   2.826  15.460 -1.3929  1.6395  1.2706
 5776TIP3   OH238818   1.901   4.076   2.865 -0.6984  0.0151 -0.0343
 5776TIP3    H138819   1.864   4.164   2.874  0.6312  0.5251  0.6424
 5776TIP3    H238820   1.989   4.090   2.831 -0.5664 -1.0876 -0.1969
 5777TIP3   OH238821   2.727   5.323  14.603  0.2464 -0.2553  0.4443
 5777TIP3    H138822   2.727   5.354  14.512  1.2590 -2.8022 -0.4961
 5777TIP3    H238823   2.635   5.310  14.624  0.0826 -1.1515 -0.7829
 5778TIP3   OH238824   0.445   4.449   1.175  0.1984 -0.1058  0.3123
 5778TIP3    H138825   0.491   4.504   1.111 -1.3285  1.3356  0.4204
 5778TIP3    H238826   0.420   4.508   1.245 -0.2655 -1.2271  1.1241
 5779TIP3   OH238827   3.650   1.539   4.238 -0.4670  0.5923  0.3129
 5779TIP3    H138828   3.727   1.486   4.257  0.5127  1.0603 -2.0064
 5779TIP3    H238829   3.672   1.626   4.270 -0.0957  0.6702 -0.1360
 5780TIP3   OH238830   6.009   1.309   4.300 -0.8209  0.5951 -0.3032
 5780TIP3    H138831   6.050   1.226   4.325 -0.6299  0.2248 -1.7870
 5780TIP3    H238832   6.065   1.344   4.231 -1.0207  1.8689  0.1637
 5781TIP3   OH238833   6.424   0.286  12.731 -0.6639 -0.7414  0.2192
 5781TIP3    H138834   6.487   0.230  12.684  0.2003  0.9963 -0.7838
 5781TIP3    H238835   6.350   0.293  12.671 -0.6409 -0.5711  0.2107
 5782TIP3   OH238836   0.311   4.879   5.377 -0.4592 -0.2229 -0.1568
 5782TIP3    H138837   0.390   4.926   5.348 -0.1810 -0.7533 -0.2627
 5782TIP3    H238838   0.341   4.791   5.396 -0.9663 -0.3318  0.1456
 5783TIP3   OH238839   0.648   1.694   0.516  0.1925 -0.1669 -0.5171
 5783TIP3    H138840   0.712   1.637   0.474 -1.9342 -1.3436 -2.3023
 5783TIP3    H238841   0.567   1.643   0.518 -0.8312  1.3858  1.3800
 5784TIP3   OH238842   6.095   6.407  11.391 -0.2962 -0.3369  0.1427
 5784TIP3    H138843   6.005   6.413  11.359  0.1589  0.4625 -1.0697
 5784TIP3    H238844   6.148   6.388  11.313  0.6026 -0.6255  0.8016
 5785TIP3   OH238845   4.509   3.301   4.618 -0.3172 -0.0932  0.4923
 5785TIP3    H138846   4.588   3.250   4.601  0.1978  1.1438 -1.1695
 5785TIP3    H238847   4.542   3.389   4.640 -1.2029  0.2725  0.4084
 5786TIP3   OH238848   2.942   6.388  16.117 -0.3427 -0.1944 -0.7291
 5786TIP3    H138849   2.914   6.479  16.108  1.8098  0.6303  0.0979
 5786TIP3    H238850   2.983   6.368  16.032 -0.4745 -0.2702 -0.7745
 5787TIP3   OH238851   4.248   2.741  15.284  0.4561 -0.9362  0.6358
 5787TIP3    H138852   4.267   2.765  15.193  0.8976  1.8074  1.3739
 5787TIP3    H238853   4.334   2.723  15.322  0.6372  1.1704  1.3070
 5788TIP3   OH238854   4.349   6.198  15.163  0.8431  0.0705 -0.0822
 5788TIP3    H138855   4.316   6.137  15.229  0.9398 -0.3910 -0.4556
 5788TIP3    H238856   4.371   6.277  15.212 -1.6080  0.7288  0.0942
 5789TIP3   OH238857   4.389   0.507   2.636 -0.8316 -0.3858 -0.1102
 5789TIP3    H138858   4.429   0.569   2.576 -1.7947  0.5608  0.1899
 5789TIP3    H238859   4.461   0.477   2.692 -0.2601  0.0659 -0.5967
 5790TIP3   OH238860   4.977   4.191  13.528  0.4926 -0.0230  0.5309
 5790TIP3    H138861   4.996   4.103  13.561  2.8395  0.3708  0.3881
 5790TIP3    H238862   5.040   4.204  13.457 -2.0007  0.5529 -1.7595
 5791TIP3   OH238863   1.416   2.342  13.835  0.2359  0.1071 -0.7358
 5791TIP3    H138864   1.414   2.389  13.918 -0.6514 -1.9568  0.4721
 5791TIP3    H238865   1.338   2.371  13.788 -0.4883 -0.3905  0.1411
 5792TIP3   OH238866   3.902   6.773  11.935  0.2971  0.7661 -0.1021
 5792TIP3    H138867   3.856   6.693  11.962  1.9758 -0.1190  0.2664
 5792TIP3    H238868   3.884   6.780  11.842  1.4616 -1.0233 -0.5205
 5793TIP3   OH238869   0.862   4.279   4.418 -0.0059 -0.2045 -0.3899
 5793TIP3    H138870   0.839   4.351   4.477  0.9537  0.3518 -0.6566
 5793TIP3    H238871   0.858   4.318   4.330 -0.1601 -0.6631 -0.5853
 5794TIP3   OH238872   2.437   3.379  12.162  0.0845 -0.3830 -0.0536
 5794TIP3    H138873   2.356   3.393  12.112  0.9374  0.3607 -1.2744
 5794TIP3    H238874   2.494   3.330  12.102  0.4886 -1.0760  0.8692
 5795TIP3   OH238875   3.087   4.218  13.490 -0.3380  0.0511 -0.5108
 5795TIP3    H138876   3.098   4.271  13.569  2.5788  1.1308 -1.5098
 5795TIP3    H238877   3.065   4.281  13.422  0.8872 -0.3228 -1.2705
 5796TIP3   OH238878   5.138   0.356   4.126 -0.1974 -0.1645  0.2239
 5796TIP3    H138879   5.194   0.312   4.062 -1.2171 -2.2013  0.6241
 5796TIP3    H238880   5.165   0.319   4.210  1.0209  2.3616  1.0467
 5797TIP3   OH238881   2.723   3.899   5.464 -0.5002 -0.4590 -0.5861
 5797TIP3    H138882   2.666   3.824   5.482 -1.8666  1.1032  2.1776
 5797TIP3    H238883   2.666   3.976   5.476  1.8296  1.1544  0.9971
 5798TIP3   OH238884   2.600   3.531  16.466  0.3450 -0.2838  0.2187
 5798TIP3    H138885   2.517   3.532  16.419  0.0237 -1.2978  0.7274
 5798TIP3    H238886   2.642   3.613  16.443  0.1289 -0.6703 -1.7230
 5799TIP3   OH238887   3.441   0.859   3.480  0.0870 -0.8945 -0.2724
 5799TIP3    H138888   3.412   0.848   3.390 -2.2443  1.3916  0.0758
 5799TIP3    H238889   3.511   0.925   3.474 -0.1145 -0.6922 -0.4086
 5800TIP3   OH238890   3.638   3.745  12.310 -0.0610  0.0466 -0.1358
 5800TIP3    H138891   3.719   3.696  12.326 -0.5247  0.0558  2.8130
 5800TIP3    H238892   3.591   3.692  12.245  1.8770 -0.4174 -1.2449
 5801TIP3   OH238893   5.737   6.563   2.594 -0.3337 -0.0961  0.2386
 5801TIP3    H138894   5.741   6.554   2.499  0.8742  1.2073  0.1316
 5801TIP3    H238895   5.827   6.552   2.624 -0.5396  0.4823  1.1310
 5802TIP3   OH238896   6.422   0.868  16.452  0.6050  0.0240  0.8239
 5802TIP3    H138897   6.370   0.844  16.375  1.0079  0.2669  0.4738
 5802TIP3    H238898   6.481   0.795  16.465  0.6004  0.0243  0.8479
 5803TIP3   OH238899   0.469   2.509  14.085  0.0370  0.3798 -0.2424
 5803TIP3    H138900   0.447   2.449  14.013 -1.7460  0.1101  0.4893
 5803TIP3    H238901   0.412   2.585  14.072  2.5367  2.2099 -1.3851
 5804TIP3   OH238902   2.236   1.285  11.677 -0.2887  0.6422  0.3977
 5804TIP3    H138903   2.183   1.256  11.603 -4.0977  2.3403  2.1714
 5804TIP3    H238904   2.269   1.371  11.651  0.5870  0.1299 -0.2365
 5805TIP3   OH238905   3.016   5.781   3.585  0.2967  0.0879 -0.1841
 5805TIP3    H138906   2.935   5.730   3.589  0.1276  0.4513  1.4953
 5805TIP3    H238907   3.018   5.816   3.495 -0.6885 -1.0564 -0.6700
 5806TIP3   OH238908   2.292   6.772  14.974 -0.8150 -0.1926 -0.1541
 5806TIP3    H138909   2.235   6.770  15.051 -0.9934  2.4204 -0.1297
 5806TIP3    H238910   2.246   6.829  14.912  0.4934 -0.2360 -1.2115
 5807TIP3   OH238911   2.670   4.832  17.175 -0.3273  0.1414  0.3516
 5807TIP3    H138912   2.734   4.849  17.244 -0.7572  1.6959  0.4193
 5807TIP3    H238913   2.607   4.771  17.214 -0.1961  0.4858  1.1134
 5808TIP3   OH238914   2.282   2.521  15.571 -0.2020  0.2098 -0.8823
 5808TIP3    H138915   2.325   2.528  15.486 -1.3699  0.0103 -1.5075
 5808TIP3    H238916   2.353   2.528  15.634  0.6831  0.3890 -1.8707
 5809TIP3   OH238917   4.671   4.298  14.302  0.3339  0.4793  0.6346
 5809TIP3    H138918   4.693   4.369  14.241  1.9408 -1.8003 -1.6195
 5809TIP3    H238919   4.579   4.279  14.284  0.2295  1.1788  0.3992
 5810TIP3   OH238920   6.248   6.529   4.088 -0.1383 -0.1632 -0.1132
 5810TIP3    H138921   6.206   6.585   4.022 -1.1955 -0.8697 -0.0704
 5810TIP3    H238922   6.198   6.448   4.085  0.3458 -0.5191  0.9683
 5811TIP3   OH238923   0.735   0.197  11.694  0.1925  0.4715  0.2772
 5811TIP3    H138924   0.646   0.229  11.679 -0.4986 -1.8680 -1.1148
 5811TIP3    H238925   0.775   0.196  11.606  0.6781 -0.9540  0.4918
 5812TIP3   OH238926   5.504   3.487   0.277 -0.0071 -0.4172  0.1517
 5812TIP3    H138927   5.517   3.522   0.365 -0.4802 -0.0855  0.0871
 5812TIP3    H238928   5.581   3.517   0.229 -0.8642  1.3783 -0.1678
 5813TIP3   OH238929   1.520   1.803   1.294 -0.0435  0.7849  0.5149
 5813TIP3    H138930   1.484   1.727   1.250 -0.0386  0.0587  1.7233
 5813TIP3    H238931   1.455   1.824   1.362  0.4535  1.2116  0.8659
 5814TIP3   OH238932   3.155   5.833   0.841  0.0238 -0.2284  0.5919
 5814TIP3    H138933   3.111   5.907   0.882  0.2771  0.3357 -0.1418
 5814TIP3    H238934   3.248   5.850   0.851  0.0901 -0.0603 -0.2427
 5815TIP3   OH238935   6.783   5.920  11.533 -0.5585 -0.6141 -0.1255
 5815TIP3    H138936   6.719   5.945  11.467  0.4703  0.1190 -0.8665
 5815TIP3    H238937   6.730   5.892  11.608 -1.7363 -0.3107 -0.8219
 5816TIP3   OH238938   2.252   4.549  11.732 -0.1026 -0.1525  0.3312
 5816TIP3    H138939   2.297   4.475  11.774  0.1325  0.2589  0.8119
 5816TIP3    H238940   2.191   4.581  11.799  0.3659  0.5903  0.4108
 5817TIP3   OH238941   0.875   3.300  16.213 -0.0573  0.1933  0.6351
 5817TIP3    H138942   0.915   3.387  16.220  1.4987 -0.4504  0.1726
 5817TIP3    H238943   0.922   3.247  16.278 -1.7852 -0.0499  1.7420
 5818TIP3   OH238944   4.441   3.762  12.416 -0.0314 -0.4955  0.0543
 5818TIP3    H138945   4.450   3.847  12.457 -0.8802 -0.4092  0.0764
 5818TIP3    H238946   4.409   3.780  12.328  0.9397 -0.7312 -0.3691
 5819TIP3   OH238947   0.474   5.267   1.262 -0.5066  0.1812  0.0644
 5819TIP3    H138948   0.445   5.227   1.344  1.5031 -0.3009  0.5922
 5819TIP3    H238949   0.475   5.361   1.281  0.5383  0.0356  0.8263
 5820TIP3   OH238950   1.088   4.198  11.346  0.1643  0.2898  0.0043
 5820TIP3    H138951   1.066   4.282  11.386 -0.7848  0.2571 -0.4420
 5820TIP3    H238952   1.171   4.214  11.302  0.6978  0.6107  1.0736
 5821TIP3   OH238953   6.294   5.405   2.032 -0.2377 -0.4289 -0.3141
 5821TIP3    H138954   6.333   5.408   1.944 -0.1926 -0.8867 -0.3102
 5821TIP3    H238955   6.300   5.313   2.058  1.3321 -0.0311  0.8836
 5822TIP3   OH238956   4.666   0.691   0.692 -0.1944 -0.0158  0.1619
 5822TIP3    H138957   4.610   0.670   0.617 -0.3313 -0.5282  0.4019
 5822TIP3    H238958   4.730   0.620   0.695  0.0819  0.2376  0.2614
 5823TIP3   OH238959   2.726   2.340  12.690 -0.8008 -0.0110 -0.1579
 5823TIP3    H138960   2.693   2.253  12.666  0.0796 -0.1978 -0.7648
 5823TIP3    H238961   2.817   2.323  12.717 -0.3319  0.8321 -1.1454
 5824TIP3   OH238962   1.255   6.256  13.349 -0.0147 -0.0459  0.3192
 5824TIP3    H138963   1.196   6.332  13.345  0.5782  0.4089  0.1830
 5824TIP3    H238964   1.340   6.290  13.323 -0.1620 -1.2297 -1.9963
 5825TIP3   OH238965   2.470   3.047  15.638  0.4582 -0.2185  0.1510
 5825TIP3    H138966   2.408   3.079  15.704  0.3174  0.9882 -0.5538
 5825TIP3    H238967   2.554   3.086  15.663  0.3944  0.2786 -0.4135
 5826TIP3   OH238968   5.471   1.284  13.183  0.0110  0.0322  0.6399
 5826TIP3    H138969   5.443   1.194  13.170  0.1335  0.2098 -0.9753
 5826TIP3    H238970   5.545   1.277  13.244  0.3532 -1.0021  0.1248
 5827TIP3   OH238971   6.127   4.522   2.017  0.0003 -0.2416  0.4029
 5827TIP3    H138972   6.188   4.453   1.992  0.0314 -1.0879  2.5524
 5827TIP3    H238973   6.182   4.595   2.044  0.0555 -0.5268  1.0834
 5828TIP3   OH238974   2.520   2.454  12.845 -0.3255 -0.0084 -0.6821
 5828TIP3    H138975   2.598   2.430  12.795  0.7599  1.6335  0.1538
 5828TIP3    H238976   2.494   2.539  12.811 -1.0133  0.0355 -0.0868
 5829TIP3   OH238977   4.850   0.133   1.224 -0.2595 -0.3827  0.0498
 5829TIP3    H138978   4.879   0.149   1.134  0.1286  1.7700  0.5161
 5829TIP3    H238979   4.769   0.183   1.231  1.6197  2.6604  1.9538
 5830TIP3   OH238980   2.615   2.122  13.778 -0.0425 -0.5288  0.1857
 5830TIP3    H138981   2.684   2.179  13.812  0.8750 -1.3110 -0.2914
 5830TIP3    H238982   2.660   2.039  13.760 -1.4430 -1.5805  1.3430
 5831TIP3   OH238983   1.635   0.732  13.108 -0.1470 -0.1244  0.7744
 5831TIP3    H138984   1.573   0.683  13.163  0.7917 -2.6906 -0.3129
 5831TIP3    H238985   1.721   0.704  13.138  0.4079 -0.2192 -0.8225
 5832TIP3   OH238986   1.083   4.600  16.310  0.3326 -0.6934  0.3874
 5832TIP3    H138987   1.162   4.648  16.334  0.6117 -1.6396  1.3903
 5832TIP3    H238988   1.012   4.649  16.352  0.6955 -1.5913  2.1496
 5833TIP3   OH238989   2.500   1.134   0.647  0.7271  0.2825 -0.4207
 5833TIP3    H138990   2.450   1.128   0.728 -1.0007  2.0216 -1.2724
 5833TIP3    H238991   2.548   1.052   0.643  0.9608  0.1944  2.3873
 5834TIP3   OH238992   2.435   5.343   5.069 -0.0061 -0.2379 -0.4801
 5834TIP3    H138993   2.471   5.264   5.109  1.5920  0.3524 -0.6583
 5834TIP3    H238994   2.362   5.368   5.125  0.9470 -0.5251  0.9414
 5835TIP3   OH238995   3.663   5.693   4.531 -0.4605  0.4640 -0.1390
 5835TIP3    H138996   3.600   5.765   4.542 -0.9998 -0.1096  0.6758
 5835TIP3    H238997   3.723   5.724   4.464  0.2017  2.2932  1.2189
 5836TIP3   OH238998   5.308   3.147  15.053 -0.5383  0.2838  0.0107
 5836TIP3    H138999   5.266   3.160  15.138 -1.2783 -0.7100 -0.1843
 5836TIP3    H239000   5.258   3.201  14.992 -0.0439  0.9503  0.1781
 5837TIP3   OH239001   5.187   3.662   2.356  0.1000 -0.1332  0.7921
 5837TIP3    H139002   5.160   3.608   2.430 -0.4234 -2.8401 -1.2307
 5837TIP3    H239003   5.105   3.690   2.315  0.3887  1.0628  0.9668
 5838TIP3   OH239004   1.539   3.034  16.553 -0.5559 -0.1415  0.0962
 5838TIP3    H139005   1.624   2.997  16.575  0.0281 -1.3516 -3.4807
 5838TIP3    H239006   1.476   2.981  16.601  0.6095  0.2950  2.2209
 5839TIP3   OH239007   2.884   6.732  16.330 -0.0583  0.1601 -0.1105
 5839TIP3    H139008   2.857   6.707  16.241 -0.3629  1.4232 -0.4013
 5839TIP3    H239009   2.977   6.750  16.322  1.0748 -4.1322  0.8761
 5840TIP3   OH239010   3.192   0.187  15.551  0.2678 -0.5620  0.3966
 5840TIP3    H139011   3.227   0.259  15.603 -1.0731  0.0548  0.4942
 5840TIP3    H239012   3.232   0.108  15.589  0.1297 -0.0329  1.6945
 5841TIP3   OH239013   2.988   0.524   4.360  0.2891 -0.2295  0.0624
 5841TIP3    H139014   3.010   0.509   4.268 -1.4849  0.0159 -0.4414
 5841TIP3    H239015   3.012   0.615   4.376 -0.0534 -0.0545 -0.3811
 5842TIP3   OH239016   3.147   1.452   2.672  0.4556  0.1640 -0.7403
 5842TIP3    H139017   3.070   1.433   2.618 -0.8596  1.6803  0.5039
 5842TIP3    H239018   3.181   1.535   2.637 -0.4454  1.1938  0.7055
 5843TIP3   OH239019   4.159   1.634  14.717 -0.0782  0.5643 -0.1270
 5843TIP3    H139020   4.181   1.723  14.689 -0.0700  1.1465  1.6316
 5843TIP3    H239021   4.064   1.635  14.727 -0.3745 -0.3288 -2.2936
 5844TIP3   OH239022   4.685   2.393  16.177 -0.0597 -0.4640 -0.5016
 5844TIP3    H139023   4.765   2.426  16.218 -0.2548 -1.1572  0.4935
 5844TIP3    H239024   4.616   2.452  16.207 -0.4442 -1.8012  1.4575
 5845TIP3   OH239025   2.014   4.025   3.128 -0.1082  0.2908  0.0359
 5845TIP3    H139026   2.014   4.024   3.032 -1.5225 -0.1202  0.0026
 5845TIP3    H239027   2.073   4.095   3.152  2.1715 -1.1326 -1.0733
 5846TIP3   OH239028   3.917   4.065  16.628  0.5116  0.2681  0.4137
 5846TIP3    H139029   3.856   4.118  16.680  0.4537  2.4195 -1.6626
 5846TIP3    H239030   3.997   4.117  16.625  0.5188  0.2339 -1.5406
 5847TIP3   OH239031   5.791   0.800  15.722 -0.0155  0.1067  0.6171
 5847TIP3    H139032   5.735   0.805  15.645 -0.9024 -0.4502  1.2006
 5847TIP3    H239033   5.755   0.726  15.772  1.8714 -0.9270  0.5201
 5848TIP3   OH239034   3.180   4.982  14.881 -0.6066  0.3110 -0.5879
 5848TIP3    H139035   3.106   4.941  14.925  0.9180 -1.0769  0.7864
 5848TIP3    H239036   3.209   4.917  14.817  0.0004  0.4375 -0.4487
 5849TIP3   OH239037   1.640   5.179  17.135 -0.0662 -0.6490  0.7124
 5849TIP3    H139038   1.576   5.129  17.084 -0.9379  1.6305 -0.6128
 5849TIP3    H239039   1.673   5.244  17.073 -0.1044  1.3429  2.6814
 5850TIP3   OH239040   4.645   1.022   3.042 -0.3510  0.1889  0.0125
 5850TIP3    H139041   4.740   1.032   3.032 -0.2608  0.3190  0.9124
 5850TIP3    H239042   4.610   1.110   3.029 -0.0215  0.8428  2.9277
 5851TIP3   OH239043   6.162   0.206   5.788  0.3499 -0.2548  0.4596
 5851TIP3    H139044   6.155   0.124   5.741  3.9378 -0.5203  0.1032
 5851TIP3    H239045   6.072   0.232   5.806 -1.2641 -1.0576 -4.8597
 5852TIP3   OH239046   0.713   4.599  12.711  0.0017  0.1923 -0.1211
 5852TIP3    H139047   0.764   4.678  12.695  1.8061 -0.6636  1.0268
 5852TIP3    H239048   0.624   4.629  12.724  0.8202  2.1809  1.3704
 5853TIP3   OH239049   5.557   4.446   0.760  0.0383 -0.1666  0.1327
 5853TIP3    H139050   5.528   4.363   0.722 -0.8815 -0.1822  0.8437
 5853TIP3    H239051   5.653   4.439   0.765 -0.0967 -1.5876  1.0903
 5854TIP3   OH239052   2.786   1.548  14.008 -0.0684 -0.0317  0.1446
 5854TIP3    H139053   2.735   1.628  13.995 -0.3746 -0.3504 -0.7236
 5854TIP3    H239054   2.846   1.546  13.934 -0.8427 -1.1670 -0.4822
 5855TIP3   OH239055   1.149   1.790  17.281 -0.3783 -0.5475 -0.1445
 5855TIP3    H139056   1.242   1.769  17.290 -0.0352  0.4912 -1.0695
 5855TIP3    H239057   1.105   1.705  17.283  0.6916 -1.1368 -0.8366
 5856TIP3   OH239058   2.778   1.221  11.841  0.1722 -0.1389  0.1864
 5856TIP3    H139059   2.804   1.312  11.858  2.0112 -0.1815 -1.9519
 5856TIP3    H239060   2.855   1.182  11.799 -0.8325 -2.4938  0.4307
 5857TIP3   OH239061   0.280   6.243  17.115 -0.1831  0.3380  0.1627
 5857TIP3    H139062   0.274   6.291  17.033 -0.3864  0.4461  0.2385
 5857TIP3    H239063   0.361   6.273  17.155 -0.9654  1.6531  0.8510
 5858TIP3   OH239064   1.642   0.707  14.903 -0.4846  0.0883  0.2079
 5858TIP3    H139065   1.631   0.801  14.918  1.4441  0.0420  2.5331
 5858TIP3    H239066   1.693   0.702  14.822 -0.9718  1.0260 -0.1716
 5859TIP3   OH239067   4.208   3.226  13.545  0.4954  0.4504  0.4244
 5859TIP3    H139068   4.145   3.180  13.490  0.3698  1.1389 -0.0172
 5859TIP3    H239069   4.160   3.301  13.579  0.0354 -0.8939  2.9130
 5860TIP3   OH239070   1.226   5.280  15.811  0.0548  0.3099  0.3546
 5860TIP3    H139071   1.207   5.220  15.738 -0.9875  1.6879 -0.5646
 5860TIP3    H239072   1.183   5.239  15.886  0.5560 -0.7868  0.0721
 5861TIP3   OH239073   0.226   6.456  13.948 -0.4000  0.4759 -0.0440
 5861TIP3    H139074   0.275   6.531  13.915  0.3432 -0.0610 -0.1838
 5861TIP3    H239075   0.256   6.445  14.038 -0.3813  0.2368 -0.0803
 5862TIP3   OH239076   0.233   0.306   1.626  0.0749  0.5079  0.3012
 5862TIP3    H139077   0.256   0.393   1.659  2.3761 -0.3216  1.0667
 5862TIP3    H239078   0.309   0.278   1.576 -0.7244 -0.9828 -0.1520
 5863TIP3   OH239079   2.977   1.096   2.914  0.1068 -1.1793 -0.1392
 5863TIP3    H139080   3.040   1.105   2.843 -0.3204 -1.2809 -0.5386
 5863TIP3    H239081   2.893   1.117   2.873 -0.0078 -0.1370  0.5989
 5864TIP3   OH239082   0.347   3.182   4.872 -0.9285 -0.4063 -0.4057
 5864TIP3    H139083   0.407   3.198   4.944  0.2765 -1.7844 -1.0685
 5864TIP3    H239084   0.260   3.198   4.909 -0.2163  1.1301  0.7024
 5865TIP3   OH239085   1.070   5.064   2.558 -0.1726  0.1292 -0.5798
 5865TIP3    H139086   0.991   5.099   2.517  1.1372  0.3561 -3.1151
 5865TIP3    H239087   1.097   4.992   2.501  1.8704  0.5662 -0.2406
 5866TIP3   OH239088   4.188   1.996  14.106 -0.4848 -0.0723  0.1902
 5866TIP3    H139089   4.128   1.925  14.083 -1.7169  0.4387  1.6520
 5866TIP3    H239090   4.156   2.071  14.056  1.2955 -0.6543 -1.9730
 5867TIP3   OH239091   6.030   6.173   1.288  0.2215 -0.1336 -0.6529
 5867TIP3    H139092   5.980   6.098   1.255 -3.0240  1.5676 -0.0121
 5867TIP3    H239093   6.078   6.138   1.364 -1.4568 -1.5189 -0.1705
 5868TIP3   OH239094   1.187   3.254   6.174  0.3701  0.0162  0.0540
 5868TIP3    H139095   1.170   3.167   6.210  0.1174  0.2467  0.4967
 5868TIP3    H239096   1.267   3.244   6.123  0.0224 -0.6122 -0.3793
 5869TIP3   OH239097   2.660   4.222   5.123  0.0349  0.3265 -0.2353
 5869TIP3    H139098   2.610   4.154   5.078  0.1953  0.9657 -1.4111
 5869TIP3    H239099   2.714   4.262   5.055  0.4736  1.1556  0.5760
 5870TIP3   OH239100   4.794   4.711  13.037  0.3561 -0.0660 -0.1583
 5870TIP3    H139101   4.719   4.722  12.979 -0.7460  0.0191  1.2620
 5870TIP3    H239102   4.818   4.619  13.029 -1.1220 -0.5593  0.8255
 5871TIP3   OH239103   2.151   0.631   1.462  0.3576 -0.1380 -0.2766
 5871TIP3    H139104   2.180   0.656   1.374 -0.5114 -1.1544 -0.8831
 5871TIP3    H239105   2.175   0.539   1.469 -1.7431 -0.7474 -0.4309
 5872TIP3   OH239106   0.612   4.878   1.098 -0.2483 -0.2603  0.0560
 5872TIP3    H139107   0.633   4.847   1.186  0.6835 -1.4346 -0.5312
 5872TIP3    H239108   0.643   4.968   1.095  0.0197 -0.3247  0.8310
 5873TIP3   OH239109   1.057   5.783  16.561  0.9811  0.5519  0.1146
 5873TIP3    H139110   1.066   5.689  16.550 -1.1691  0.3397 -0.1066
 5873TIP3    H239111   1.097   5.820  16.482  0.5131 -0.2312 -0.4950
 5874TIP3   OH239112   4.664   1.075  12.033 -0.9228  0.2867 -0.2174
 5874TIP3    H139113   4.604   1.099  11.962 -1.6100 -0.9026 -0.0672
 5874TIP3    H239114   4.706   0.995  12.002 -1.7575 -0.6638  0.9811
 5875TIP3   OH239115   3.178   4.255  13.003 -0.0945 -0.0261 -0.0684
 5875TIP3    H139116   3.132   4.303  12.934  2.5916  2.3815 -0.3585
 5875TIP3    H239117   3.222   4.183  12.957  1.7761  1.6324 -1.0048
 5876TIP3   OH239118   4.798   2.954  16.711 -0.0880 -0.9901 -0.6265
 5876TIP3    H139119   4.830   3.014  16.779 -0.3397  0.7901 -2.0060
 5876TIP3    H239120   4.857   2.967  16.637 -0.2204 -2.4000 -1.0242
 5877TIP3   OH239121   0.282   0.811  12.467 -0.0040 -0.0636  0.4372
 5877TIP3    H139122   0.266   0.742  12.404  1.5811  1.1234 -1.3737
 5877TIP3    H239123   0.218   0.795  12.537 -1.3516 -1.8407 -1.1012
 5878TIP3   OH239124   1.355   1.764   4.884  0.1471  0.6396  0.6327
 5878TIP3    H139125   1.437   1.720   4.908  0.9628  1.4992 -0.4525
 5878TIP3    H239126   1.347   1.750   4.789 -2.8849 -2.5181  1.1169
 5879TIP3   OH239127   4.998   2.685   4.367  0.0266 -0.4351 -0.3576
 5879TIP3    H139128   5.033   2.664   4.453  0.7561  0.8732 -0.3162
 5879TIP3    H239129   4.912   2.725   4.385 -0.0784 -0.7000 -0.2718
 5880TIP3   OH239130   3.056   1.024  14.721 -0.3238  0.6203  0.0264
 5880TIP3    H139131   3.143   1.058  14.741 -0.7891  1.3157  0.9134
 5880TIP3    H239132   2.997   1.073  14.778 -1.1387 -0.8588  0.5094
 5881TIP3   OH239133   1.642   4.055  17.121  0.3429  0.1601 -0.6398
 5881TIP3    H139134   1.601   3.969  17.134  0.4945  0.1723 -0.0675
 5881TIP3    H239135   1.695   4.044  17.042  1.9240 -0.8711  0.4997
 5882TIP3   OH239136   2.941   5.718   2.343  0.3039  0.3228 -0.1734
 5882TIP3    H139137   2.879   5.767   2.396  0.4404  0.3269 -0.0182
 5882TIP3    H239138   2.980   5.782   2.284 -0.5340  0.1621 -0.9367
 5883TIP3   OH239139   4.730   6.004   4.233 -0.3266  0.5134 -0.0930
 5883TIP3    H139140   4.825   6.004   4.226 -0.1185  0.8160  2.0205
 5883TIP3    H239141   4.699   5.962   4.153  1.5624  0.7317 -0.9678
 5884TIP3   OH239142   0.399   1.456   1.278  0.2392 -0.3901 -0.3277
 5884TIP3    H139143   0.305   1.446   1.294  0.4009 -0.9653  0.2878
 5884TIP3    H239144   0.419   1.388   1.214  0.5055 -1.2315  0.6260
 5885TIP3   OH239145   1.150   4.912   4.588  0.0094  0.1298 -0.0423
 5885TIP3    H139146   1.171   4.919   4.681 -0.7205 -0.1005  0.1481
 5885TIP3    H239147   1.161   4.819   4.568  0.9567  0.3059 -0.3913
 5886TIP3   OH239148   1.402   1.413   4.127 -0.6143 -0.5092  0.2540
 5886TIP3    H139149   1.368   1.327   4.100 -1.9067  0.6574 -2.2233
 5886TIP3    H239150   1.495   1.410   4.105 -0.5501 -1.4119  0.5987
 5887TIP3   OH239151   0.129   0.592  16.275 -0.0859  0.6463 -0.0912
 5887TIP3    H139152   0.135   0.587  16.180  1.6572 -0.1644  0.0293
 5887TIP3    H239153   0.177   0.672  16.298  0.1817  0.4192  0.1486
 5888TIP3   OH239154   6.072   4.819  14.651 -0.6719 -0.0329  0.3221
 5888TIP3    H139155   6.092   4.771  14.731  0.0720 -2.7089 -1.3466
 5888TIP3    H239156   5.986   4.785  14.625 -1.0317  1.0243  0.1013
 5889TIP3   OH239157   4.904   2.418   0.914 -0.3664  0.4849 -0.3223
 5889TIP3    H139158   4.992   2.426   0.877  0.1126  0.3947  0.7476
 5889TIP3    H239159   4.880   2.507   0.940  0.5228  0.1713  1.7780
 5890TIP3   OH239160   1.322   3.614  16.622  0.6398  0.2550 -0.0908
 5890TIP3    H139161   1.274   3.679  16.571  3.2392  1.3158 -1.3628
 5890TIP3    H239162   1.371   3.563  16.558  1.2074 -0.7810  1.1120
 5891TIP3   OH239163   3.322   3.300   5.643 -0.1530  1.4589  0.5683
 5891TIP3    H139164   3.369   3.216   5.644 -0.5040  1.2668  1.3541
 5891TIP3    H239165   3.310   3.319   5.550 -0.8176  0.2080  0.3711
 5892TIP3   OH239166   0.014   0.675  15.377  0.3573 -0.1545 -0.4873
 5892TIP3    H139167   0.004   0.745  15.312  0.1401  0.4188  0.1436
 5892TIP3    H239168  -0.000   0.719  15.461 -0.1315 -1.0270 -0.0994
 5893TIP3   OH239169   1.716   3.295   5.533 -0.2611 -0.0093  0.1267
 5893TIP3    H139170   1.741   3.309   5.625 -0.1023  0.6359 -0.0085
 5893TIP3    H239171   1.775   3.227   5.502 -0.6538 -0.6007  0.6451
 5894TIP3   OH239172   4.958   6.710   2.175 -0.5952  0.1772 -0.2291
 5894TIP3    H139173   4.955   6.693   2.081 -0.1889  1.0920 -0.4204
 5894TIP3    H239174   4.910   6.793   2.186 -0.2882  0.2925  0.3108
 5895TIP3   OH239175   0.342   0.833  15.467 -1.1367  0.1322 -0.2560
 5895TIP3    H139176   0.424   0.809  15.510 -1.0514 -2.0858 -1.4736
 5895TIP3    H239177   0.285   0.864  15.538 -0.6430 -2.2959  1.3304
 5896TIP3   OH239178   4.995   6.542   4.261  0.2505  0.0830 -0.6054
 5896TIP3    H139179   4.930   6.472   4.274 -0.3294  0.6467 -0.3942
 5896TIP3    H239180   4.976   6.576   4.174 -0.3211  0.8234 -0.2089
 5897TIP3   OH239181   3.786   0.932   0.031  0.2465 -0.4803 -0.8370
 5897TIP3    H139182   3.737   0.870  -0.023 -1.1645 -0.0807 -0.0865
 5897TIP3    H239183   3.742   0.928   0.116 -0.6133  2.3243 -1.0490
 5898TIP3   OH239184   6.255   3.084   0.319  0.1835 -0.4255 -0.1844
 5898TIP3    H139185   6.305   3.067   0.399 -0.4833 -0.0426  0.3300
 5898TIP3    H239186   6.180   3.136   0.349 -0.6256 -1.1577 -0.9029
 5899TIP3   OH239187   5.755   2.384  14.647 -0.4134 -0.4637  0.8232
 5899TIP3    H139188   5.719   2.413  14.563 -2.3186  0.4892  1.8983
 5899TIP3    H239189   5.723   2.294  14.657  0.1892 -0.7391  0.3531
 5900TIP3   OH239190   0.310   2.230  13.550  0.5282 -0.2488  0.2751
 5900TIP3    H139191   0.280   2.304  13.497  0.6145  0.3018  0.9889
 5900TIP3    H239192   0.386   2.264  13.598  0.1978 -0.6189  1.0672
 5901TIP3   OH239193   0.819   6.359   0.298  0.0618  0.1301 -0.4950
 5901TIP3    H139194   0.826   6.269   0.266  0.2047  0.1629 -0.5561
 5901TIP3    H239195   0.901   6.374   0.345  0.0445  0.2345 -0.4987
 5902TIP3   OH239196   0.002   2.985   2.386 -0.8047  0.4116 -0.3290
 5902TIP3    H139197   0.030   2.912   2.330 -1.7342  0.3530 -0.7287
 5902TIP3    H239198   0.055   3.059   2.356  0.1224 -0.0675  0.0553
 5903TIP3   OH239199   4.671   0.936  11.345 -0.0707 -0.0244  0.1136
 5903TIP3    H139200   4.695   0.973  11.259  0.0039  0.1590  0.2133
 5903TIP3    H239201   4.652   1.012  11.399  0.2855 -0.1208  0.3785
 5904TIP3   OH239202   6.796   4.934  16.970 -0.2706  0.4589  0.5365
 5904TIP3    H139203   6.727   4.889  17.019 -0.4103  0.1630  0.0693
 5904TIP3    H239204   6.858   4.865  16.946  0.0609  0.6823  0.7307
 5905TIP3   OH239205   3.422   4.207  14.965 -0.3049 -0.4300  0.4018
 5905TIP3    H139206   3.388   4.158  15.040 -1.5691  1.9120  1.4657
 5905TIP3    H239207   3.517   4.200  14.973 -0.4215 -2.4423  0.6193
 5906TIP3   OH239208   2.841   3.974   3.396 -0.2122 -0.1029 -0.7783
 5906TIP3    H139209   2.806   3.970   3.485  1.8394  2.9693  0.3415
 5906TIP3    H239210   2.764   3.978   3.340 -1.5591 -2.0047  0.7965
 5907TIP3   OH239211   3.316   5.464  12.315  1.1016 -0.3854  0.5543
 5907TIP3    H139212   3.317   5.415  12.233  1.1528  0.7534 -0.1429
 5907TIP3    H239213   3.229   5.505  12.318  0.6886 -1.2801  1.6079
 5908TIP3   OH239214   3.577   5.547  13.891 -0.3381 -0.0438 -0.2707
 5908TIP3    H139215   3.622   5.537  13.808 -0.4899  0.2514 -0.3888
 5908TIP3    H239216   3.501   5.602  13.872 -1.1134 -1.0503 -0.2031
 5909TIP3   OH239217   0.634   6.735   5.115 -0.0206  0.4577 -0.3548
 5909TIP3    H139218   0.648   6.712   5.207  1.7675  0.7132 -0.5210
 5909TIP3    H239219   0.584   6.662   5.080 -0.7526  0.3646  0.8239
 5910TIP3   OH239220   3.678   4.202   5.800 -0.2344  0.1884  0.0807
 5910TIP3    H139221   3.661   4.127   5.743  0.0284 -1.0477  1.5625
 5910TIP3    H239222   3.659   4.169   5.888  2.3984  1.0384  1.0416
 5911TIP3   OH239223   5.893   1.406  13.678 -0.3495  0.1832  0.1342
 5911TIP3    H139224   5.865   1.424  13.588 -0.0514 -0.1548 -0.0315
 5911TIP3    H239225   5.812   1.386  13.725 -0.5640  0.8901  0.0695
 5912TIP3   OH239226   1.042   3.371   2.467 -1.1364  0.1625  0.1954
 5912TIP3    H139227   1.002   3.451   2.434 -0.2248  1.3828  1.8774
 5912TIP3    H239228   0.978   3.335   2.528 -0.4162  1.2366  1.6499
 5913TIP3   OH239229   0.821   5.287  10.692 -0.0405  1.1650  0.3272
 5913TIP3    H139230   0.741   5.277  10.744  0.8938  0.4091  1.6886
 5913TIP3    H239231   0.860   5.200  10.691  0.6516  1.4781 -0.5052
 5914TIP3   OH239232   0.632   1.650  14.353  0.4482  0.0104  0.4041
 5914TIP3    H139233   0.610   1.592  14.279 -1.3111 -1.5462  2.0384
 5914TIP3    H239234   0.599   1.736  14.327 -2.7007 -1.0690  0.3757
 5915TIP3   OH239235   3.735   0.207  13.067  0.4401 -0.2889 -0.4808
 5915TIP3    H139236   3.766   0.264  12.997  1.8205  0.5115  0.7295
 5915TIP3    H239237   3.814   0.179  13.113 -0.4798  1.5914  2.5447
 5916TIP3   OH239238   5.575   2.419   5.796  0.5019 -0.4129 -0.3435
 5916TIP3    H139239   5.528   2.477   5.855 -1.8338 -1.5968 -0.9070
 5916TIP3    H239240   5.543   2.443   5.709  0.2291 -1.8257 -0.6673
 5917TIP3   OH239241   1.455   0.168   5.036 -0.2352 -0.3003 -0.0877
 5917TIP3    H139242   1.434   0.189   5.127 -0.2531  1.2334 -0.4232
 5917TIP3    H239243   1.481   0.075   5.038  0.8872  0.0091  1.6617
 5918TIP3   OH239244   5.460   2.868   2.357 -0.0652  0.1583  0.2198
 5918TIP3    H139245   5.543   2.914   2.350  0.9031 -1.0327  2.7032
 5918TIP3    H239246   5.477   2.780   2.325 -0.7328  0.2748 -0.4795
 5919TIP3   OH239247   2.597   1.629  13.360 -0.1922 -0.1161 -0.5266
 5919TIP3    H139248   2.628   1.692  13.424 -0.7289 -0.1993 -0.1837
 5919TIP3    H239249   2.596   1.545  13.407 -1.8852  0.0436 -0.2154
 5920TIP3   OH239250   3.926   5.264  12.994 -0.7126  0.5086 -0.3609
 5920TIP3    H139251   3.975   5.186  12.966 -1.4907 -0.1065 -0.0599
 5920TIP3    H239252   3.993   5.330  13.009 -0.0051 -0.1972 -0.3263
 5921TIP3   OH239253   1.658   1.444  14.954 -0.1264 -0.3660 -0.8272
 5921TIP3    H139254   1.595   1.376  14.930  0.4174 -0.7357 -1.2290
 5921TIP3    H239255   1.720   1.399  15.012 -1.1300  0.3827  0.8940
 5922TIP3   OH239256   6.686   4.789   2.700  0.2794 -0.1654 -0.1418
 5922TIP3    H139257   6.692   4.872   2.653 -1.3193  0.1307  0.1285
 5922TIP3    H239258   6.643   4.811   2.783  0.8856 -1.0736  0.4307
 5923TIP3   OH239259   4.550   0.026   4.052 -0.5155  0.0576  0.5202
 5923TIP3    H139260   4.532  -0.029   3.976  0.7401  1.2598 -0.6986
 5923TIP3    H239261   4.638   0.060   4.037 -0.3804  0.6235  2.3452
 5924TIP3   OH239262   0.247   0.193  13.624  0.1763  0.0889 -0.1240
 5924TIP3    H139263   0.320   0.197  13.562 -0.2953 -0.7070 -0.7537
 5924TIP3    H239264   0.200   0.275  13.610  1.8716  1.4120  1.5014
 5925TIP3   OH239265   4.667   3.096  11.497 -0.8558 -0.5178  0.2250
 5925TIP3    H139266   4.701   3.185  11.506  0.3931 -0.7372 -1.7991
 5925TIP3    H239267   4.741   3.039  11.518 -0.5365 -1.0130 -2.0051
 5926TIP3   OH239268   3.240   3.962  16.033  0.3422 -0.1548  0.1580
 5926TIP3    H139269   3.193   3.933  15.956  2.6924 -2.1954 -0.6418
 5926TIP3    H239270   3.195   3.920  16.106 -0.5716 -0.0108 -0.3173
 5927TIP3   OH239271   1.867   5.617   2.511 -0.2327  0.3634 -0.2466
 5927TIP3    H139272   1.882   5.578   2.597 -2.7334  1.3089  0.7332
 5927TIP3    H239273   1.848   5.709   2.530 -1.8486  0.3774 -1.6522
 5928TIP3   OH239274   0.522   0.159  17.262 -0.1206  0.3097  0.4815
 5928TIP3    H139275   0.472   0.090  17.218  1.1904  0.7991 -1.9761
 5928TIP3    H239276   0.548   0.121  17.346 -3.5662 -0.3553  1.4021
 5929TIP3   OH239277   2.013   3.826   3.435  0.1493 -0.0723 -0.5218
 5929TIP3    H139278   1.937   3.773   3.459 -0.0702  0.4609  0.0100
 5929TIP3    H239279   1.977   3.913   3.417  0.8308  0.8562  2.0682
 5930TIP3   OH239280   6.430   5.953  16.684 -0.5120 -0.6940  0.2633
 5930TIP3    H139281   6.481   6.021  16.639 -0.1299 -0.9299  0.3393
 5930TIP3    H239282   6.378   6.002  16.748 -0.9503 -0.3715 -0.3228
 5931TIP3   OH239283   0.342   0.245   0.200  0.2346 -0.3598 -0.8062
 5931TIP3    H139284   0.417   0.257   0.258 -0.4770 -0.9650  0.2729
 5931TIP3    H239285   0.356   0.159   0.161  1.2321  0.4603 -2.3654
 5932TIP3   OH239286   3.787   4.234  14.116  0.7901 -0.8859  0.1003
 5932TIP3    H139287   3.804   4.327  14.104  0.4988 -0.8686 -0.1720
 5932TIP3    H239288   3.715   4.230  14.178  1.1455 -0.9411  0.5111
 5933TIP3   OH239289   1.333   1.797   4.605 -0.1051  0.1687  0.0323
 5933TIP3    H139290   1.318   1.891   4.598  2.0211  0.7358  1.9472
 5933TIP3    H239291   1.402   1.779   4.541 -1.7511 -0.5085 -1.6414
 5934TIP3   OH239292   3.515   4.446  16.647  0.8462 -0.3124 -0.5190
 5934TIP3    H139293   3.475   4.391  16.715 -0.0599 -0.6126 -1.2659
 5934TIP3    H239294   3.505   4.535  16.680  1.7444 -0.5385  0.4091
 5935TIP3   OH239295   6.415   4.826  12.835 -0.5112  0.0158 -0.3775
 5935TIP3    H139296   6.506   4.850  12.818  0.1506 -2.2732 -0.4006
 5935TIP3    H239297   6.410   4.734  12.811 -2.7449 -0.0119  0.0306
 5936TIP3   OH239298   0.712   0.411  15.963 -0.2710 -0.4857 -0.6170
 5936TIP3    H139299   0.643   0.412  15.897 -2.6964 -0.8412  1.7592
 5936TIP3    H239300   0.722   0.319  15.987  1.0718 -0.4413 -0.9213
 5937TIP3   OH239301   2.862   0.399   0.717 -0.4233  0.9491  0.4165
 5937TIP3    H139302   2.941   0.425   0.765 -0.8691 -1.9051  3.0747
 5937TIP3    H239303   2.794   0.459   0.748 -0.1427  0.7625  1.4352
 5938TIP3   OH239304   2.939   3.392   2.171 -0.0664  0.2512  0.1636
 5938TIP3    H139305   3.023   3.404   2.126 -0.3417 -0.4562 -0.5679
 5938TIP3    H239306   2.962   3.388   2.264  0.7067  0.1639 -0.0252
 5939TIP3   OH239307   0.675   2.184  14.238  0.3984  0.3197  0.2400
 5939TIP3    H139308   0.705   2.171  14.328 -0.3758 -0.4396  0.3991
 5939TIP3    H239309   0.583   2.210  14.247 -0.1308 -1.2069 -0.3584
 5940TIP3   OH239310   0.172   0.138  12.365 -0.2315  0.6872 -0.2629
 5940TIP3    H139311   0.107   0.088  12.317  0.1445 -0.5836  0.4781
 5940TIP3    H239312   0.254   0.121  12.319 -0.1768  0.9878 -0.2747
 5941TIP3   OH239313   2.653   0.407  12.737 -0.8617 -0.3225  0.1084
 5941TIP3    H139314   2.565   0.417  12.773 -0.9932 -0.2997 -0.2165
 5941TIP3    H239315   2.681   0.320  12.764 -0.4127  0.2149  1.4398
 5942TIP3   OH239316   0.372   5.613   2.668 -0.2145 -0.2791 -0.6863
 5942TIP3    H139317   0.343   5.593   2.579  1.0264 -1.2437 -0.8986
 5942TIP3    H239318   0.466   5.628   2.660 -0.3921  1.5847  0.1775
 5943TIP3   OH239319   2.160   6.007   1.625  0.2809 -0.0682  0.9820
 5943TIP3    H139320   2.086   6.066   1.615  0.0168 -0.0893  2.5801
 5943TIP3    H239321   2.191   5.992   1.536 -0.2115  1.7545  0.4616
 5944TIP3   OH239322   0.382   1.866  11.857  0.6769  0.1963  0.4776
 5944TIP3    H139323   0.356   1.882  11.948  0.2799 -0.7595  0.5457
 5944TIP3    H239324   0.478   1.868  11.860  0.7742 -1.9536  1.3880
 5945TIP3   OH239325   1.440   6.546   2.880  0.0178 -0.3355 -0.1138
 5945TIP3    H139326   1.496   6.574   2.807  0.7115 -0.7946  0.2354
 5945TIP3    H239327   1.474   6.460   2.905 -0.5025 -0.3801  0.4532
 5946TIP3   OH239328   2.151   4.261   4.881 -0.1113 -0.0209  0.0040
 5946TIP3    H139329   2.214   4.252   4.952  1.1961  1.0409 -0.9578
 5946TIP3    H239330   2.067   4.235   4.919  0.6134  0.1231  1.7950
 5947TIP3   OH239331   5.449   1.565   3.358 -0.4365  0.3403  0.1859
 5947TIP3    H139332   5.379   1.533   3.415  0.7033 -0.2296  1.3098
 5947TIP3    H239333   5.449   1.505   3.284  0.4527 -1.2207  1.3749
 5948TIP3   OH239334   0.376   3.539  11.981  0.3836 -0.2487 -0.5927
 5948TIP3    H139335   0.354   3.452  11.949  0.1173 -1.1593  1.8224
 5948TIP3    H239336   0.459   3.527  12.027  0.7849  0.9804 -0.9706
 5949TIP3   OH239337   2.066   5.305   0.306  0.5237  0.3218 -0.5834
 5949TIP3    H139338   2.105   5.263   0.383  1.2277  0.5476 -0.8120
 5949TIP3    H239339   2.100   5.255   0.232  0.1983  0.3816 -0.7724
 5950TIP3   OH239340   3.205   2.642   3.291  0.4219  0.2868 -0.2414
 5950TIP3    H139341   3.228   2.588   3.216  0.5271  0.4749 -0.3443
 5950TIP3    H239342   3.141   2.704   3.258  0.6171  0.4979 -0.2205
 5951TIP3   OH239343   1.615   6.804  13.048  0.5435  0.3124  0.0820
 5951TIP3    H139344   1.663   6.879  13.014  0.1462  0.1391 -0.8710
 5951TIP3    H239345   1.675   6.730  13.035  1.2949  0.5531  1.8070
 5952TIP3   OH239346   6.519   1.188  10.947 -0.8076  0.6440 -0.3940
 5952TIP3    H139347   6.510   1.102  10.906 -2.3957  1.2984 -1.4975
 5952TIP3    H239348   6.597   1.180  11.002 -0.6664 -1.3542 -0.8147
 5953TIP3   OH239349   1.139   0.393   1.015 -0.3764  0.1575 -0.2510
 5953TIP3    H139350   1.213   0.370   0.959 -1.4889  0.0297 -1.7132
 5953TIP3    H239351   1.063   0.352   0.973 -1.2877  0.2069  1.2626
 5954TIP3   OH239352   4.625   0.603  15.065  0.1994  0.2229  0.5397
 5954TIP3    H139353   4.658   0.534  15.008  0.3311  0.1276  0.7286
 5954TIP3    H239354   4.664   0.584  15.150  0.0902  0.4254  0.6358
 5955TIP3   OH239355   6.424   1.023   5.087 -0.1713 -0.1020 -0.8412
 5955TIP3    H139356   6.444   1.072   5.167 -2.9018  0.3589 -0.3299
 5955TIP3    H239357   6.330   1.037   5.074 -0.1442 -1.6134 -3.1780
 5956TIP3   OH239358   0.183   6.612   4.503 -0.4648  0.3090  0.1967
 5956TIP3    H139359   0.150   6.688   4.455 -0.7255 -0.7442 -1.3773
 5956TIP3    H239360   0.140   6.537   4.461  0.1737 -0.7539  1.3660
 5957TIP3   OH239361   4.296   6.469   1.161  0.4186 -0.0597 -0.1704
 5957TIP3    H139362   4.326   6.409   1.230  2.7137  1.2477  0.0512
 5957TIP3    H239363   4.357   6.455   1.088 -0.0177  0.8421 -0.7296
 5958TIP3   OH239364   0.939   2.077   6.947  0.0449  0.1567 -0.3415
 5958TIP3    H139365   1.008   2.136   6.919  1.6031 -1.4631 -0.1046
 5958TIP3    H239366   0.860   2.131   6.949  1.7473  2.8631  2.1906
 5959TIP3   OH239367   4.845   2.283  15.913 -0.5767 -0.4582 -0.1000
 5959TIP3    H139368   4.857   2.195  15.949  2.5402 -0.4833 -0.9089
 5959TIP3    H239369   4.805   2.333  15.985  1.9936 -1.4151  2.1645
 5960TIP3   OH239370   5.658   0.858   3.652 -0.4205  0.4539  0.1677
 5960TIP3    H139371   5.582   0.818   3.609 -0.6579  1.5523 -0.4830
 5960TIP3    H239372   5.624   0.938   3.692  0.7251  2.1772 -2.0320
 5961TIP3   OH239373   1.165   0.402   2.921 -0.0168  0.2075 -0.0812
 5961TIP3    H139374   1.260   0.397   2.935 -0.2286  1.1790  2.2734
 5961TIP3    H239375   1.138   0.312   2.905  0.9996 -0.5180  1.9563
 5962TIP3   OH239376   2.622   1.229   6.453 -0.2489 -0.1698 -0.2869
 5962TIP3    H139377   2.708   1.203   6.485 -1.3532 -3.7786  0.2048
 5962TIP3    H239378   2.615   1.188   6.367 -1.6559 -0.4117 -0.0824
 5963TIP3   OH239379   5.017   6.674  15.073 -0.0432  0.3159  0.3783
 5963TIP3    H139380   5.001   6.590  15.031  0.0462  0.7141 -0.4908
 5963TIP3    H239381   5.111   6.688  15.065  0.0762  0.1122  1.2949
 5964TIP3   OH239382   1.550   4.543   0.076 -0.7180 -1.2691 -0.6808
 5964TIP3    H139383   1.627   4.488   0.092 -0.2588 -0.2674  0.7702
 5964TIP3    H239384   1.502   4.541   0.159 -0.5839  0.6262 -0.5111
 5965TIP3   OH239385   4.967   3.092  11.853  0.2765 -0.2196 -0.4998
 5965TIP3    H139386   4.967   3.162  11.918  2.7605  1.6817 -2.3772
 5965TIP3    H239387   4.876   3.086  11.824 -1.0844 -1.5353  3.3360
 5966TIP3   OH239388   4.044   5.324  15.148  0.0576 -0.0919  0.1844
 5966TIP3    H139389   4.005   5.284  15.070  2.9280  1.2430 -2.1381
 5966TIP3    H239390   4.066   5.249  15.204  0.4188 -1.3770 -1.5655
 5967TIP3   OH239391   6.256   6.776   3.741  0.5543  0.1979  0.1833
 5967TIP3    H139392   6.256   6.706   3.675  1.2503 -0.9744  1.3801
 5967TIP3    H239393   6.328   6.833   3.714  0.3350  0.1691 -0.4973
 5968TIP3   OH239394   3.698   2.386   0.517 -0.2745 -0.1952 -0.1976
 5968TIP3    H139395   3.786   2.363   0.548 -0.5824  1.0180  1.7342
 5968TIP3    H239396   3.678   2.468   0.562 -2.2299 -0.2318 -0.9393
 5969TIP3   OH239397   4.511   1.299  16.944 -0.2660  0.5764 -0.6670
 5969TIP3    H139398   4.441   1.336  16.997 -0.5693  0.0760 -0.7109
 5969TIP3    H239399   4.477   1.214  16.916  0.5705  0.0915 -0.2362
 5970TIP3   OH239400   2.139   5.625   6.395 -0.0591 -0.0742  0.2453
 5970TIP3    H139401   2.065   5.564   6.390 -0.5071  0.3484  1.3433
 5970TIP3    H239402   2.098   5.710   6.413  0.6296  0.3721 -0.2677
 5971TIP3   OH239403   6.632   2.648  12.000 -0.1351 -0.4986  0.6267
 5971TIP3    H139404   6.562   2.583  11.997 -1.5638  0.9040  1.8549
 5971TIP3    H239405   6.695   2.612  12.063  0.5933 -2.0257 -0.8853
 5972TIP3   OH239406   5.560   0.068  12.483  0.0830 -0.4261 -0.3823
 5972TIP3    H139407   5.520   0.136  12.537 -0.4532  1.3095 -2.7878
 5972TIP3    H239408   5.646   0.054  12.521 -0.4368  0.3977  1.1523
 5973TIP3   OH239409   3.825   3.440   2.269 -0.0745  0.0531 -0.5081
 5973TIP3    H139410   3.754   3.387   2.233 -1.0244 -1.3381  2.9675
 5973TIP3    H239411   3.898   3.379   2.279 -0.0726  0.1902  0.4498
 5974TIP3   OH239412   1.719   6.562  12.424  0.7209  0.4271  0.0767
 5974TIP3    H139413   1.676   6.575  12.509  2.4673  0.2037  1.0478
 5974TIP3    H239414   1.665   6.610  12.362 -0.3390  1.0133  1.4021
 5975TIP3   OH239415   3.367   2.903  15.348  0.1102  0.1527 -0.0777
 5975TIP3    H139416   3.330   2.822  15.382  3.2897 -1.6618 -0.5276
 5975TIP3    H239417   3.420   2.937  15.420 -1.4241  2.1096  0.2169
 5976TIP3   OH239418   2.892   3.356  14.119  0.0994 -0.7741 -0.3637
 5976TIP3    H139419   2.932   3.443  14.126 -0.5277 -0.3609 -1.6247
 5976TIP3    H239420   2.849   3.343  14.203 -0.6461  0.5944 -0.5060
 5977TIP3   OH239421   1.803   5.057   0.608  0.2366  1.0939 -0.7523
 5977TIP3    H139422   1.830   4.971   0.641  0.5688  1.7814  0.8602
 5977TIP3    H239423   1.824   5.054   0.515  1.3411 -0.1700 -0.5021
 5978TIP3   OH239424   3.192   5.438  16.869 -0.4486 -0.1116 -0.3444
 5978TIP3    H139425   3.138   5.374  16.823 -0.0375 -0.2030 -0.6971
 5978TIP3    H239426   3.185   5.518  16.816  0.7337 -0.4646 -1.0599
 5979TIP3   OH239427   4.301   4.962  14.677  0.5649  0.1491 -0.1895
 5979TIP3    H139428   4.269   4.872  14.682  0.1998  0.2836 -0.0779
 5979TIP3    H239429   4.384   4.955  14.629  2.0730 -0.6350  2.3349
 5980TIP3   OH239430   0.049   6.280   1.367 -0.2518  0.2479 -0.3662
 5980TIP3    H139431   0.065   6.283   1.273  0.1571  1.1297 -0.2794
 5980TIP3    H239432   0.071   6.368   1.398 -1.0559  0.1785  0.4457
 5981TIP3   OH239433   3.875   5.632   5.115  0.1220 -0.5698 -0.2559
 5981TIP3    H139434   3.927   5.695   5.165 -1.2688 -1.0241  1.9159
 5981TIP3    H239435   3.849   5.680   5.037  0.9283  0.7973  0.2684
 5982TIP3   OH239436   2.634   0.233  13.073 -0.0697 -0.4980 -0.5895
 5982TIP3    H139437   2.567   0.298  13.055 -0.7622 -0.9409  0.3619
 5982TIP3    H239438   2.695   0.241  12.999 -0.1669  1.1763 -0.5178
 5983TIP3   OH239439   5.044   4.833  11.844 -0.7452 -0.3222 -0.7212
 5983TIP3    H139440   4.980   4.872  11.904  0.7754 -0.5397  1.1365
 5983TIP3    H239441   5.092   4.907  11.809  0.4342 -0.3251  0.8092
 5984TIP3   OH239442   2.136   0.088   4.784  0.0648  0.4329  0.0695
 5984TIP3    H139443   2.215   0.046   4.749 -0.6911 -1.2593  0.2649
 5984TIP3    H239444   2.113   0.035   4.860 -0.6332  1.5912  0.6850
 5985TIP3   OH239445   2.416   2.698   3.646  0.1277  0.1360 -0.1010
 5985TIP3    H139446   2.347   2.761   3.624  1.4304  2.9613  3.1216
 5985TIP3    H239447   2.369   2.626   3.689 -1.1174  0.2575 -1.1969
 5986TIP3   OH239448   5.215   2.153  12.209 -0.1537  0.4746 -0.2535
 5986TIP3    H139449   5.195   2.236  12.253 -1.3893 -1.6509  3.7314
 5986TIP3    H239450   5.133   2.129  12.165 -0.4863  0.4054  0.3914
 5987TIP3   OH239451   6.081   6.728  12.534 -0.2945 -0.1350 -0.4010
 5987TIP3    H139452   6.157   6.760  12.584 -1.1712  1.6348 -0.1500
 5987TIP3    H239453   6.099   6.635  12.522  1.1022 -0.1145  1.1364
 5988TIP3   OH239454   2.726   5.453   0.597  0.3041 -0.3882 -0.2637
 5988TIP3    H139455   2.771   5.516   0.653 -0.8149 -0.5307  0.8467
 5988TIP3    H239456   2.684   5.393   0.658 -2.6635  0.6276 -1.1268
 5989TIP3   OH239457   2.179   5.037   3.456  0.0873 -0.0704 -0.1562
 5989TIP3    H139458   2.153   5.016   3.367 -1.0612 -0.4124  0.2428
 5989TIP3    H239459   2.270   5.008   3.461  1.1064  2.5085 -2.0282
 5990TIP3   OH239460   0.269   1.534   6.434 -0.2286 -0.1059 -0.2598
 5990TIP3    H139461   0.343   1.473   6.437  1.2050  1.5724 -0.1709
 5990TIP3    H239462   0.198   1.483   6.394  0.9025 -1.8213 -0.1789
 5991TIP3   OH239463   4.102   0.841  12.118  0.0697 -1.0721  0.9404
 5991TIP3    H139464   4.126   0.925  12.080 -2.1817  0.5964  2.9043
 5991TIP3    H239465   4.172   0.822  12.181 -0.2520  0.2686  1.7385
 5992TIP3   OH239466   5.165   1.625   4.966 -0.1231 -0.0586  0.2681
 5992TIP3    H139467   5.255   1.595   4.978 -0.6449 -2.1641 -0.6085
 5992TIP3    H239468   5.170   1.686   4.892  0.4280 -1.2185 -0.6891
 5993TIP3   OH239469   3.740   3.779   1.728 -0.1998  0.4483  0.0927
 5993TIP3    H139470   3.826   3.737   1.721 -0.4028  0.0629 -0.1627
 5993TIP3    H239471   3.738   3.816   1.816  0.2901  0.6014  0.0421
 5994TIP3   OH239472   5.173   1.315   3.715 -0.0561  0.7193 -0.0121
 5994TIP3    H139473   5.092   1.266   3.725  0.6032 -0.1535  1.3151
 5994TIP3    H239474   5.210   1.320   3.804  1.8784  0.1336 -0.7302
 5995TIP3   OH239475   5.646   2.915  16.482  0.0957  0.3110 -0.2477
 5995TIP3    H139476   5.586   2.886  16.551 -1.0162 -1.9862 -2.0289
 5995TIP3    H239477   5.733   2.889  16.514 -0.2989  0.0610  0.6624
 5996TIP3   OH239478   4.308   4.348  15.520  0.2230  0.1914 -0.2296
 5996TIP3    H139479   4.259   4.285  15.573 -0.5474  1.4760  0.6532
 5996TIP3    H239480   4.399   4.336  15.546  0.1872 -1.0011 -0.5818
 5997TIP3   OH239481   5.330   3.947   2.919 -0.0752  0.6614  0.0282
 5997TIP3    H139482   5.295   3.897   2.845 -1.7317  0.3737  0.9609
 5997TIP3    H239483   5.424   3.951   2.903 -0.3624  0.4161 -1.9696
 5998TIP3   OH239484   6.293   6.354  14.884 -1.1775  0.4463 -0.6098
 5998TIP3    H139485   6.302   6.375  14.978 -0.5718 -1.7143 -0.1458
 5998TIP3    H239486   6.242   6.427  14.849 -3.2933  0.3009  1.8356
 5999TIP3   OH239487   6.698   0.993   4.987  0.6546  0.1575 -0.2168
 5999TIP3    H139488   6.700   0.989   4.891 -1.1535  1.0265 -0.3319
 5999TIP3    H239489   6.605   0.990   5.009  1.0204  0.4077  1.5001
 6000TIP3   OH239490   4.717   1.148   1.595 -0.0421  0.2117 -0.0812
 6000TIP3    H139491   4.623   1.139   1.609  0.1267  0.7212  1.7435
 6000TIP3    H239492   4.756   1.122   1.679  1.6748 -2.9336 -1.6781
 6001TIP3   OH239493   6.378   1.542   4.251 -0.0069 -0.1380 -0.5101
 6001TIP3    H139494   6.437   1.475   4.286  0.8855  1.0274  0.3265
 6001TIP3    H239495   6.436   1.614   4.226 -0.9826  0.5760 -0.7890
 6002TIP3   OH239496   1.446   3.864   3.633 -0.2388  0.1989 -0.6418
 6002TIP3    H139497   1.407   3.919   3.701 -0.9390 -0.4534 -0.5051
 6002TIP3    H239498   1.377   3.801   3.610  0.8934 -1.3177 -0.0270
 6003TIP3   OH239499   6.643   3.920   5.916 -0.1551 -0.2899  0.1173
 6003TIP3    H139500   6.565   3.958   5.958 -1.1661  0.0279 -1.9193
 6003TIP3    H239501   6.685   3.869   5.986 -1.5023  0.5186  1.5980
 6004TIP3   OH239502   6.347   4.558   2.819 -0.3328 -0.0159  0.9736
 6004TIP3    H139503   6.394   4.475   2.816 -0.3281  0.0143 -0.2916
 6004TIP3    H239504   6.372   4.603   2.738  0.7223  1.8153  2.2328
 6005TIP3   OH239505   0.446   0.264   1.432  0.2787 -0.2654  0.4660
 6005TIP3    H139506   0.519   0.311   1.392 -0.2481 -0.1317 -0.3738
 6005TIP3    H239507   0.479   0.176   1.446  1.7366  0.6234  3.3283
 6006TIP3   OH239508   4.100   6.096  11.221 -0.6016  0.6323  0.0003
 6006TIP3    H139509   4.046   6.018  11.229 -0.4829  0.4515 -0.8412
 6006TIP3    H239510   4.069   6.138  11.141 -1.6543  2.2389  1.1670
 6007TIP3   OH239511   5.246   2.468   5.231 -0.3197 -0.3752 -0.1489
 6007TIP3    H139512   5.278   2.537   5.172 -0.1004 -0.7654 -0.4929
 6007TIP3    H239513   5.316   2.455   5.294  0.8178 -2.1441 -1.6759
 6008TIP3   OH239514   5.471   2.542   3.997  0.1682  0.3184 -0.2024
 6008TIP3    H139515   5.377   2.535   4.010 -0.1175  1.8584 -1.1742
 6008TIP3    H239516   5.508   2.534   4.085 -0.9224  0.3788  0.2764
 6009TIP3   OH239517   2.621   0.315  16.032 -0.0559 -0.4388  0.2917
 6009TIP3    H139518   2.616   0.238  15.976  0.2000 -1.2674  1.3560
 6009TIP3    H239519   2.683   0.290  16.101  1.1021  1.2295 -0.0928
 6010TIP3   OH239520   1.966   3.154   4.172  0.8343 -0.4218 -0.2006
 6010TIP3    H139521   1.954   3.225   4.235  1.7655  1.2578 -1.8120
 6010TIP3    H239522   1.887   3.101   4.180 -1.0185  2.1123 -0.5306
 6011TIP3   OH239523   2.166   6.038  16.973  0.2417  0.3343  0.1163
 6011TIP3    H139524   2.180   5.944  16.984  1.6885  0.3019 -1.5556
 6011TIP3    H239525   2.070   6.048  16.974  0.0827 -1.0354  1.0087
 6012TIP3   OH239526   3.404   1.241   0.342  0.1526 -1.1072 -1.0204
 6012TIP3    H139527   3.344   1.284   0.281  0.4201 -1.2791 -1.4085
 6012TIP3    H239528   3.353   1.232   0.423  0.1641  0.1450 -0.8486
 6013TIP3   OH239529   1.728   4.471  10.982 -0.5994  0.2973 -0.1626
 6013TIP3    H139530   1.813   4.509  11.005 -1.3065  0.4780  2.5180
 6013TIP3    H239531   1.670   4.547  10.971 -0.4660  0.1769 -1.9808
 6014TIP3   OH239532   5.069   3.287  11.304 -0.2499  0.4027 -0.3726
 6014TIP3    H139533   5.041   3.336  11.382  0.0801 -1.0562  0.7095
 6014TIP3    H239534   5.164   3.295  11.304 -0.1288 -0.8371  0.2571
 6015TIP3   OH239535   5.843   3.640   3.686 -0.0706  0.3468  0.0270
 6015TIP3    H139536   5.933   3.621   3.659 -0.9076 -0.7426 -2.2480
 6015TIP3    H239537   5.844   3.631   3.781  1.9763 -0.7168 -0.0494
 6016TIP3   OH239538   2.786   5.096  13.465  0.4550 -0.3729 -0.0989
 6016TIP3    H139539   2.799   5.052  13.548 -1.2792  1.2872  1.1459
 6016TIP3    H239540   2.722   5.041  13.419  0.8333 -0.8840 -0.0243
 6017TIP3   OH239541   6.063   4.815  10.710 -0.1054 -0.2064  0.3127
 6017TIP3    H139542   6.016   4.860  10.780 -2.2845 -0.4768 -0.8978
 6017TIP3    H239543   6.039   4.723  10.721  0.8752 -0.4887  0.1876
 6018TIP3   OH239544   2.174   0.122   2.196  0.1850 -0.3123 -0.0537
 6018TIP3    H139545   2.192   0.048   2.137 -1.0414  0.3764 -1.3761
 6018TIP3    H239546   2.159   0.082   2.281 -0.1537 -1.5780 -0.6819
 6019TIP3   OH239547   0.934   4.647  11.631  0.1258  0.4559 -0.2091
 6019TIP3    H139548   0.860   4.611  11.679  0.7330 -1.5226 -0.6500
 6019TIP3    H239549   0.984   4.697  11.696 -1.4437  1.6762  0.1278
 6020TIP3   OH239550   5.357   3.199   1.777  0.0519 -0.2621  0.0462
 6020TIP3    H139551   5.313   3.257   1.715 -2.9826 -2.1648  0.2016
 6020TIP3    H239552   5.286   3.146   1.815  2.1715 -1.4411  2.7253
 6021TIP3   OH239553   3.703   5.824  14.795  0.2787  0.0183  0.4076
 6021TIP3    H139554   3.707   5.790  14.706 -2.0623  1.3922 -0.3023
 6021TIP3    H239555   3.773   5.890  14.799  0.2017  0.1628 -0.5050
 6022TIP3   OH239556   6.522   0.425   3.809  0.5320 -0.6820 -0.1761
 6022TIP3    H139557   6.444   0.429   3.753  0.4173 -0.0810  0.0187
 6022TIP3    H239558   6.593   0.400   3.750  0.2171 -1.1131 -0.3790
 6023TIP3   OH239559   6.274   3.997   2.240 -0.0767 -0.7138 -0.3709
 6023TIP3    H139560   6.191   3.993   2.191 -0.4883 -0.0543  0.2465
 6023TIP3    H239561   6.257   3.948   2.320  0.2982 -1.0134 -0.4732
 6024TIP3   OH239562   2.584   1.405   4.913  0.2276  0.3411  0.2733
 6024TIP3    H139563   2.543   1.491   4.920 -0.8079 -0.1180  0.0876
 6024TIP3    H239564   2.546   1.354   4.985  0.5721 -0.0631  0.1769
 6025TIP3   OH239565   5.027   4.492  15.810  0.0215 -0.3206 -0.1043
 6025TIP3    H139566   5.107   4.506  15.759  1.7908  0.9155  2.7629
 6025TIP3    H239567   4.967   4.561  15.781 -0.0724 -1.1992 -2.2108
 6026TIP3   OH239568   4.742   1.709   3.187  0.0511 -0.1108  0.3028
 6026TIP3    H139569   4.687   1.742   3.116 -0.0527  0.4437  0.6343
 6026TIP3    H239570   4.831   1.737   3.163  0.1185 -0.5569  0.0272
 6027TIP3   OH239571   4.557   0.564   3.854  0.4679 -0.8367 -0.2063
 6027TIP3    H139572   4.633   0.598   3.807  0.6341 -0.0590  0.5900
 6027TIP3    H239573   4.581   0.571   3.946 -0.8197  0.0654  0.0874
 6028TIP3   OH239574   4.105   2.630   2.035  0.3220  0.0617 -0.5343
 6028TIP3    H139575   4.121   2.585   1.953 -1.2483 -1.2067 -0.1884
 6028TIP3    H239576   4.015   2.663   2.028  0.5324  0.8598  0.2651
 6029TIP3   OH239577   3.733   0.662  13.509  0.3847 -0.0569  0.4667
 6029TIP3    H139578   3.725   0.755  13.528 -1.0360  0.0982 -0.7276
 6029TIP3    H239579   3.744   0.658  13.414  0.9645 -1.0924  0.5616
 6030TIP3   OH239580   1.063   6.454   5.158  0.0037 -0.5133  0.1682
 6030TIP3    H139581   1.036   6.542   5.182  0.5424 -0.4550  0.5678
 6030TIP3    H239582   1.052   6.450   5.063 -0.7152 -0.2594  0.2367
 6031TIP3   OH239583   2.586   0.458  14.845  0.2931 -0.0967  0.2182
 6031TIP3    H139584   2.535   0.520  14.794  0.9687  0.7580  0.5496
 6031TIP3    H239585   2.643   0.513  14.899  0.1584 -0.9871  1.3065
 6032TIP3   OH239586   3.088   2.395  10.694  0.2170  0.3362 -0.1673
 6032TIP3    H139587   3.042   2.335  10.635  0.5538  0.8491 -0.9688
 6032TIP3    H239588   3.110   2.470  10.640  0.0865  1.0521  0.7508
 6033TIP3   OH239589   4.479   5.507   1.070  0.3425 -0.2222  0.2470
 6033TIP3    H139590   4.495   5.548   0.985  1.2672 -2.8468 -0.9439
 6033TIP3    H239591   4.516   5.568   1.134 -0.0143  1.6234 -1.2173
 6034TIP3   OH239592   0.051   1.450  13.081  0.4847 -0.6234 -0.1422
 6034TIP3    H139593  -0.025   1.509  13.084 -0.0401 -1.2263 -0.9677
 6034TIP3    H239594   0.054   1.411  13.168 -0.5680 -1.0834 -0.2910
 6035TIP3   OH239595   1.931   2.313  11.166  0.7279  0.0043 -0.1769
 6035TIP3    H139596   1.928   2.315  11.070 -3.2228 -3.6704 -0.4594
 6035TIP3    H239597   1.977   2.232  11.187 -1.4103 -1.0512  0.7461
 6036TIP3   OH239598   1.404   5.298   2.038  0.0898 -0.1048  0.3875
 6036TIP3    H139599   1.336   5.365   2.048 -0.0830 -0.1389 -0.4671
 6036TIP3    H239600   1.356   5.218   2.016  0.3022 -0.4972  1.3275
 6037TIP3   OH239601   6.803   0.350   3.733 -0.9122  1.0850 -0.5643
 6037TIP3    H139602   6.820   0.330   3.825 -2.8722 -1.5378 -0.6563
 6037TIP3    H239603   6.880   0.317   3.687 -0.8665  0.4339 -0.0425
 6038TIP3   OH239604   1.491   6.212   0.712 -0.5743 -0.2330  0.1689
 6038TIP3    H139605   1.429   6.176   0.648 -1.3745  1.1609  0.1189
 6038TIP3    H239606   1.577   6.191   0.676 -1.0149 -0.1276 -0.9978
 6039TIP3   OH239607   2.188   6.443  13.806 -0.4144 -0.2701  0.4671
 6039TIP3    H139608   2.255   6.506  13.832 -0.8387 -1.1315  4.2182
 6039TIP3    H239609   2.170   6.463  13.714  3.3683  1.3880 -0.0896
 6040TIP3   OH239610   3.858   1.023  13.177  0.5295 -0.2405 -0.0622
 6040TIP3    H139611   3.795   0.957  13.149  0.3831 -0.1254 -0.0082
 6040TIP3    H239612   3.912   1.040  13.100  0.1112  0.0977 -0.2852
 6041TIP3   OH239613   3.141   5.047  12.077 -0.5372  0.0087 -0.2706
 6041TIP3    H139614   3.209   5.072  12.140 -1.1305 -0.4361  0.5750
 6041TIP3    H239615   3.173   4.967  12.037 -0.8286 -0.5357  0.5698
 6042TIP3   OH239616   6.456   0.825  14.637  0.0214  0.0823  0.7887
 6042TIP3    H139617   6.437   0.766  14.563 -1.7638 -0.4698  1.6411
 6042TIP3    H239618   6.438   0.913  14.602  0.6111 -0.0369  0.1525
 6043TIP3   OH239619   2.284   6.517   4.967 -0.2183  0.2801  0.0673
 6043TIP3    H139620   2.337   6.489   4.892 -0.0455 -0.9046  0.6112
 6043TIP3    H239621   2.347   6.544   5.033 -0.2276 -1.4567  0.8433
 6044TIP3   OH239622   2.040   0.389   1.851 -0.4849 -0.3933  0.4635
 6044TIP3    H139623   2.093   0.310   1.846  1.1142  0.5671  1.3617
 6044TIP3    H239624   2.013   0.395   1.943  0.0824  0.5014  0.5888
 6045TIP3   OH239625   2.809   2.766   1.563 -0.8758  0.2927 -0.3222
 6045TIP3    H139626   2.813   2.704   1.490 -0.3307  0.1266 -0.1554
 6045TIP3    H239627   2.894   2.758   1.606 -2.1752 -1.8870  2.1661
 6046TIP3   OH239628   1.136   5.202   2.927  0.1506  0.2254  0.0144
 6046TIP3    H139629   1.095   5.185   3.012 -1.3462 -0.5753 -0.8398
 6046TIP3    H239630   1.149   5.115   2.889 -0.2021  0.6275 -1.0490
 6047TIP3   OH239631   6.430   5.321   4.705  0.4443  0.3469 -0.2034
 6047TIP3    H139632   6.512   5.325   4.656 -0.2070  0.1693 -1.3362
 6047TIP3    H239633   6.371   5.381   4.659 -0.1471  0.3011  0.4581
 6048TIP3   OH239634   2.542   1.821  16.384  0.0856  0.6025  0.3033
 6048TIP3    H139635   2.573   1.738  16.349 -1.3872  0.7157 -1.4395
 6048TIP3    H239636   2.476   1.797  16.449  0.4690  0.4176  0.6305
 6049TIP3   OH239637   0.936   3.201  14.452  0.1352 -0.3208 -0.3545
 6049TIP3    H139638   1.011   3.260  14.458  1.6478 -2.3155  1.9869
 6049TIP3    H239639   0.968   3.127  14.400 -1.1285 -0.0644 -1.5875
 6050TIP3   OH239640   2.345   6.693  10.985  0.5818  0.0956 -0.5780
 6050TIP3    H139641   2.416   6.755  10.969  0.7068 -0.1791 -1.1225
 6050TIP3    H239642   2.386   6.606  10.976  0.9369 -0.1452  2.4233
 6051TIP3   OH239643   4.998   4.158   3.873 -0.4724  0.0226 -0.0813
 6051TIP3    H139644   4.961   4.244   3.854  0.2999 -0.0301 -2.1068
 6051TIP3    H239645   4.993   4.111   3.790  1.0964 -1.1123  0.4107
 6052TIP3   OH239646   4.157   4.577   2.470  0.2119  0.2627  0.2628
 6052TIP3    H139647   4.103   4.634   2.524  1.9891  1.4040  0.9057
 6052TIP3    H239648   4.199   4.517   2.531 -0.4798 -0.7999 -0.2604
 6053TIP3   OH239649   5.150   3.947   3.106  0.5183  0.3164  0.2845
 6053TIP3    H139650   5.068   3.963   3.060  0.1308  0.1617  0.8974
 6053TIP3    H239651   5.212   3.922   3.038 -0.5219 -1.7824  0.0365
 6054TIP3   OH239652   3.099   1.533  13.965  0.4542 -0.1084  0.3730
 6054TIP3    H139653   3.137   1.456  13.923  1.2614  0.1548  0.6040
 6054TIP3    H239654   3.040   1.496  14.031  3.4472 -0.6972  2.9913
 6055TIP3   OH239655   6.200   6.215   0.158 -0.5286  0.4506 -0.2090
 6055TIP3    H139656   6.261   6.274   0.113 -0.1560  0.8864  0.8425
 6055TIP3    H239657   6.187   6.255   0.244 -0.6635 -0.7537  0.3394
 6056TIP3   OH239658   3.145   4.023   0.398 -0.3443  0.1921 -0.3163
 6056TIP3    H139659   3.131   3.981   0.313  1.4418 -0.7557 -0.1944
 6056TIP3    H239660   3.092   3.973   0.460  1.6729 -1.9227 -0.1889
 6057TIP3   OH239661   5.721   2.689   5.321 -0.0558  0.0229 -0.0804
 6057TIP3    H139662   5.746   2.668   5.410 -0.6827 -0.1184  0.0656
 6057TIP3    H239663   5.688   2.779   5.326 -0.6312 -0.1841 -0.0571
 6058TIP3   OH239664   0.228   1.509   0.613 -0.2067 -0.5499  0.1201
 6058TIP3    H139665   0.162   1.455   0.657 -0.2088 -0.5720  0.0898
 6058TIP3    H239666   0.183   1.544   0.537 -0.4982  0.2778  0.6608
 6059TIP3   OH239667   0.707   2.080  14.010  0.1128  0.4118 -0.2389
 6059TIP3    H139668   0.692   2.113  14.098 -1.8582  0.0214 -0.3831
 6059TIP3    H239669   0.665   2.144  13.952  0.8169  0.3260 -0.8632
 6060TIP3   OH239670   1.197   3.047   0.955  0.8690  0.2341 -0.0755
 6060TIP3    H139671   1.162   3.128   0.917  0.0389  0.0679  0.3231
 6060TIP3    H239672   1.183   2.981   0.888  3.3543  0.7674 -1.2351
 6061TIP3   OH239673   4.332   5.494  11.202 -0.0999  0.0862 -0.2159
 6061TIP3    H139674   4.372   5.414  11.168  0.1748  0.2819 -0.3613
 6061TIP3    H239675   4.407   5.551  11.223 -0.3001  0.4606 -0.5035
 6062TIP3   OH239676   6.359   2.068  11.370 -0.6717  0.5203 -0.6996
 6062TIP3    H139677   6.356   1.975  11.347  0.8035  0.6497 -1.5339
 6062TIP3    H239678   6.358   2.069  11.466 -4.0255 -0.1628 -0.6241
 6063TIP3   OH239679   2.972   2.449   3.960 -0.1431  0.2219  0.1522
 6063TIP3    H139680   2.931   2.483   3.881 -0.7188  0.8659  0.7154
 6063TIP3    H239681   2.902   2.448   4.025  0.7009  1.2302  1.1056
 6064TIP3   OH239682   2.571   1.503  10.836 -1.0502 -0.5277  0.3291
 6064TIP3    H139683   2.598   1.437  10.771  0.0800 -0.3282  0.5742
 6064TIP3    H239684   2.574   1.586  10.788 -0.3174 -0.3933  0.6000
 6065TIP3   OH239685   1.539   0.921  12.560  0.0352  0.1986 -0.2438
 6065TIP3    H139686   1.510   1.006  12.593  0.1720  0.3871 -0.6077
 6065TIP3    H239687   1.538   0.864  12.637  1.9248  1.0340  0.4467
 6066TIP3   OH239688   6.269   0.781  16.060  0.2090 -0.1425  0.4505
 6066TIP3    H139689   6.189   0.752  16.016  0.2217 -0.2334  0.4881
 6066TIP3    H239690   6.335   0.784  15.991  0.4701 -1.2205  0.6452
 6067TIP3   OH239691   2.338   1.750   2.967 -0.1694  0.0248 -0.7984
 6067TIP3    H139692   2.285   1.745   3.046 -1.2366  2.3089 -1.2942
 6067TIP3    H239693   2.304   1.680   2.910 -0.9303 -0.1614 -0.1304
 6068TIP3   OH239694   2.588   4.416  11.068  0.1475  0.4361 -0.2910
 6068TIP3    H139695   2.495   4.424  11.046 -0.2428 -0.8708  0.7735
 6068TIP3    H239696   2.615   4.333  11.030  0.6732  0.4200  0.1079
 6069TIP3   OH239697   5.592   3.674  10.490 -0.6063 -1.0246 -0.4737
 6069TIP3    H139698   5.577   3.767  10.504  0.6614 -0.1738 -3.7181
 6069TIP3    H239699   5.650   3.647  10.562  2.8704  1.9801 -1.8114
 6070TIP3   OH239700   4.838   5.074  13.621 -0.4583  0.4012 -0.7608
 6070TIP3    H139701   4.876   5.016  13.555  0.4781  0.6364 -0.4339
 6070TIP3    H239702   4.908   5.135  13.644 -0.7368  0.2614  0.5272
 6071TIP3   OH239703   5.620   6.327   0.405 -0.2412 -0.0719 -0.3594
 6071TIP3    H139704   5.707   6.288   0.412  0.6825  1.9596  0.2894
 6071TIP3    H239705   5.610   6.378   0.486 -2.2533 -0.6657 -0.1904
 6072TIP3   OH239706   3.387   0.578  16.341  0.2202  0.7114 -0.2908
 6072TIP3    H139707   3.393   0.632  16.262  0.4971  0.5596 -0.3753
 6072TIP3    H239708   3.424   0.633  16.410  1.4986  0.2363 -0.5772
 6073TIP3   OH239709   1.067   5.417   5.992 -0.1998  0.3576 -0.2720
 6073TIP3    H139710   1.121   5.380   6.062 -0.9329 -0.9226 -0.3525
 6073TIP3    H239711   1.097   5.507   5.984  0.4448  0.3008  1.1467
 6074TIP3   OH239712   4.962   1.566  14.347 -0.2175 -0.4205  0.2769
 6074TIP3    H139713   4.891   1.514  14.310 -0.1312 -0.2319 -0.1520
 6074TIP3    H239714   4.964   1.540  14.439 -1.3571  0.1275  0.4798
 6075TIP3   OH239715   2.356   2.858  17.048  0.6010 -0.0495  0.3512
 6075TIP3    H139716   2.357   2.848  17.143 -1.3865 -0.4543  0.3609
 6075TIP3    H239717   2.442   2.825  17.020  0.1117 -2.8144  1.7523
 6076TIP3   OH239718   6.637   1.923  11.666 -0.1641 -0.3930 -0.5796
 6076TIP3    H139719   6.688   1.842  11.664 -0.7995 -0.7911 -0.9561
 6076TIP3    H239720   6.660   1.968  11.585  2.9399  1.5796  1.1506
 6077TIP3   OH239721   3.774   5.051  15.515 -0.2986  0.6178 -0.4412
 6077TIP3    H139722   3.859   5.027  15.551 -0.4147  1.4245  0.3969
 6077TIP3    H239723   3.790   5.131  15.466 -0.2384 -0.2074 -1.8083
 6078TIP3   OH239724   1.952   6.766  11.518 -0.2137 -0.4299 -0.6546
 6078TIP3    H139725   1.924   6.688  11.470 -1.3914 -0.7716  0.5307
 6078TIP3    H239726   2.045   6.752  11.535 -0.0259 -0.7829 -1.8972
 6079TIP3   OH239727   4.074   4.722   3.771 -0.2185 -0.1073  0.4236
 6079TIP3    H139728   3.989   4.679   3.783  0.2984 -1.6456 -1.1564
 6079TIP3    H239729   4.083   4.732   3.677  0.0392  2.8941  0.6631
 6080TIP3   OH239730   4.976   2.893   4.028  0.0667 -0.0864 -0.2029
 6080TIP3    H139731   4.965   2.807   3.986  3.4383 -1.8956  2.1120
 6080TIP3    H239732   5.058   2.926   3.993 -0.7838  1.8680 -0.4443
 6081TIP3   OH239733   6.325   3.379  12.246 -0.2727  0.9212  0.1044
 6081TIP3    H139734   6.403   3.342  12.287 -0.0135 -0.0728 -1.2295
 6081TIP3    H239735   6.260   3.309  12.249 -1.2366  1.8254  1.4397
 6082TIP3   OH239736   1.870   4.387   2.651  0.0855 -0.1335 -0.5469
 6082TIP3    H139737   1.874   4.480   2.629 -0.3029 -0.2795 -1.2856
 6082TIP3    H239738   1.936   4.375   2.719 -1.1801  1.0562  0.9606
 6083TIP3   OH239739   1.860   4.730  11.401  0.1810 -0.2281  1.2461
 6083TIP3    H139740   1.800   4.681  11.345 -0.3229  0.1967  1.4005
 6083TIP3    H239741   1.942   4.734  11.353 -0.5425  1.0568  0.0273
 6084TIP3   OH239742   3.180   1.213  15.961  0.7665 -0.5106  0.3756
 6084TIP3    H139743   3.150   1.130  15.925 -0.1522 -0.6339  1.3698
 6084TIP3    H239744   3.137   1.219  16.046  1.3881  0.6489  0.6289
 6085TIP3   OH239745   0.610   6.170   2.762 -0.3129 -0.4850  0.3867
 6085TIP3    H139746   0.652   6.241   2.810 -0.3635 -0.0102 -0.2509
 6085TIP3    H239747   0.550   6.130   2.825  1.8605 -1.9146  1.6908
 6086TIP3   OH239748   3.341   6.130  13.178  0.3099 -0.2857 -0.2624
 6086TIP3    H139749   3.277   6.180  13.229  2.5408  0.8715  1.5829
 6086TIP3    H239750   3.338   6.171  13.091  1.5259  2.7544  0.9756
 6087TIP3   OH239751   1.097   0.796   0.380  0.3599  0.0407  0.4160
 6087TIP3    H139752   1.150   0.765   0.306  1.3350  2.4867  0.0120
 6087TIP3    H239753   1.037   0.860   0.342 -2.3932 -1.9884  1.0292
 6088TIP3   OH239754   2.099   2.709   5.474 -0.4544  0.1176  0.4327
 6088TIP3    H139755   2.181   2.661   5.464 -0.5604 -0.2877  1.4138
 6088TIP3    H239756   2.124   2.801   5.475 -0.0146 -0.0075  0.7335
 6089TIP3   OH239757   2.443   0.910  17.279 -0.2221 -0.6130 -0.0448
 6089TIP3    H139758   2.508   0.877  17.217 -0.0808  2.3593 -1.6676
 6089TIP3    H239759   2.492   0.971  17.334 -1.3298  0.7015 -0.4526
 6090TIP3   OH239760   4.750   4.430  13.156  0.5552 -0.3816 -0.2171
 6090TIP3    H139761   4.729   4.463  13.244 -0.1978 -1.0424 -0.1450
 6090TIP3    H239762   4.683   4.467  13.100  0.2603 -1.0233 -0.2918
 6091TIP3   OH239763   5.082   1.907   5.827 -0.1229 -0.2067  0.0771
 6091TIP3    H139764   5.036   1.988   5.804  0.2501 -0.1211 -0.3940
 6091TIP3    H239765   5.013   1.847   5.856 -0.3758  0.3415  0.6084
 6092TIP3   OH239766   3.874   3.981  16.354 -0.0329  0.6802 -0.0601
 6092TIP3    H139767   3.958   4.001  16.314 -1.0169  2.8334 -1.2906
 6092TIP3    H239768   3.883   4.010  16.444  0.5152  1.0304 -0.2199
 6093TIP3   OH239769   4.108   1.355  13.260  0.0067  0.6694  0.6339
 6093TIP3    H139770   4.108   1.397  13.174  0.1659  0.5361  0.5661
 6093TIP3    H239771   4.032   1.298  13.259  0.7885 -0.4092  0.0369
 6094TIP3   OH239772   0.200   2.450   6.782 -0.1773 -0.7979  0.3265
 6094TIP3    H139773   0.149   2.391   6.726 -0.8710 -2.3399  2.4486
 6094TIP3    H239774   0.138   2.520   6.806  0.8165  1.3108 -2.6878
 6095TIP3   OH239775   4.398   5.904  14.964  0.2860  0.0858  0.5362
 6095TIP3    H139776   4.317   5.909  15.015  0.2820 -0.0927  0.5482
 6095TIP3    H239777   4.455   5.847  15.016  0.3203 -0.0114  0.3918
 6096TIP3   OH239778   3.188   3.660   4.573  0.2886 -0.8472 -0.1878
 6096TIP3    H139779   3.133   3.626   4.503 -0.0451 -0.8344  0.0624
 6096TIP3    H239780   3.137   3.644   4.653 -1.4704  3.2290 -0.2697
 6097TIP3   OH239781   6.522   3.003  14.904 -0.6250  0.1819 -0.1052
 6097TIP3    H139782   6.433   2.977  14.881 -0.4681  0.1150 -0.6633
 6097TIP3    H239783   6.541   2.957  14.986 -1.1426  0.2855  0.0732
 6098TIP3   OH239784   4.618   4.513  13.389  0.2689 -0.0589  0.0625
 6098TIP3    H139785   4.524   4.518  13.405  0.1122  1.6046 -1.0969
 6098TIP3    H239786   4.655   4.584  13.442  0.7289  0.0452 -0.3851
 6099TIP3   OH239787   4.905   1.271  16.425  0.3829  0.1876  0.0168
 6099TIP3    H139788   4.977   1.236  16.479  1.4665  0.8553 -0.9660
 6099TIP3    H239789   4.851   1.320  16.487  0.0573 -1.3359  1.0044
 6100TIP3   OH239790   4.314   3.720   1.453  0.0288  0.0251 -0.3441
 6100TIP3    H139791   4.299   3.769   1.534  1.0567  2.3336 -1.4891
 6100TIP3    H239792   4.268   3.769   1.386 -1.9940 -2.6136 -1.0640
 6101TIP3   OH239793   3.529   4.258   2.163  1.4538 -0.0246  0.6280
 6101TIP3    H139794   3.508   4.174   2.123  1.1660 -0.1276  0.9881
 6101TIP3    H239795   3.525   4.321   2.091 -1.0777  0.1210  0.8155
 6102TIP3   OH239796   6.487   3.178  14.699 -0.0629  1.0042 -0.4222
 6102TIP3    H139797   6.556   3.161  14.763  2.3555  0.3781 -3.0398
 6102TIP3    H239798   6.406   3.176  14.751  1.6136 -0.8084  2.3884
 6103TIP3   OH239799   0.769   4.486   1.170  0.0934  0.1915  0.7867
 6103TIP3    H139800   0.757   4.468   1.077  1.4116  0.0341  0.6351
 6103TIP3    H239801   0.723   4.414   1.214 -1.5153  0.8767  0.3043
 6104TIP3   OH239802   0.305   4.086   5.084  0.1641 -0.1853 -0.5924
 6104TIP3    H139803   0.261   4.083   4.999 -0.5027 -0.4822 -0.2428
 6104TIP3    H239804   0.355   4.004   5.088  1.9414  0.7859 -1.5962
 6105TIP3   OH239805   3.260   5.706   1.638  0.0307 -0.8334  0.3537
 6105TIP3    H139806   3.208   5.681   1.714 -2.0409  1.1339 -0.3222
 6105TIP3    H239807   3.301   5.789   1.663 -3.2773  1.6612 -1.5608
 6106TIP3   OH239808   3.696   0.145  10.777  0.5224 -0.1119  0.7322
 6106TIP3    H139809   3.748   0.192  10.712 -0.4881 -0.7743 -0.6080
 6106TIP3    H239810   3.687   0.206  10.850  2.4894  0.2942  0.6711
 6107TIP3   OH239811   1.448   0.549  16.138  0.7713 -0.0989  0.1675
 6107TIP3    H139812   1.368   0.587  16.175 -0.0734 -1.6433  0.0077
 6107TIP3    H239813   1.488   0.500  16.210 -0.8866 -3.1224 -0.7989
 6108TIP3   OH239814   3.173   0.861   3.539  0.6302 -0.1924 -0.4021
 6108TIP3    H139815   3.263   0.890   3.530  0.2812  0.9037 -0.4835
 6108TIP3    H239816   3.178   0.785   3.598  1.5572  0.0582 -0.1400
 6109TIP3   OH239817   4.535   4.800  11.430 -0.5709 -0.8163  0.8883
 6109TIP3    H139818   4.597   4.784  11.359 -0.8851  1.2950  0.0548
 6109TIP3    H239819   4.590   4.823  11.505 -0.2953 -0.7684  0.6723
 6110TIP3   OH239820   0.546   4.438   2.512 -0.5204 -0.0446  0.4426
 6110TIP3    H139821   0.488   4.489   2.570  0.1805  1.1051  0.1722
 6110TIP3    H239822   0.608   4.396   2.571 -1.9972 -1.8571  0.8008
 6111TIP3   OH239823   2.325   5.876  11.317  0.4755  0.7474  0.2118
 6111TIP3    H139824   2.360   5.843  11.400 -0.0200  0.0331  0.1447
 6111TIP3    H239825   2.392   5.855  11.252  0.4189  0.3783  0.2686
 6112TIP3   OH239826   6.122   3.663   5.632 -0.4255 -0.2081 -0.2092
 6112TIP3    H139827   6.205   3.623   5.659  1.3136  1.6068 -2.4000
 6112TIP3    H239828   6.101   3.621   5.549 -0.9648  0.3289 -0.3491
 6113TIP3   OH239829   1.574   6.644   2.664 -0.0604 -0.1905  0.3576
 6113TIP3    H139830   1.510   6.689   2.609 -1.8945 -0.3907  2.1989
 6113TIP3    H239831   1.659   6.674   2.632 -1.1237  3.5414  0.5793
 6114TIP3   OH239832   3.357   0.208   4.583  0.2641  0.7901  0.1640
 6114TIP3    H139833   3.335   0.231   4.674  0.6513  1.8521  0.0017
 6114TIP3    H239834   3.272   0.200   4.540 -0.0265 -1.7805  1.0705
 6115TIP3   OH239835   3.582   4.034  14.562 -0.3170 -0.2626 -0.3393
 6115TIP3    H139836   3.655   4.019  14.623 -1.9976 -0.5999  1.7155
 6115TIP3    H239837   3.597   3.972  14.491  2.4437  1.0570 -1.0615
 6116TIP3   OH239838   0.938   3.514   2.051  0.0793 -0.1302 -0.3401
 6116TIP3    H139839   0.891   3.432   2.065  0.8756 -0.6592 -0.7633
 6116TIP3    H239840   0.914   3.540   1.962  2.0500 -1.3893 -1.2936
 6117TIP3   OH239841   2.200   0.490  11.339  0.1731 -0.2557  0.2785
 6117TIP3    H139842   2.120   0.508  11.290 -0.3698 -0.3028  1.1270
 6117TIP3    H239843   2.249   0.572  11.335 -0.9920  0.5627  1.7207
 6118TIP3   OH239844   6.612   5.761  11.705  0.2587 -0.1003 -0.2463
 6118TIP3    H139845   6.516   5.757  11.702  0.2432 -1.7821  1.2351
 6118TIP3    H239846   6.640   5.670  11.698  1.7400  0.3178  0.0168
 6119TIP3   OH239847   2.115   2.118  12.471 -0.5194 -0.1029 -0.0465
 6119TIP3    H139848   2.024   2.129  12.447 -0.1649 -1.0659 -2.0197
 6119TIP3    H239849   2.153   2.205  12.462 -0.7733 -0.1163 -1.5100
 6120TIP3   OH239850   1.965   0.380  11.881 -0.3472  0.5355 -0.0567
 6120TIP3    H139851   2.059   0.397  11.888 -0.3544  1.3727 -1.6075
 6120TIP3    H239852   1.957   0.323  11.805 -0.9391 -1.3661  1.3423
 6121TIP3   OH239853   3.180   4.502  13.196 -0.7972 -1.0445 -0.4405
 6121TIP3    H139854   3.267   4.461  13.199  0.0234  0.6063 -0.1542
 6121TIP3    H239855   3.135   4.458  13.124  1.4148  0.0647 -2.6964
 6122TIP3   OH239856   1.840   6.015   3.934  0.0817 -0.2890  0.3710
 6122TIP3    H139857   1.914   6.066   3.965 -0.1355  0.0943  0.2595
 6122TIP3    H239858   1.763   6.068   3.954 -0.0595  0.0419 -0.9183
 6123TIP3   OH239859   4.633   2.612  14.100 -0.1948  0.5246 -0.1198
 6123TIP3    H139860   4.571   2.540  14.111 -0.1610  0.6347  0.9068
 6123TIP3    H239861   4.718   2.574  14.121  0.1009  0.3687 -1.5434
 6124TIP3   OH239862   1.493   3.205  17.055  0.2763 -0.0790  0.4996
 6124TIP3    H139863   1.404   3.238  17.063 -0.4373 -1.6767 -0.3437
 6124TIP3    H239864   1.540   3.245  17.128 -0.9923  1.1929  0.6571
 6125TIP3   OH239865   1.826   2.039  17.282  0.3684  0.1804 -0.0834
 6125TIP3    H139866   1.827   1.944  17.294  0.8362  0.1572 -0.2901
 6125TIP3    H239867   1.734   2.062  17.280  0.2254 -0.0112  2.0323
 6126TIP3   OH239868   6.754   3.354   0.156 -0.5513  0.4451 -0.4867
 6126TIP3    H139869   6.769   3.395   0.071 -1.3467  1.0880 -0.3293
 6126TIP3    H239870   6.803   3.271   0.151 -0.5903  0.4638 -1.5677
 6127TIP3   OH239871   3.770   1.733  11.556 -0.4810  0.2116  0.0771
 6127TIP3    H139872   3.864   1.741  11.572 -0.1836 -0.6696 -1.1253
 6127TIP3    H239873   3.764   1.689  11.472 -1.9696  1.7234 -0.6558
 6128TIP3   OH239874   0.567   5.042   5.375  0.1207  0.0990 -0.2437
 6128TIP3    H139875   0.550   5.120   5.428 -1.0683 -0.3054  0.0083
 6128TIP3    H239876   0.584   4.973   5.439  2.1025  0.3256 -0.4835
 6129TIP3   OH239877   4.133   1.383   5.275  0.1949  0.1778  0.8008
 6129TIP3    H139878   4.162   1.466   5.238  2.1363 -0.2900  1.1290
 6129TIP3    H239879   4.043   1.373   5.246  0.7055  1.2067 -1.3402
 6130TIP3   OH239880   1.011   5.082  16.386  0.3933 -0.2654  0.5822
 6130TIP3    H139881   1.071   5.085  16.461  1.5721  0.9543 -0.3530
 6130TIP3    H239882   0.980   5.172  16.376  1.2317 -0.1169 -1.1092
 6131TIP3   OH239883   2.679   4.820  16.192  0.2754  0.2668  0.1188
 6131TIP3    H139884   2.760   4.830  16.142  0.7227  1.3902  1.0199
 6131TIP3    H239885   2.681   4.892  16.255 -0.8316 -0.4278  0.9829
 6132TIP3   OH239886   5.479   2.408   5.523  0.1786  0.2329 -0.1544
 6132TIP3    H139887   5.509   2.420   5.433  1.4317  0.1181  0.2325
 6132TIP3    H239888   5.425   2.485   5.541 -1.6092 -0.6053 -1.5777
 6133TIP3   OH239889   2.059   0.817  16.866 -0.2484  0.2896  0.5792
 6133TIP3    H139890   2.061   0.822  16.961 -1.0738 -0.0586  0.6224
 6133TIP3    H239891   1.988   0.876  16.840  0.3647  0.8582  0.1357
 6134TIP3   OH239892   3.400   5.638   0.484  0.0166 -0.0593 -0.2356
 6134TIP3    H139893   3.378   5.580   0.411 -0.2753  0.8058 -0.8423
 6134TIP3    H239894   3.472   5.594   0.529 -0.1974 -0.8889 -0.6855
 6135TIP3   OH239895   5.588   2.443  13.908 -0.3514 -0.5640 -0.2086
 6135TIP3    H139896   5.494   2.437  13.920 -0.2341  0.5485  1.5859
 6135TIP3    H239897   5.614   2.357  13.876 -1.8907 -1.0837 -0.1113
 6136TIP3   OH239898   2.943   3.161   1.231 -0.1109 -0.2044 -0.5546
 6136TIP3    H139899   3.022   3.151   1.179  0.4978  0.9659  0.1147
 6136TIP3    H239900   2.871   3.143   1.170  0.6419 -0.5415 -1.3479
 6137TIP3   OH239901   0.798   1.783   4.391 -0.0789  0.0244 -0.1250
 6137TIP3    H139902   0.818   1.689   4.395  0.2828  0.0886 -0.3233
 6137TIP3    H239903   0.743   1.799   4.467 -2.0672 -0.7905 -1.2962
 6138TIP3   OH239904   0.882   2.564  14.591 -0.7816  0.1397 -0.7649
 6138TIP3    H139905   0.963   2.594  14.631  0.7864 -0.0742 -3.5406
 6138TIP3    H239906   0.820   2.636  14.605  0.1841  0.7696  0.4724
 6139TIP3   OH239907   0.760   1.245   3.940 -0.8450  0.1956  0.0987
 6139TIP3    H139908   0.773   1.260   3.847 -1.7833 -1.6309 -0.3748
 6139TIP3    H239909   0.706   1.318   3.970 -3.1922 -0.7680 -1.5068
 6140TIP3   OH239910   4.816   6.734   4.584 -0.3967  0.0139  0.3666
 6140TIP3    H139911   4.876   6.788   4.533  0.1387 -0.3388  0.6046
 6140TIP3    H239912   4.775   6.676   4.519 -1.2642  0.9576  0.0607
 6141TIP3   OH239913   5.905   2.538  14.790  0.1371 -0.2992  0.7018
 6141TIP3    H139914   5.844   2.465  14.778 -0.0388  0.0053 -0.3382
 6141TIP3    H239915   5.855   2.616  14.767  1.3191 -0.1648 -1.7492
 6142TIP3   OH239916   5.520   2.994   0.430  0.1680 -0.5659  0.3209
 6142TIP3    H139917   5.549   2.969   0.518  0.7185 -2.2010 -0.2854
 6142TIP3    H239918   5.594   3.040   0.392 -0.1482  0.3403  0.7597
 6143TIP3   OH239919   1.861   3.555  13.606 -0.1128 -0.4494  0.6358
 6143TIP3    H139920   1.776   3.575  13.644 -0.6310 -1.7886  0.2640
 6143TIP3    H239921   1.899   3.490  13.665  0.0046 -0.9440  0.0307
 6144TIP3   OH239922   2.199   0.632   3.905  0.2890 -0.3270  0.0802
 6144TIP3    H139923   2.169   0.681   3.982 -1.1188  1.2138 -1.3575
 6144TIP3    H239924   2.288   0.664   3.890  0.0481  0.4428  0.2443
 6145TIP3   OH239925   3.110   4.002   2.969 -0.2458 -0.0710 -0.2632
 6145TIP3    H139926   3.200   3.974   2.984 -0.2475  0.5060  0.9297
 6145TIP3    H239927   3.113   4.098   2.975 -1.0808 -0.0939  0.6329
 6146TIP3   OH239928   5.728   2.285   6.108  0.5307  0.2764  0.2858
 6146TIP3    H139929   5.653   2.315   6.160 -0.1892  2.2023 -1.6720
 6146TIP3    H239930   5.792   2.257   6.172 -0.8815  1.0728  2.1438
 6147TIP3   OH239931   3.687   0.259  16.725  0.1893 -0.6952  0.0213
 6147TIP3    H139932   3.619   0.245  16.660 -1.9029  1.7722  1.5072
 6147TIP3    H239933   3.678   0.186  16.787 -1.4285 -0.1983  0.4097
 6148TIP3   OH239934   4.539   2.214   3.421 -0.2141  0.0543  0.0745
 6148TIP3    H139935   4.478   2.281   3.451 -2.2068 -2.2975  1.7369
 6148TIP3    H239936   4.528   2.212   3.326 -0.2757  1.8967  0.0248
 6149TIP3   OH239937   1.166   5.723   1.422 -0.3201  0.0189 -0.1421
 6149TIP3    H139938   1.088   5.681   1.456  0.7489 -0.1599  2.3273
 6149TIP3    H239939   1.239   5.675   1.463  0.9658  2.8776  1.2278
 6150TIP3   OH239940   4.458   1.774  16.002  0.1507 -0.5106 -0.1013
 6150TIP3    H139941   4.498   1.713  16.064  0.1167 -1.1566 -0.7052
 6150TIP3    H239942   4.526   1.789  15.937 -0.7011 -1.9549 -1.3781
 6151TIP3   OH239943   3.526   1.963  17.039 -0.0689  0.1914 -0.1355
 6151TIP3    H139944   3.494   1.878  17.009 -0.6004 -0.1385  1.2816
 6151TIP3    H239945   3.612   1.944  17.077 -0.8927 -0.0481  1.7030
 6152TIP3   OH239946   2.470   6.110  16.053  0.7452  0.1415  0.0145
 6152TIP3    H139947   2.493   6.132  16.143 -1.7035 -1.7569  1.2206
 6152TIP3    H239948   2.378   6.136  16.044 -0.3184 -3.3048 -0.5156
 6153TIP3   OH239949   5.775   1.773  15.951  0.1694  0.1821 -0.6056
 6153TIP3    H139950   5.715   1.710  15.911  1.0572  0.4044 -2.3751
 6153TIP3    H239951   5.846   1.783  15.887  1.1414  1.3412  0.5998
 6154TIP3   OH239952   2.473   5.623   5.971 -0.8454  1.1224  0.0020
 6154TIP3    H139953   2.425   5.682   5.913  0.7089  1.6473 -0.8103
 6154TIP3    H239954   2.558   5.665   5.984  0.5135 -1.1130 -0.9799
 6155TIP3   OH239955   3.822   0.061   1.951 -0.4770  0.1644 -0.9154
 6155TIP3    H139956   3.754  -0.006   1.946 -0.4206  0.1332 -1.3481
 6155TIP3    H239957   3.804   0.109   2.031 -0.4231 -0.4754 -0.5157
 6156TIP3   OH239958   0.081   1.791   5.715 -0.1527 -0.1731 -0.1865
 6156TIP3    H139959   0.059   1.876   5.753 -0.0388  0.5712 -1.7269
 6156TIP3    H239960  -0.004   1.752   5.692 -0.3554 -1.4155  2.3464
 6157TIP3   OH239961   3.616   2.248  14.334  0.4717  0.5077  0.4130
 6157TIP3    H139962   3.582   2.235  14.422  0.2146  1.6228  0.4962
 6157TIP3    H239963   3.656   2.335  14.336  0.7179  0.4277 -0.4891
 6158TIP3   OH239964   6.672   5.777  14.235  0.4039 -0.2231  0.3871
 6158TIP3    H139965   6.712   5.826  14.163 -0.5878  1.1080  0.7092
 6158TIP3    H239966   6.743   5.761  14.296  1.1148 -0.7664 -0.5437
 6159TIP3   OH239967   3.274   4.986   2.371  0.2377  0.1600 -0.3044
 6159TIP3    H139968   3.255   5.079   2.387  0.2724  0.2128 -0.5586
 6159TIP3    H239969   3.358   4.972   2.414 -1.8828 -0.9788  4.0298
 6160TIP3   OH239970   5.366   1.736  16.844 -0.7058  0.5443  0.6178
 6160TIP3    H139971   5.278   1.731  16.882 -1.0014 -0.6784 -0.1471
 6160TIP3    H239972   5.414   1.664  16.884 -0.5125  0.2879 -0.0521
 6161TIP3   OH239973   4.990   5.235   2.197  0.4245  0.1965 -0.2071
 6161TIP3    H139974   5.015   5.249   2.289  1.1668  0.8847 -0.4993
 6161TIP3    H239975   4.977   5.324   2.163  1.7159  0.0504 -1.1783
 6162TIP3   OH239976   5.130   2.058  15.047 -0.1687 -0.2181  0.1051
 6162TIP3    H139977   5.157   2.121  15.115 -1.1944  1.9900 -1.4032
 6162TIP3    H239978   5.036   2.047  15.061 -0.5783  0.9588 -1.3985
 6163TIP3   OH239979   3.231   1.183   3.554  0.5106 -0.0343  0.3156
 6163TIP3    H139980   3.156   1.144   3.509  2.1740 -0.9046 -1.8584
 6163TIP3    H239981   3.266   1.246   3.491  3.0180 -1.4011  0.2062
 6164TIP3   OH239982   3.987   5.916  14.161  0.0677  0.0601 -0.2204
 6164TIP3    H139983   4.022   5.855  14.097  1.1163 -1.5256  1.7561
 6164TIP3    H239984   4.022   5.886  14.245 -0.1619  2.8079  0.9817
 6165TIP3   OH239985   4.116   6.365   3.550  0.0515  0.0787  0.8313
 6165TIP3    H139986   4.148   6.390   3.464  1.1087  2.6227  1.8463
 6165TIP3    H239987   4.191   6.327   3.594  0.4254  1.5883  1.5840
 6166TIP3   OH239988   1.922   6.304   2.210  1.0350  0.0324 -0.5255
 6166TIP3    H139989   1.849   6.356   2.241  1.3076 -0.3895  0.8845
 6166TIP3    H239990   1.883   6.221   2.184  0.9757 -0.1229  0.0436
 6167TIP3   OH239991   3.777   3.231  13.893  0.1618  0.2087 -0.0146
 6167TIP3    H139992   3.844   3.290  13.927  0.8418 -0.8899  0.6285
 6167TIP3    H239993   3.697   3.284  13.890  1.1817  1.7788 -1.5167
 6168TIP3   OH239994   3.836   2.667  14.982 -0.1441 -0.0678  0.7883
 6168TIP3    H139995   3.854   2.718  15.061 -1.8285  0.3733  0.9159
 6168TIP3    H239996   3.793   2.587  15.014 -3.6273  1.3991  0.2566
 6169TIP3   OH239997   3.331   0.052   3.331 -0.1934 -0.5346  0.1703
 6169TIP3    H139998   3.370   0.120   3.386  0.4887  0.7793 -1.8614
 6169TIP3    H239999   3.381  -0.027   3.351  0.1649 -0.0499  1.2661
 6170TIP3   OH240000   6.725   4.258  11.223 -1.0707  0.3921  0.0793
 6170TIP3    H140001   6.763   4.236  11.138 -0.4970 -1.3330  0.7424
 6170TIP3    H240002   6.704   4.351  11.217 -0.2653  0.4872 -1.6499
 6171TIP3   OH240003   2.412   4.620   6.050  0.3159 -0.0895 -0.6861
 6171TIP3    H140004   2.354   4.579   5.986 -0.9153  1.1697 -0.4290
 6171TIP3    H240005   2.469   4.677   5.998 -0.3364  0.5367 -0.7328
 6172TIP3   OH240006   5.775   5.516  13.496  0.1772  0.0996 -0.3632
 6172TIP3    H140007   5.861   5.538  13.532  0.7038 -0.9309 -0.9151
 6172TIP3    H240008   5.795   5.461  13.420 -0.9260  1.3581 -1.6177
 6173TIP3   OH240009   4.365   3.114  15.453  0.7645 -0.2447  0.0534
 6173TIP3    H140010   4.402   3.098  15.366  3.3565 -1.2930  1.2293
 6173TIP3    H240011   4.323   3.199  15.446 -0.7250 -1.0720 -2.6746
 6174TIP3   OH240012   5.920   6.385   1.114 -0.7930  0.1996  0.0234
 6174TIP3    H140013   5.988   6.407   1.051 -1.2094  0.0667 -0.4859
 6174TIP3    H240014   5.960   6.319   1.170  0.0886  1.4208  0.8708
 6175TIP3   OH240015   5.571   4.381  13.761 -0.0590  0.3304 -0.7662
 6175TIP3    H140016   5.600   4.298  13.801 -0.9681  0.5477  0.3814
 6175TIP3    H240017   5.536   4.355  13.676 -2.1974 -0.8042  0.3648
 6176TIP3   OH240018   5.147   5.522   6.394  0.5474  0.2251 -0.0483
 6176TIP3    H140019   5.227   5.551   6.350 -0.8141  1.5016 -1.8340
 6176TIP3    H240020   5.082   5.516   6.325 -0.7389 -1.6653  1.2012
 6177TIP3   OH240021   2.954   1.362  16.592  0.0973 -0.2030 -0.1543
 6177TIP3    H140022   2.896   1.343  16.518  2.0627 -0.3611 -1.7689
 6177TIP3    H240023   2.942   1.456  16.607 -1.3492 -0.4332  0.2945
 6178TIP3   OH240024   2.702   4.724  13.855 -0.2527  0.1062  0.1557
 6178TIP3    H140025   2.675   4.806  13.897  0.1879 -0.1993  1.0613
 6178TIP3    H240026   2.622   4.691  13.814 -1.2381 -0.5548  2.4295
 6179TIP3   OH240027   6.798   3.055  14.224 -0.6636  0.0342 -0.5156
 6179TIP3    H140028   6.714   3.011  14.237 -1.6018  1.6947 -0.7393
 6179TIP3    H240029   6.775   3.145  14.201  1.1860  0.5961 -0.3177
 6180TIP3   OH240030   0.203   2.273   1.730  0.8763 -0.4192  0.0409
 6180TIP3    H140031   0.292   2.286   1.701 -0.1503  1.7433 -2.4618
 6180TIP3    H240032   0.171   2.199   1.679  0.6355  0.1142 -0.5918
 6181TIP3   OH240033   4.115   0.208   0.974  0.1121  0.3974 -0.0141
 6181TIP3    H140034   4.133   0.142   0.908 -0.0497  2.5678 -2.3978
 6181TIP3    H240035   4.039   0.176   1.021 -0.8395 -0.4669 -2.0376
 6182TIP3   OH240036   2.910   3.221  11.836  0.1267  0.2207 -0.5785
 6182TIP3    H140037   2.973   3.215  11.908  0.5819 -0.3382 -1.0117
 6182TIP3    H240038   2.836   3.166  11.864 -1.3365  2.7904  1.0381
 6183TIP3   OH240039   5.730   3.662   4.328 -0.2532 -0.4190  0.1001
 6183TIP3    H140040   5.652   3.697   4.285 -0.1558  0.9976  1.0008
 6183TIP3    H240041   5.747   3.579   4.283 -1.4979 -0.1219 -0.9949
 6184TIP3   OH240042   0.196   4.871  11.690 -0.6339 -0.2114 -0.2431
 6184TIP3    H140043   0.192   4.843  11.782  0.8932  1.2754  0.3260
 6184TIP3    H240044   0.265   4.817  11.652 -1.2920 -0.8534 -0.5689
 6185TIP3   OH240045   0.344   3.901  16.166 -0.6171  0.1419 -0.0018
 6185TIP3    H140046   0.356   3.823  16.111  0.5193  0.4371 -0.2024
 6185TIP3    H240047   0.251   3.901  16.187 -0.3803 -2.1402  1.3200
 6186TIP3   OH240048   1.985   5.146  13.080 -0.3502  0.4558  0.1420
 6186TIP3    H140049   1.921   5.077  13.067 -0.0700  0.0441  0.9010
 6186TIP3    H240050   1.941   5.210  13.136 -0.2963  0.4538  0.1865
 6187TIP3   OH240051   1.457   6.089  11.446 -0.3662 -0.1432  0.3211
 6187TIP3    H140052   1.489   6.166  11.493 -0.3976 -0.0093  0.1215
 6187TIP3    H240053   1.367   6.110  11.423 -0.0602  0.1852 -0.6406
 6188TIP3   OH240054   0.292   6.259  14.924  0.0513  0.2691 -0.3769
 6188TIP3    H140055   0.328   6.308  14.998  1.7651 -1.1295 -0.2218
 6188TIP3    H240056   0.240   6.190  14.964  2.0057 -1.2742 -0.3486
 6189TIP3   OH240057   3.389   2.064  14.830  0.0215 -0.2103 -0.0617
 6189TIP3    H140058   3.440   2.109  14.763  0.6740 -0.6828  0.1184
 6189TIP3    H240059   3.325   2.130  14.858 -0.0099  0.1188 -0.8617
 6190TIP3   OH240060   4.287   0.068  14.969 -0.5930 -0.7411  0.7471
 6190TIP3    H140061   4.198   0.067  14.935 -0.1793  3.2492 -1.0191
 6190TIP3    H240062   4.281   0.023  15.053 -3.8199 -2.1836 -0.0845
 6191TIP3   OH240063   1.717   2.200   5.309 -0.2428  0.3507  0.2956
 6191TIP3    H140064   1.677   2.120   5.343  0.1628  1.2253  3.0641
 6191TIP3    H240065   1.743   2.249   5.387  2.2742  1.8273 -1.3232
 6192TIP3   OH240066   5.741   1.413   1.808 -0.1318 -0.4086 -0.2562
 6192TIP3    H140067   5.755   1.481   1.743  0.4854 -1.4497 -1.2499
 6192TIP3    H240068   5.651   1.383   1.794 -0.4395  0.2642  0.2543
 6193TIP3   OH240069   0.154   3.057   0.756  0.2766 -0.0104 -0.2729
 6193TIP3    H140070   0.118   3.127   0.810  1.0239 -0.8905  1.4441
 6193TIP3    H240071   0.163   3.096   0.669 -1.3440  1.3376  0.1087
 6194TIP3   OH240072   3.783   1.919  13.881  0.4124 -0.3984  0.9916
 6194TIP3    H140073   3.711   1.919  13.819 -0.4974 -1.4665  2.0097
 6194TIP3    H240074   3.818   1.830  13.877  1.6528  0.0746  0.5758
 6195TIP3   OH240075   5.115   5.339  12.565  0.5983  0.1440 -0.3043
 6195TIP3    H140076   5.192   5.353  12.509  0.4163  0.7105 -0.4189
 6195TIP3    H240077   5.047   5.393  12.526 -0.5473 -2.0230 -1.5319
 6196TIP3   OH240078   5.932   2.961  13.700 -0.1725  0.1428 -0.3852
 6196TIP3    H140079   5.887   3.001  13.774 -0.8419  1.7015 -1.5862
 6196TIP3    H240080   6.020   2.999  13.702 -0.6476  1.3321 -1.2206
 6197TIP3   OH240081   3.342   4.670   1.262 -0.6001  0.1193 -0.7768
 6197TIP3    H140082   3.337   4.676   1.358 -0.1528  0.7399 -0.7817
 6197TIP3    H240083   3.252   4.654   1.234 -0.9344  1.1389 -0.3202
 6198TIP3   OH240084   5.049   2.845   5.806  0.1949 -0.2811 -0.2216
 6198TIP3    H140085   5.021   2.757   5.783  0.2754 -0.6364  1.0167
 6198TIP3    H240086   5.089   2.837   5.892  0.1685  0.9684 -0.0680
 6199TIP3   OH240087   6.003   3.450   4.203 -0.3280 -0.4054 -0.3770
 6199TIP3    H140088   6.016   3.517   4.269 -1.9845 -1.9759  1.7082
 6199TIP3    H240089   6.089   3.409   4.193 -0.2684 -1.0177  1.9280
 6200TIP3   OH240090   3.336   5.640  14.086 -0.2638 -0.0437 -0.0075
 6200TIP3    H140091   3.386   5.675  14.159 -0.3086  2.0793 -0.9328
 6200TIP3    H240092   3.360   5.695  14.011 -2.1617 -0.4758 -1.0124
 6201TIP3   OH240093   1.873   5.066  14.058  0.1979  0.0994 -0.1650
 6201TIP3    H140094   1.889   5.075  13.964  2.2767 -0.5265  0.0738
 6201TIP3    H240095   1.779   5.050  14.065 -0.5723  2.9985 -1.8848
 6202TIP3   OH240096   0.948   1.966   6.127  0.1901 -0.2648 -0.0127
 6202TIP3    H140097   0.961   1.881   6.085  1.9521  1.1601 -2.6397
 6202TIP3    H240098   0.893   2.015   6.066  1.5129  1.3636  0.0263
 6203TIP3   OH240099   6.508   4.275  15.481  0.1894 -0.0437 -0.5087
 6203TIP3    H140100   6.543   4.186  15.472  0.3338  0.0539 -0.9071
 6203TIP3    H240101   6.463   4.274  15.566  0.9317 -0.2492 -0.1085
 6204TIP3   OH240102   6.781   5.940   1.782 -0.5666  0.7922  0.0868
 6204TIP3    H140103   6.864   5.900   1.809  0.1287  2.3062  0.3050
 6204TIP3    H240104   6.746   5.880   1.717 -0.2413 -0.8328  1.3458
 6205TIP3   OH240105   3.230   1.987  11.737 -0.6756 -0.6070 -0.5498
 6205TIP3    H140106   3.278   2.012  11.658 -0.4777 -1.4725 -0.7179
 6205TIP3    H240107   3.152   2.042  11.736 -0.2362  0.0171 -0.8753
 6206TIP3   OH240108   3.378   2.730  14.325  0.3506 -0.1992  0.1362
 6206TIP3    H140109   3.327   2.650  14.323  0.8483 -0.5174 -0.2786
 6206TIP3    H240110   3.379   2.756  14.417 -0.2406 -0.3852  0.1994
 6207TIP3   OH240111   0.705   6.165   3.575  0.0965  0.0634 -0.0058
 6207TIP3    H140112   0.746   6.218   3.507 -2.2638  1.2600 -0.6151
 6207TIP3    H240113   0.677   6.086   3.530 -0.5220  0.3908 -0.2120
 6208TIP3   OH240114   1.892   1.452  15.379 -0.2520  0.1137  0.1958
 6208TIP3    H140115   1.977   1.490  15.398  0.1674 -0.3738 -0.6123
 6208TIP3    H240116   1.844   1.455  15.462 -0.1558  2.1445  0.2204
 6209TIP3   OH240117   5.563   4.361   5.382 -0.2075 -0.2853  0.2517
 6209TIP3    H140118   5.475   4.323   5.393 -0.1726 -1.0618 -1.6946
 6209TIP3    H240119   5.594   4.376   5.471 -1.7151 -1.4282  1.0236
 6210TIP3   OH240120   5.549   2.765  13.003 -0.3646  0.2994  0.7581
 6210TIP3    H140121   5.530   2.834  12.940  1.3079  1.5985  1.6063
 6210TIP3    H240122   5.595   2.698  12.952 -2.6907 -0.6581 -0.2406
 6211TIP3   OH240123   4.160   1.623  17.032  0.6391 -0.0199 -0.1471
 6211TIP3    H140124   4.090   1.561  17.010  1.4000 -0.5066 -1.2444
 6211TIP3    H240125   4.141   1.701  16.980  1.4108 -0.4902 -1.1491
 6212TIP3   OH240126   3.031   1.802   5.031  0.1724  0.3778  0.1860
 6212TIP3    H140127   2.986   1.752   5.099  0.7076  1.7063  1.5754
 6212TIP3    H240128   3.009   1.893   5.050  1.4506  0.8730 -0.5885
 6213TIP3   OH240129   5.660   3.722  13.573  0.4180  0.0795  0.0881
 6213TIP3    H140130   5.697   3.810  13.573  0.5963  0.0062 -0.0816
 6213TIP3    H240131   5.717   3.671  13.630 -0.2468  0.3003  0.9705
 6214TIP3   OH240132   5.447   5.879  13.391 -0.1443  0.4756  0.4028
 6214TIP3    H140133   5.531   5.853  13.428  0.2045  1.6022  0.4658
 6214TIP3    H240134   5.400   5.918  13.465 -0.8298 -0.3695  0.4255
 6215TIP3   OH240135   4.509   1.983   3.557  0.2533 -0.6157  0.1390
 6215TIP3    H140136   4.450   1.941   3.495 -0.9769 -1.7934  2.0101
 6215TIP3    H240137   4.534   2.065   3.514 -1.7734 -0.6398 -1.2448
 6216TIP3   OH240138   4.213   5.325  13.685 -0.1060  0.1616  0.0322
 6216TIP3    H140139   4.285   5.303  13.626 -0.3336  0.6812 -0.4558
 6216TIP3    H240140   4.176   5.241  13.712  2.5660 -0.3243  2.7388
 6217TIP3   OH240141   5.336   4.816  16.191 -0.1167  0.1401 -0.1455
 6217TIP3    H140142   5.391   4.752  16.146  0.1573  0.6147 -0.4999
 6217TIP3    H240143   5.248   4.802  16.156 -0.6070 -1.7549  1.6394
 6218TIP3   OH240144   6.792   4.627   1.747  0.2325  0.3106  0.1129
 6218TIP3    H140145   6.734   4.629   1.671  1.7376  1.3675 -1.0414
 6218TIP3    H240146   6.856   4.696   1.731  0.2569  0.9623  2.6276
 6219TIP3   OH240147   3.306   5.619   1.382  0.0016 -0.4034 -0.3662
 6219TIP3    H140148   3.223   5.600   1.339  0.7551 -2.6489 -0.9905
 6219TIP3    H240149   3.282   5.640   1.472 -1.2480 -1.0264 -0.5311
 6220TIP3   OH240150   1.975   2.821   2.277  0.1714 -0.1838  0.6583
 6220TIP3    H140151   1.900   2.773   2.241  0.8835 -1.6473  1.0678
 6220TIP3    H240152   1.941   2.861   2.357 -0.0616 -1.2667  1.1200
 6221TIP3   OH240153   1.396   4.781  12.071 -0.1055  0.0099  0.0458
 6221TIP3    H140154   1.473   4.766  12.016  0.8630 -0.3087  1.4487
 6221TIP3    H240155   1.366   4.693  12.095  0.2321  0.1490  1.0232
 6222TIP3   OH240156   6.160   1.328  16.667 -0.2480 -0.2519 -0.1379
 6222TIP3    H140157   6.230   1.392  16.678 -1.6268  1.9218 -2.7144
 6222TIP3    H240158   6.161   1.307  16.573 -1.2793 -2.3581  0.2556
 6223TIP3   OH240159   5.228   2.882  13.696 -0.2297  0.1333  0.4773
 6223TIP3    H140160   5.202   2.791  13.710  1.6632 -0.2285  2.2132
 6223TIP3    H240161   5.322   2.877  13.675 -0.2033  1.6583  0.0776
 6224TIP3   OH240162   4.530   2.939   3.005 -0.1788 -0.3009 -0.0981
 6224TIP3    H140163   4.531   2.979   3.092  0.6689 -2.4597  0.9535
 6224TIP3    H240164   4.614   2.965   2.965 -0.9167  1.3686 -0.6618
 6225TIP3   OH240165   0.419   0.841   0.548 -0.0878  1.2683 -0.3660
 6225TIP3    H140166   0.493   0.800   0.592 -1.4633  0.7763  1.6031
 6225TIP3    H240167   0.458   0.914   0.500  1.6872  0.9247  0.4672
 6226TIP3   OH240168   1.809   0.466  15.334  0.2807  0.4014  0.2529
 6226TIP3    H140169   1.860   0.388  15.309  0.3751  0.3909  0.4796
 6226TIP3    H240170   1.812   0.521  15.255 -1.1296 -0.5057 -0.4706
 6227TIP3   OH240171   6.262   2.089   3.914 -0.4551 -0.1001  0.1960
 6227TIP3    H140172   6.309   2.132   3.985 -0.8455  1.2224 -0.3198
 6227TIP3    H240173   6.211   2.020   3.957 -0.3896  0.4358  1.1542
 6228TIP3   OH240174   4.596   0.744  16.732 -0.0097 -0.5383  0.2417
 6228TIP3    H140175   4.684   0.765  16.763  0.5624 -1.2471 -0.8095
 6228TIP3    H240176   4.611   0.696  16.650 -1.3797 -0.6432  0.0314
 6229TIP3   OH240177   4.890   1.434   5.401 -0.1283 -0.8693 -0.0657
 6229TIP3    H140178   4.893   1.495   5.327 -0.5391  0.7373  1.1867
 6229TIP3    H240179   4.868   1.350   5.361 -0.9666  0.0674 -1.7201
 6230TIP3   OH240180   1.430   3.456  15.703 -0.8832 -0.0032  0.1686
 6230TIP3    H140181   1.492   3.423  15.637 -2.8868 -0.1916 -1.7135
 6230TIP3    H240182   1.456   3.547  15.717  1.2728 -0.7134  1.2788
 6231TIP3   OH240183   2.795   0.559  14.965 -0.3246 -0.4213  0.0909
 6231TIP3    H140184   2.827   0.568  14.876 -0.8007 -0.0326 -0.0432
 6231TIP3    H240185   2.872   0.533  15.016 -0.0951 -0.8206 -0.4619
 6232TIP3   OH240186   3.552   2.199  13.088 -0.3277  0.1175  0.3145
 6232TIP3    H140187   3.588   2.242  13.010  0.6153 -0.9596  0.1281
 6232TIP3    H240188   3.461   2.227  13.091 -0.0258  1.2454 -0.4093
 6233TIP3   OH240189   3.260   3.099   2.789 -0.3918 -0.0494  0.0621
 6233TIP3    H140190   3.171   3.088   2.823 -1.0182  1.1447 -1.0628
 6233TIP3    H240191   3.301   3.162   2.848 -0.6105  0.0772  0.0816
 6234TIP3   OH240192   5.054   4.475  11.812  0.0447  0.1266 -0.0461
 6234TIP3    H140193   5.146   4.453  11.796 -0.3403 -1.5417 -0.1242
 6234TIP3    H240194   5.025   4.516  11.731  0.6294  0.3747 -0.1383
 6235TIP3   OH240195   0.977   5.483  11.687 -0.1948  0.4399  0.3000
 6235TIP3    H140196   1.060   5.522  11.715  0.3091 -0.3636 -0.0562
 6235TIP3    H240197   0.970   5.402  11.737 -1.1822  0.8930  0.9472
 6236TIP3   OH240198   1.913   6.321   4.438  0.4205 -0.2887  0.3197
 6236TIP3    H140199   1.905   6.246   4.498  0.6743 -0.0626  0.6437
 6236TIP3    H240200   1.887   6.287   4.353 -1.0639 -0.3354  0.7595
 6237TIP3   OH240201   4.840   3.940  13.844 -0.6285 -0.3316  0.0772
 6237TIP3    H140202   4.814   3.927  13.935  1.2530 -2.3986  0.3743
 6237TIP3    H240203   4.900   3.868  13.825  1.6378  1.8657 -1.7832
 6238TIP3   OH240204   4.280   5.798  11.761  0.5167 -0.6775  0.4121
 6238TIP3    H140205   4.195   5.757  11.778 -0.7947  1.4724 -0.5700
 6238TIP3    H240206   4.316   5.815  11.848  0.0121 -1.7033  0.8445
 6239TIP3   OH240207   2.288   5.968   2.462 -0.5466 -0.1508  0.2145
 6239TIP3    H140208   2.199   5.983   2.428 -0.7715  0.4103  1.0125
 6239TIP3    H240209   2.312   5.882   2.429 -0.8860  0.2163 -1.0622
 6240TIP3   OH240210   0.126   0.802  16.604 -0.4373 -0.1115  0.4412
 6240TIP3    H140211   0.169   0.780  16.521  0.9691  3.3391  0.0743
 6240TIP3    H240212   0.069   0.875  16.583  1.0794  1.8938  2.6513
 6241TIP3   OH240213   5.375   1.946  12.258  0.7139 -0.7931 -0.2794
 6241TIP3    H140214   5.320   2.006  12.208 -1.4676 -1.9591  0.5890
 6241TIP3    H240215   5.333   1.861  12.248  2.5982 -1.8220  0.1480
 6242TIP3   OH240216   3.561   1.447   1.013  0.4120 -0.0223  0.3793
 6242TIP3    H140217   3.648   1.487   1.010 -0.1100  1.0899 -0.8550
 6242TIP3    H240218   3.564   1.378   0.947 -0.1721  1.1936 -0.9505
 6243TIP3   OH240219   1.734   1.413  14.517  0.1111 -0.3509  0.3227
 6243TIP3    H140220   1.661   1.476  14.516 -1.1492 -1.7419  1.0312
 6243TIP3    H240221   1.811   1.467  14.500 -0.6121  1.7504  2.9602
 6244TIP3   OH240222   2.694   3.061   4.403  0.3400 -0.8290  0.0259
 6244TIP3    H140223   2.647   3.043   4.484  1.0487 -2.3195  0.1367
 6244TIP3    H240224   2.640   3.126   4.358 -0.3647 -0.4225  1.4032
 6245TIP3   OH240225   0.187   6.750  16.987 -0.3126 -0.1498  0.2761
 6245TIP3    H140226   0.101   6.711  16.999 -0.2233 -0.2600  0.5775
 6245TIP3    H240227   0.169   6.844  16.978 -0.3723 -0.0072  1.6671
 6246TIP3   OH240228   2.242   6.114   5.331 -0.0262 -0.0980 -0.0838
 6246TIP3    H140229   2.171   6.051   5.319 -1.2118  1.0904  0.3257
 6246TIP3    H240230   2.315   6.078   5.282 -1.7288 -0.0673 -2.8549
 6247TIP3   OH240231   0.792   4.577   1.864  0.3192  0.5701  0.5793
 6247TIP3    H140232   0.851   4.633   1.914  1.2909 -0.2338  0.3760
 6247TIP3    H240233   0.773   4.504   1.923  0.2450  0.3804  0.3223
 6248TIP3   OH240234   1.073   0.440   1.264  0.3690 -0.2782 -0.2724
 6248TIP3    H140235   1.018   0.370   1.299 -1.2160  1.0464  0.0192
 6248TIP3    H240236   1.051   0.443   1.171 -1.4450  1.3731  0.1460
 6249TIP3   OH240237   1.046   4.104  17.266  0.6885 -0.5980 -0.2399
 6249TIP3    H140238   1.019   4.022  17.308  2.0840 -0.6937  0.5275
 6249TIP3    H240239   1.088   4.154  17.336 -0.7991  1.1173 -0.5257
 6250TIP3   OH240240   6.044   0.322   3.259 -0.0979  0.0160  0.4482
 6250TIP3    H140241   6.042   0.234   3.296 -0.3437 -0.3549 -0.4154
 6250TIP3    H240242   5.953   0.339   3.232 -0.1824  0.7918  1.1830
 6251TIP3   OH240243   3.032   6.354   2.564 -0.5181  0.5295  0.1538
 6251TIP3    H140244   3.073   6.375   2.480 -0.5533  0.5093  0.1319
 6251TIP3    H240245   3.102   6.368   2.628 -0.4477  0.3960  0.1061
 6252TIP3   OH240246   6.253   0.175   4.824  0.0219 -0.0794 -0.0332
 6252TIP3    H140247   6.248   0.126   4.906  0.5920 -0.6599 -0.3254
 6252TIP3    H240248   6.212   0.117   4.759  0.5622 -0.1109 -0.3545
 6253TIP3   OH240249   5.779   6.794   3.382 -0.1016 -0.3690  0.3693
 6253TIP3    H140250   5.758   6.744   3.303  0.6451 -0.7060  0.3762
 6253TIP3    H240251   5.720   6.760   3.449  0.3213 -1.1632  0.3431
 6254TIP3   OH240252   0.866   2.751   0.804  0.0453  0.3351 -0.1529
 6254TIP3    H140253   0.781   2.784   0.775 -0.1482  3.2717  3.0957
 6254TIP3    H240254   0.847   2.666   0.843 -0.8201 -0.3781 -2.0211
 6255TIP3   OH240255   0.099   2.070  10.925  0.3056 -0.1112 -0.5253
 6255TIP3    H140256   0.017   2.090  10.881  0.2400  1.4404  0.2448
 6255TIP3    H240257   0.120   1.981  10.897 -0.3840  0.3337 -2.6450
 6256TIP3   OH240258   6.274   3.543  12.824  0.9399 -0.2451 -0.1545
 6256TIP3    H140259   6.368   3.539  12.811  0.9022 -1.0186 -0.2493
 6256TIP3    H240260   6.256   3.635  12.845  1.8057 -0.2269  0.5808
 6257TIP3   OH240261   2.294   0.537   1.878  0.0989  0.4627 -0.0336
 6257TIP3    H140262   2.278   0.563   1.968  0.5501 -1.8200  0.7693
 6257TIP3    H240263   2.214   0.492   1.851  0.3344  0.2804 -0.4440
 6258TIP3   OH240264   5.260   5.309  15.458 -0.4092  0.3005  0.4561
 6258TIP3    H140265   5.292   5.221  15.440 -1.4022  0.2989 -1.5326
 6258TIP3    H240266   5.285   5.360  15.381 -0.2723  1.6591  1.3684
 6259TIP3   OH240267   1.946   6.267  13.301 -0.1001  0.9586 -0.1488
 6259TIP3    H140268   1.878   6.312  13.352 -0.7410 -0.9578  0.8238
 6259TIP3    H240269   1.917   6.275  13.210 -1.2884  0.7673  0.1896
 6260TIP3   OH240270   5.117   5.749  16.663  0.5515  0.0944 -0.6129
 6260TIP3    H140271   5.131   5.669  16.611  0.1260  0.8896 -1.9840
 6260TIP3    H240272   5.199   5.797  16.654  1.0375 -0.4228  0.7131
 6261TIP3   OH240273   3.242   6.424   3.409 -0.3511  0.0180  0.0848
 6261TIP3    H140274   3.162   6.391   3.366  0.5699 -0.4571 -1.3425
 6261TIP3    H240275   3.288   6.345   3.437  1.0104  0.0835 -1.7602
 6262TIP3   OH240276   0.821   2.915  12.831  0.1339  0.6027 -0.2057
 6262TIP3    H140277   0.831   2.892  12.739  1.0149 -0.6967  0.1798
 6262TIP3    H240278   0.899   2.878  12.873  0.0733  1.7286  0.9680
 6263TIP3   OH240279   1.652   3.952   1.114 -0.0167 -0.3521 -0.4410
 6263TIP3    H140280   1.633   3.864   1.082  0.3919  0.1232 -2.0657
 6263TIP3    H240281   1.743   3.968   1.088 -0.2040  0.6905 -0.4897
 6264TIP3   OH240282   1.155   1.162   3.414 -0.2906 -0.2127 -0.2067
 6264TIP3    H140283   1.170   1.223   3.486  1.0783 -0.9398  0.1673
 6264TIP3    H240284   1.242   1.132   3.389 -0.8896 -1.6582 -0.6787
 6265TIP3   OH240285   3.118   2.684  16.096 -0.0371  0.3096 -0.0390
 6265TIP3    H140286   3.117   2.602  16.145  0.2347  0.9366  1.0479
 6265TIP3    H240287   3.140   2.750  16.161 -2.8674  1.6249 -0.2705
 6266TIP3   OH240288   4.255   1.748  15.749 -0.1489  0.1568 -0.5325
 6266TIP3    H140289   4.159   1.750  15.748 -0.1768  1.4687  0.7583
 6266TIP3    H240290   4.277   1.708  15.834  0.4506 -0.3687 -0.9282
 6267TIP3   OH240291   6.310   5.134   2.347 -0.3148 -0.0484 -0.2945
 6267TIP3    H140292   6.234   5.089   2.310  0.5352 -1.1721 -0.7523
 6267TIP3    H240293   6.384   5.103   2.294  0.4528  1.0667  0.1010
 6268TIP3   OH240294   6.507   3.701   1.045  0.1867 -0.0728 -0.6830
 6268TIP3    H140295   6.544   3.698   0.956 -2.0267  1.5075 -1.7373
 6268TIP3    H240296   6.527   3.789   1.076  0.1904 -0.3282  0.0682
 6269TIP3   OH240297   2.334   4.045  13.344 -0.1868  0.2294 -0.3553
 6269TIP3    H140298   2.327   3.956  13.311  0.0720  0.0173  0.1414
 6269TIP3    H240299   2.415   4.045  13.396 -1.8893 -0.2238  2.5395
 6270TIP3   OH240300   4.724   5.673  11.182  0.0404 -0.0883  0.6220
 6270TIP3    H140301   4.773   5.751  11.206  1.0571 -0.3908 -0.4115
 6270TIP3    H240302   4.636   5.689  11.216  0.3676  1.2769  0.8767
 6271TIP3   OH240303   2.604   2.568  13.504  0.1841 -0.7429 -0.0153
 6271TIP3    H140304   2.558   2.487  13.485  0.5705 -0.6797 -1.3060
 6271TIP3    H240305   2.673   2.543  13.565 -1.7880 -0.7542  2.3787
 6272TIP3   OH240306   1.703   0.279   1.208 -0.1154 -0.2612 -0.2947
 6272TIP3    H140307   1.779   0.260   1.153 -0.8721 -0.4758 -1.3016
 6272TIP3    H240308   1.726   0.244   1.294  0.5482 -1.1557 -0.8209
 6273TIP3   OH240309   4.716   4.017   3.463 -0.0608  0.0071 -0.4366
 6273TIP3    H140310   4.802   4.057   3.451  0.9342 -1.2764  1.9111
 6273TIP3    H240311   4.730   3.923   3.451 -0.9442 -0.3060  0.7872
 6274TIP3   OH240312   0.965   4.544  10.842 -0.2891  0.0024  0.3298
 6274TIP3    H140313   0.985   4.555  10.935 -0.1763  1.6468  0.1379
 6274TIP3    H240314   0.982   4.630  10.803 -1.6084 -0.2861 -0.9812
 6275TIP3   OH240315   6.574   4.893   4.944 -0.1655  0.2980 -0.2907
 6275TIP3    H140316   6.502   4.887   4.881  0.8376 -2.3220 -1.3607
 6275TIP3    H240317   6.547   4.961   5.005 -2.5521  0.9017 -1.8613
 6276TIP3   OH240318   2.523   1.437   1.084  0.1109  0.1199 -0.5348
 6276TIP3    H140319   2.558   1.372   1.145  0.8880  0.9054 -0.1204
 6276TIP3    H240320   2.550   1.521   1.121 -0.1811  0.6420 -1.4911
 6277TIP3   OH240321   6.647   0.666  17.127  0.1829  0.0616 -0.4483
 6277TIP3    H140322   6.649   0.756  17.095  0.9272 -0.1561 -1.0341
 6277TIP3    H240323   6.733   0.652  17.165 -0.7240  0.3771  1.8956
 6278TIP3   OH240324   3.145   3.278   5.423 -0.3013  0.4150 -0.2162
 6278TIP3    H140325   3.090   3.229   5.363 -1.4594  1.3990 -0.0016
 6278TIP3    H240326   3.102   3.269   5.508 -0.6091  1.8349 -0.1855
 6279TIP3   OH240327   2.164   3.262  16.691  0.3463 -0.0792  0.0864
 6279TIP3    H140328   2.092   3.279  16.753 -1.4345 -0.8040 -1.6846
 6279TIP3    H240329   2.143   3.176  16.654  1.9704 -0.1431 -0.7478
 6280TIP3   OH240330   2.400   0.362   2.893  0.2355  0.8996  0.1240
 6280TIP3    H140331   2.478   0.354   2.948  0.7105  1.2864 -0.4772
 6280TIP3    H240332   2.349   0.284   2.912  0.9074  0.4997  0.3079
 6281TIP3   OH240333   5.231   1.811  17.199  0.2320 -0.2889 -0.1073
 6281TIP3    H140334   5.174   1.751  17.248  1.0587 -0.8871  0.1529
 6281TIP3    H240335   5.304   1.829  17.258  0.0462  0.9141 -0.2211
 6282TIP3   OH240336   1.848   3.547  14.993 -0.5637 -0.1792  0.6054
 6282TIP3    H140337   1.806   3.470  15.032 -0.2850 -0.1699  0.9361
 6282TIP3    H240338   1.887   3.516  14.912  2.1706 -1.1619  2.1323
 6283TIP3   OH240339   3.205   3.842   5.661  0.4583 -0.1654 -0.0758
 6283TIP3    H140340   3.240   3.847   5.749 -1.3707  0.1678  0.6647
 6283TIP3    H240341   3.120   3.799   5.671  0.5666 -0.8795 -1.7867
 6284TIP3   OH240342   3.526   1.070  14.449  0.9359 -0.4243 -0.2044
 6284TIP3    H140343   3.524   1.061  14.354  2.1363  0.8547 -0.3786
 6284TIP3    H240344   3.564   1.156  14.464  1.9463 -1.1242  1.4625
 6285TIP3   OH240345   6.004   2.669   3.679  0.4709  0.1731 -0.2080
 6285TIP3    H140346   6.062   2.616   3.733 -1.0029  0.0208  1.3033
 6285TIP3    H240347   5.937   2.609   3.649  0.0890  0.7062 -0.4409
 6286TIP3   OH240348   4.287   1.727  11.106 -0.0045  0.8462 -0.2750
 6286TIP3    H140349   4.346   1.675  11.051  1.0500  2.5734 -0.8699
 6286TIP3    H240350   4.231   1.662  11.149  2.4362 -0.9169  0.4693
 6287TIP3   OH240351   0.623   5.609   5.728  0.6511  0.0965  0.1652
 6287TIP3    H140352   0.532   5.596   5.702  0.5829 -0.0617  0.4776
 6287TIP3    H240353   0.673   5.564   5.660  0.4538 -0.7605  0.5727
 6288TIP3   OH240354   3.613   6.336   4.788  0.3044  0.1257  0.1590
 6288TIP3    H140355   3.705   6.340   4.814  0.0132  0.4415  1.2231
 6288TIP3    H240356   3.606   6.395   4.713  0.9400  0.2228  0.1730
 6289TIP3   OH240357   0.647   2.361  14.664 -0.0671  0.3797  0.3686
 6289TIP3    H140358   0.574   2.415  14.635  0.4767  1.7948  1.5438
 6289TIP3    H240359   0.725   2.414  14.649  0.6438 -0.6728  0.1654
 6290TIP3   OH240360   1.162   1.023  13.734  0.0584 -0.0068 -0.4170
 6290TIP3    H140361   1.253   1.049  13.746  0.9246 -3.3849  1.5020
 6290TIP3    H240362   1.153   1.008  13.639  1.0325  1.6170 -0.8063
 6291TIP3   OH240363   1.141   5.426   5.523 -0.0998 -0.2129  0.0173
 6291TIP3    H140364   1.070   5.489   5.536  0.0089  0.5304 -2.4325
 6291TIP3    H240365   1.220   5.480   5.513  0.0934 -0.7323 -1.5094
 6292TIP3   OH240366   3.072   2.975  13.606  0.0032 -0.2779 -0.2300
 6292TIP3    H140367   3.133   2.953  13.677 -0.2861 -0.7893 -0.1331
 6292TIP3    H240368   3.103   2.924  13.531  1.2037  1.3947 -0.9220
 6293TIP3   OH240369   5.712   3.889   0.440  0.6364 -0.1167 -0.3446
 6293TIP3    H140370   5.739   3.847   0.359  0.8309  1.7026 -1.2663
 6293TIP3    H240371   5.648   3.830   0.478  2.6126 -2.4098 -0.3386
 6294TIP3   OH240372   2.337   5.294   0.073 -0.1965 -0.5462 -0.2660
 6294TIP3    H140373   2.342   5.266  -0.018 -0.2528 -0.8397 -0.1795
 6294TIP3    H240374   2.339   5.213   0.124  2.9175 -0.3462  0.1323
 6295TIP3   OH240375   0.955   5.000   1.250 -0.3936 -0.2210  0.2385
 6295TIP3    H140376   0.958   5.038   1.161 -2.4490  1.2697  0.7256
 6295TIP3    H240377   0.935   4.908   1.236 -0.2401 -0.1046 -0.8531
 6296TIP3   OH240378   1.407   5.648   3.077 -0.6805 -0.2235  0.2111
 6296TIP3    H140379   1.446   5.563   3.100  1.1627  0.2733 -0.8683
 6296TIP3    H240380   1.389   5.690   3.160  0.3117 -0.8343  0.7485
 6297TIP3   OH240381   5.069   0.115  12.974  0.1055  0.0858  0.0440
 6297TIP3    H140382   5.036   0.205  12.974  0.2090  0.1245  0.0838
 6297TIP3    H240383   5.164   0.125  12.968  0.1469 -0.0084  0.5330
 6298TIP3   OH240384   1.742   5.366  12.957 -0.0588  0.2072 -0.9876
 6298TIP3    H140385   1.780   5.349  12.870 -0.8184 -3.3231 -0.7662
 6298TIP3    H240386   1.656   5.326  12.954  0.0463 -0.3752  1.5063
 6299TIP3   OH240387   1.614   1.932   5.376 -0.3337  0.0885 -0.1714
 6299TIP3    H140388   1.620   1.881   5.296  0.6109 -0.6535  0.3465
 6299TIP3    H240389   1.687   1.900   5.431 -0.0845  1.5521  0.4142
 6300TIP3   OH240390   5.380   6.281  14.011 -0.4189  0.7347  0.0096
 6300TIP3    H140391   5.449   6.325  13.962  0.1827  0.4927  0.6197
 6300TIP3    H240392   5.427   6.219  14.068 -1.1742  0.1272 -0.0080
 6301TIP3   OH240393   5.006   4.074   2.636  0.0659  0.8392  0.0038
 6301TIP3    H140394   5.078   4.048   2.694  3.1961  2.1009 -2.9577
 6301TIP3    H240395   4.950   3.997   2.631  2.8637 -1.3623  0.1626
 6302TIP3   OH240396   6.411   2.237  13.070 -0.2135 -0.0218 -0.0214
 6302TIP3    H140397   6.439   2.282  12.991 -2.0908 -1.0063 -1.3345
 6302TIP3    H240398   6.319   2.215  13.054 -0.6168 -0.4094  2.3746
 6303TIP3   OH240399   5.295   4.161   5.797 -0.5523 -0.0022 -0.2589
 6303TIP3    H140400   5.233   4.127   5.861 -1.4466  1.8244 -0.0832
 6303TIP3    H240401   5.370   4.101   5.802 -1.3408 -0.9342  1.1806
 6304TIP3   OH240402   3.527   2.215  14.599  0.2434 -0.4926 -0.3720
 6304TIP3    H140403   3.439   2.223  14.564 -0.4437 -1.2121  1.1107
 6304TIP3    H240404   3.542   2.297  14.647 -0.7364 -1.4426  1.6877
 6305TIP3   OH240405   1.454   1.052   3.846  0.0468 -0.8176 -0.4161
 6305TIP3    H140406   1.463   0.960   3.820  1.4709 -0.2716 -2.1168
 6305TIP3    H240407   1.543   1.088   3.837 -0.4129  0.6469  0.5345
 6306TIP3   OH240408   2.442   4.075   4.152  0.4476  0.3035  0.2463
 6306TIP3    H140409   2.374   4.074   4.084  0.0374  1.4672  0.6147
 6306TIP3    H240410   2.523   4.087   4.103  0.0949  1.7773 -0.0333
 6307TIP3   OH240411   0.191   2.629  15.468 -0.1651 -0.0336 -0.4918
 6307TIP3    H140412   0.146   2.623  15.552  2.9195 -0.5584  1.2750
 6307TIP3    H240413   0.128   2.595  15.404 -2.7590  0.7412  1.4890
 6308TIP3   OH240414   5.479   6.762   3.935  0.0530 -0.3739  0.4573
 6308TIP3    H140415   5.397   6.752   3.983 -0.2595  0.5083  0.1277
 6308TIP3    H240416   5.539   6.804   3.997  0.6745 -2.1266  1.1123
 6309TIP3   OH240417   2.952   0.151  12.370  0.1984 -0.7712  0.3896
 6309TIP3    H140418   2.915   0.172  12.284 -0.5075 -0.5974  0.7294
 6309TIP3    H240419   2.919   0.063  12.389 -0.4539 -0.4195  0.9121
 6310TIP3   OH240420   2.245   5.347  16.366  0.4134  0.3139 -0.3711
 6310TIP3    H140421   2.220   5.265  16.323  0.4470 -0.1801  0.5264
 6310TIP3    H240422   2.315   5.382  16.311  1.8655 -1.3297  0.3341
 6311TIP3   OH240423   4.053   3.832  16.962 -0.6992 -0.8384  0.4802
 6311TIP3    H140424   4.122   3.882  17.007  0.4241 -2.9450  1.2074
 6311TIP3    H240425   4.015   3.777  17.030  1.1331 -4.2196 -1.0103
 6312TIP3   OH240426   6.167   4.128   1.630 -0.3486 -0.2165 -0.1410
 6312TIP3    H140427   6.082   4.152   1.592  0.1389  0.7635 -0.6145
 6312TIP3    H240428   6.158   4.034   1.648 -2.2503  0.2176  1.6451
 6313TIP3   OH240429   4.625   5.524  16.678 -0.5948 -0.0867 -0.2418
 6313TIP3    H140430   4.598   5.484  16.761  0.6411 -0.9456 -0.2363
 6313TIP3    H240431   4.600   5.461  16.611 -0.0454 -0.1671 -0.3745
 6314TIP3   OH240432   3.758   3.311   3.158 -0.0172 -0.3908  0.4963
 6314TIP3    H140433   3.794   3.240   3.211 -0.0655 -0.4288  0.4785
 6314TIP3    H240434   3.831   3.338   3.102  0.4632  0.6041  1.5581
 6315TIP3   OH240435   5.846   4.128  13.907  0.2243 -1.0287 -0.2335
 6315TIP3    H140436   5.772   4.156  13.853  1.6332  1.9236 -0.8740
 6315TIP3    H240437   5.920   4.126  13.846  2.0012  2.9745  1.3785
 6316TIP3   OH240438   1.399   4.824   2.754  0.2433  0.2798 -0.5560
 6316TIP3    H140439   1.444   4.851   2.834  0.1075 -1.9306  0.3472
 6316TIP3    H240440   1.469   4.798   2.695  0.3277  1.6227 -1.0887
 6317TIP3   OH240441   5.740   5.758  16.446  0.4718  0.1400 -0.0875
 6317TIP3    H140442   5.682   5.688  16.473 -1.3965  0.4362 -2.8500
 6317TIP3    H240443   5.693   5.839  16.469  1.0657  0.4430  0.0953
 6318TIP3   OH240444   4.435   4.133   2.427 -0.4676  0.0203  0.0893
 6318TIP3    H140445   4.506   4.072   2.408  1.4397  2.4696 -1.2096
 6318TIP3    H240446   4.417   4.120   2.520  1.4725 -0.9220  0.3884
 6319TIP3   OH240447   2.991   6.048  13.177  0.7073  0.1592  0.0755
 6319TIP3    H140448   2.909   6.048  13.227 -0.0510  1.1506 -1.1035
 6319TIP3    H240449   2.995   6.135  13.137  1.5898 -0.3733 -1.0762
 6320TIP3   OH240450   4.975   6.796   4.374 -0.2274  0.2207  0.2977
 6320TIP3    H140451   4.975   6.707   4.341  0.6873 -0.0096  0.8741
 6320TIP3    H240452   5.067   6.824   4.367 -0.6149  1.3699 -0.5341
 6321TIP3   OH240453   5.491   2.126  12.408 -0.2734  0.1477 -0.3180
 6321TIP3    H140454   5.457   2.215  12.398  0.6101  0.7783  1.8173
 6321TIP3    H240455   5.451   2.077  12.336 -1.4384  2.0614 -1.0440
 6322TIP3   OH240456   6.145   3.625   2.587  0.5938 -0.6031  0.0826
 6322TIP3    H140457   6.191   3.553   2.544  1.7443  0.1919 -0.0381
 6322TIP3    H240458   6.131   3.595   2.677  1.6625 -0.7211  0.2154
 6323TIP3   OH240459   5.236   5.924   2.254 -0.1017 -0.4280  0.5138
 6323TIP3    H140460   5.294   5.931   2.330 -1.3837  0.1574  1.4806
 6323TIP3    H240461   5.194   5.838   2.264  0.6691 -0.9040 -0.2496
 6324TIP3   OH240462   1.737   3.886  12.102  0.4970  0.1725 -0.2093
 6324TIP3    H140463   1.713   3.913  12.014 -0.2983  1.2861  0.3266
 6324TIP3    H240464   1.778   3.963  12.141  0.0663 -0.0288  0.6729
 6325TIP3   OH240465   6.660   3.689   4.347  0.8100 -0.5166  0.1678
 6325TIP3    H140466   6.683   3.601   4.316 -0.9889 -1.0883  0.3752
 6325TIP3    H240467   6.586   3.715   4.292  0.4712  0.3272  1.0104
 6326TIP3   OH240468   3.528   1.666  17.092 -0.0166  0.1637 -0.0166
 6326TIP3    H140469   3.551   1.574  17.104  1.7022  0.2236 -2.1884
 6326TIP3    H240470   3.450   1.678  17.145  0.0245 -2.4010  0.7740
 6327TIP3   OH240471   4.985   1.820  13.872 -0.0948 -0.1356 -0.5058
 6327TIP3    H140472   5.054   1.885  13.885 -0.2211 -0.0656 -0.1766
 6327TIP3    H240473   4.994   1.760  13.946  1.1119 -1.5029 -1.6874
 6328TIP3   OH240474   1.103   3.289   0.421  0.5683  0.1116  0.0383
 6328TIP3    H140475   1.190   3.251   0.431 -0.2412 -1.5889  1.1825
 6328TIP3    H240476   1.044   3.223   0.459 -1.3572  0.5686 -1.9524
 6329TIP3   OH240477   2.685   6.292  16.158  0.4247 -0.6616  0.0353
 6329TIP3    H140478   2.709   6.202  16.136 -1.2446 -1.6076  1.8499
 6329TIP3    H240479   2.766   6.342  16.147  1.6134 -2.5456 -0.1060
 6330TIP3   OH240480   1.601   0.092  10.663 -0.0160 -0.0863 -0.8071
 6330TIP3    H140481   1.649   0.175  10.672  0.9030 -0.7541  0.9853
 6330TIP3    H240482   1.618   0.064  10.573 -1.1521  2.1108 -1.7871
 6331TIP3   OH240483   5.186   6.817   3.279 -0.1150  0.5652 -0.5660
 6331TIP3    H140484   5.103   6.788   3.240 -1.4078  3.9614 -0.7086
 6331TIP3    H240485   5.246   6.826   3.205 -0.9607  2.0179 -1.1230
 6332TIP3   OH240486   0.344   6.226  14.651 -0.1470 -0.3218 -0.0033
 6332TIP3    H140487   0.264   6.259  14.611  0.0613  0.6774  0.3703
 6332TIP3    H240488   0.328   6.231  14.745 -0.6684 -2.7396  0.0841
 6333TIP3   OH240489   3.764   0.451   1.838 -0.0460  0.2366 -0.2418
 6333TIP3    H140490   3.761   0.539   1.801 -0.1556 -0.2319 -1.3877
 6333TIP3    H240491   3.829   0.404   1.786 -1.6031 -0.9980 -1.1602
 6334TIP3   OH240492   4.877   0.753  16.265 -0.0304  0.4093  0.1545
 6334TIP3    H140493   4.794   0.800  16.271 -0.1999  0.5337 -2.0607
 6334TIP3    H240494   4.852   0.660  16.261  0.1640  0.2168  2.2152
 6335TIP3   OH240495   6.128   4.020   5.243  0.0409 -0.4918 -0.3956
 6335TIP3    H140496   6.145   4.051   5.331 -0.7641  0.7043 -0.6476
 6335TIP3    H240497   6.077   3.939   5.255 -2.0332  0.8339  0.2522
 6336TIP3   OH240498   5.414   1.648  15.885  0.1459  0.1150 -0.1243
 6336TIP3    H140499   5.490   1.591  15.876  1.0801  1.2349  0.5221
 6336TIP3    H240500   5.340   1.592  15.861  0.8258 -1.8734  2.1026
 6337TIP3   OH240501   1.611   1.240  13.078  0.2478 -0.1381  0.9865
 6337TIP3    H140502   1.699   1.267  13.102  0.6642  0.4347 -0.9564
 6337TIP3    H240503   1.570   1.319  13.043 -0.3825 -0.7900  0.1921
 6338TIP3   OH240504   5.680   2.537  16.657  0.1489  0.4632 -0.2081
 6338TIP3    H140505   5.604   2.509  16.607  1.6893 -3.2633 -0.7997
 6338TIP3    H240506   5.662   2.509  16.747  0.6313 -0.1082 -0.2804
 6339TIP3   OH240507   6.006   3.944  11.102  0.0658  0.5902  0.4185
 6339TIP3    H140508   5.937   3.976  11.160 -2.1396 -1.8226 -0.6684
 6339TIP3    H240509   5.966   3.941  11.016  1.0679 -2.0655 -0.0490
 6340TIP3   OH240510   0.300   6.532  14.739  0.3578 -0.5059  0.1632
 6340TIP3    H140511   0.205   6.529  14.741  0.1797  2.5146  1.5741
 6340TIP3    H240512   0.328   6.457  14.791 -1.2439 -0.9471  0.4300
 6341TIP3   OH240513   4.867   5.406   5.561  0.1626  0.0610 -0.0568
 6341TIP3    H140514   4.859   5.464   5.637  3.3261  0.5791  0.0150
 6341TIP3    H240515   4.815   5.447   5.493  0.7821  2.0065  0.5803
 6342TIP3   OH240516   6.372   2.337   6.116 -0.1695  0.6055 -0.2511
 6342TIP3    H140517   6.319   2.277   6.168 -0.6418 -0.2707 -1.7156
 6342TIP3    H240518   6.417   2.282   6.052  0.2535  1.6797 -0.9145
 6343TIP3   OH240519   6.215   2.563  13.119  0.0744  0.1017 -0.0774
 6343TIP3    H140520   6.176   2.486  13.077  2.5537 -0.4861 -1.5199
 6343TIP3    H240521   6.262   2.607  13.048 -0.9538  2.7594  0.8110
 6344TIP3   OH240522   4.392   0.722   2.920 -0.2306 -0.1893  0.3791
 6344TIP3    H140523   4.443   0.769   2.854 -0.2974 -0.6440 -0.0010
 6344TIP3    H240524   4.419   0.631   2.910 -2.1879 -0.6941 -0.8598
 6345TIP3   OH240525   0.575   6.314   3.305 -0.5190 -1.1334  0.1945
 6345TIP3    H140526   0.613   6.383   3.250  1.2558 -0.5886  2.0012
 6345TIP3    H240527   0.618   6.234   3.276 -0.6498 -1.0848 -0.1428
 6346TIP3   OH240528   2.274   1.951  12.303 -0.9969  0.2497 -0.2380
 6346TIP3    H140529   2.205   1.945  12.370 -1.1918 -1.5186 -0.5393
 6346TIP3    H240530   2.234   1.998  12.231 -2.6176 -2.3807 -1.1804
 6347TIP3   OH240531   4.292   0.091   1.231  0.1838  0.2259  0.1077
 6347TIP3    H140532   4.229   0.041   1.282  0.9519 -0.6295  0.2404
 6347TIP3    H240533   4.373   0.041   1.236  0.9762  1.4635  0.2160
 6348TIP3   OH240534   1.155   1.330   4.559  0.1468  0.2305  0.0764
 6348TIP3    H140535   1.244   1.351   4.585  0.2933 -0.1671 -0.0980
 6348TIP3    H240536   1.164   1.270   4.485 -0.2567  1.8076 -1.3195
 6349TIP3   OH240537   1.756   4.125   0.570 -0.0406 -0.1324  0.0771
 6349TIP3    H140538   1.810   4.048   0.550  2.2927  1.9290 -2.3471
 6349TIP3    H240539   1.731   4.114   0.662  2.0845 -2.6502  0.4632
 6350TIP3   OH240540   5.740   5.616   4.426 -0.6903  0.1930  0.3255
 6350TIP3    H140541   5.767   5.694   4.475 -0.6376  0.9320 -0.8207
 6350TIP3    H240542   5.647   5.630   4.408 -0.6082  0.1578 -0.1512
 6351TIP3   OH240543   2.158   2.758   3.282 -0.7000 -0.1984 -0.8318
 6351TIP3    H140544   2.155   2.732   3.374 -1.6392 -0.5620 -0.9601
 6351TIP3    H240545   2.204   2.687   3.238 -0.5480 -0.1824 -0.6997
 6352TIP3   OH240546   2.114   3.686  12.436  0.2309  0.5051  0.2267
 6352TIP3    H140547   2.085   3.773  12.409 -1.5820 -0.4281 -1.0882
 6352TIP3    H240548   2.156   3.650  12.358 -1.2342 -0.6493 -0.0874
 6353TIP3   OH240549   6.208   0.791  16.700  0.4307  0.2136 -0.5623
 6353TIP3    H140550   6.283   0.849  16.716  2.4275 -1.8966 -1.6546
 6353TIP3    H240551   6.178   0.816  16.613 -0.2605  1.1391 -0.0788
 6354TIP3   OH240552   4.102   2.065   2.085 -0.2315  0.1961  0.1458
 6354TIP3    H140553   4.164   2.135   2.104  0.4481 -0.0703 -0.9705
 6354TIP3    H240554   4.016   2.105   2.095  0.1446  1.1181 -0.2379
 6355TIP3   OH240555   2.725   3.535   3.721 -0.4171 -0.2378  0.0334
 6355TIP3    H140556   2.768   3.464   3.672 -0.0304  1.3505 -2.0509
 6355TIP3    H240557   2.767   3.532   3.807 -0.0624 -2.2106 -0.1545
 6356TIP3   OH240558   3.985   1.472  14.344  0.0691 -0.4447 -0.3622
 6356TIP3    H140559   3.929   1.463  14.421 -0.5854  0.5216 -0.7095
 6356TIP3    H240560   4.068   1.433  14.371  0.2697  1.0006  1.2808
 6357TIP3   OH240561   2.405   3.663   0.675 -0.3038  0.2991  0.2150
 6357TIP3    H140562   2.462   3.610   0.732 -0.2243  0.5725  0.3896
 6357TIP3    H240563   2.317   3.629   0.691 -0.4534  1.2248  1.4639
 6358TIP3   OH240564   4.309   0.193  13.027 -0.2349  0.5786  0.0772
 6358TIP3    H140565   4.280   0.191  13.118 -0.8477 -1.1925 -0.1132
 6358TIP3    H240566   4.388   0.248  13.028  2.0156 -2.3450  2.4249
 6359TIP3   OH240567   4.543   1.365   4.653 -0.4339 -0.1821  0.0535
 6359TIP3    H140568   4.591   1.393   4.731 -0.4971  1.0709 -0.3303
 6359TIP3    H240569   4.453   1.393   4.669 -0.9858 -2.1100  0.5676
 6360TIP3   OH240570   5.263   3.646  11.966  0.0358  0.0459  0.2380
 6360TIP3    H140571   5.314   3.724  11.945  1.1236 -1.0865 -1.6031
 6360TIP3    H240572   5.301   3.614  12.048  2.4159 -0.7617 -1.0744
 6361TIP3   OH240573   0.203   0.856  11.160  0.6374 -0.0123  0.0332
 6361TIP3    H140574   0.155   0.807  11.227  1.3375  0.4834  0.9203
 6361TIP3    H240575   0.161   0.832  11.077 -1.3756  0.6827  0.8080
 6362TIP3   OH240576   1.176   3.964   4.724 -0.4668 -0.1246 -0.1571
 6362TIP3    H140577   1.140   4.010   4.648 -0.2818  0.8482  0.3278
 6362TIP3    H240578   1.265   3.943   4.698 -0.8067 -0.9363 -0.6854
 6363TIP3   OH240579   4.358   1.960   4.264 -0.0738 -0.2412  0.2520
 6363TIP3    H140580   4.453   1.952   4.260 -0.1175 -0.6509 -0.0476
 6363TIP3    H240581   4.328   1.872   4.287 -0.3217  0.1482  1.5240
 6364TIP3   OH240582   6.068   6.308  16.922  0.3856  0.1473  0.4551
 6364TIP3    H140583   6.003   6.378  16.921 -0.2296 -0.3733  1.6129
 6364TIP3    H240584   6.075   6.283  17.014 -1.5294 -3.2217 -0.1740
 6365TIP3   OH240585   3.952   0.529  15.600 -0.5677  0.5112  0.5231
 6365TIP3    H140586   4.017   0.596  15.622 -1.6983  1.5451  0.7577
 6365TIP3    H240587   3.922   0.553  15.512  0.3817 -0.8060 -0.2068
 6366TIP3   OH240588   6.248   5.090   3.417  0.0404  0.2307  0.3381
 6366TIP3    H140589   6.267   4.998   3.435 -1.3979 -0.3694 -0.9927
 6366TIP3    H240590   6.257   5.098   3.322  1.9922  1.9586  0.5816
 6367TIP3   OH240591   4.412   2.632  11.036  0.4536 -0.2207 -0.0763
 6367TIP3    H140592   4.362   2.550  11.044  1.9216 -1.1609 -0.2013
 6367TIP3    H240593   4.404   2.656  10.944 -0.2889  0.0041  0.0347
 6368TIP3   OH240594   2.863   0.508  16.183 -0.0952 -0.0871 -0.0804
 6368TIP3    H140595   2.812   0.578  16.143 -2.5807 -1.5601  0.2609
 6368TIP3    H240596   2.867   0.439  16.116 -1.5343 -1.2937  0.9769
 6369TIP3   OH240597   2.046   2.009  10.881  0.1506 -0.1167  0.0431
 6369TIP3    H140598   1.996   1.928  10.891 -0.5703  0.3120 -0.0130
 6369TIP3    H240599   2.019   2.044  10.796  1.5321 -0.5379 -0.5791
 6370TIP3   OH240600   2.829   2.553  11.699 -0.7133 -0.1593 -0.0724
 6370TIP3    H140601   2.764   2.501  11.747 -0.1289 -0.9359 -0.1162
 6370TIP3    H240602   2.856   2.621  11.761  2.9084 -3.3876  2.2609
 6371TIP3   OH240603   2.832   0.369  14.422  0.0904  0.7832  0.0969
 6371TIP3    H140604   2.872   0.291  14.383 -1.5573 -0.1671  0.2351
 6371TIP3    H240605   2.890   0.441  14.396  0.3208 -0.1238 -2.1253
 6372TIP3   OH240606   4.359   5.569   1.999  0.0052  0.5268 -0.5584
 6372TIP3    H140607   4.431   5.530   2.049 -1.6759 -2.0866 -0.0183
 6372TIP3    H240608   4.351   5.658   2.034  1.4305  0.0907  1.0062
 6373TIP3   OH240609   5.468   1.112  16.338 -0.7251 -0.0451  0.3472
 6373TIP3    H140610   5.455   1.185  16.399 -0.4434  0.3455 -0.0520
 6373TIP3    H240611   5.526   1.148  16.271 -0.5394 -0.6594  0.1785
 6374TIP3   OH240612   2.722   0.173  13.327  0.0666 -0.1376  0.3765
 6374TIP3    H140613   2.699   0.189  13.236 -0.3559 -0.3784  0.4411
 6374TIP3    H240614   2.663   0.228  13.378  0.9069  0.6989  0.4853
 6375TIP3   OH240615   3.410   6.743   1.075  0.1762  0.2272  0.2152
 6375TIP3    H140616   3.383   6.808   1.140  0.9591  0.8063 -0.0182
 6375TIP3    H240617   3.418   6.662   1.124 -0.5955  0.3548  0.5584
 6376TIP3   OH240618   5.874   1.453   3.763  0.3222  0.1782  0.3000
 6376TIP3    H140619   5.944   1.514   3.783  0.3993 -0.3467  1.7930
 6376TIP3    H240620   5.795   1.507   3.759  0.7203  0.7129 -1.0052
 6377TIP3   OH240621   1.458   3.199   4.758 -1.1369  0.7185  0.3237
 6377TIP3    H140622   1.464   3.290   4.789 -2.9365  0.3980  1.7673
 6377TIP3    H240623   1.549   3.170   4.753 -0.5347  2.4595  0.2226
 6378TIP3   OH240624   2.106   1.456  16.021  0.5849  0.4531 -0.1820
 6378TIP3    H140625   2.154   1.437  16.101 -0.0790  0.2304  0.1708
 6378TIP3    H240626   2.147   1.401  15.954  0.6297  0.0412  0.1806
 6379TIP3   OH240627   1.235   3.698  12.319  0.0690 -0.7761 -0.0557
 6379TIP3    H140628   1.297   3.626  12.309 -0.0598 -0.8287 -0.5351
 6379TIP3    H240629   1.195   3.684  12.404 -0.8348 -1.9848 -0.6452
 6380TIP3   OH240630   6.528   1.195   1.354  0.5280 -0.1445  0.2201
 6380TIP3    H140631   6.515   1.238   1.270 -2.6586 -0.7116  0.2887
 6380TIP3    H240632   6.521   1.101   1.335  3.1131 -0.5130  0.7013
 6381TIP3   OH240633   4.719   3.687   0.014 -0.0366  0.3405  0.3071
 6381TIP3    H140634   4.770   3.751   0.063  1.2493 -1.0845  0.9320
 6381TIP3    H240635   4.762   3.683  -0.072 -0.8742  1.1849 -0.1619
 6382TIP3   OH240636   1.310   1.713   2.300 -0.1154 -0.3413  0.4737
 6382TIP3    H140637   1.263   1.632   2.320  1.6459 -1.4580  0.2587
 6382TIP3    H240638   1.246   1.767   2.253 -0.9456 -2.1378 -0.5399
 6383TIP3   OH240639   6.786   3.960  14.528  0.3722 -0.2113 -0.6422
 6383TIP3    H140640   6.711   3.930  14.579 -0.9149  3.4731 -0.0499
 6383TIP3    H240641   6.752   3.968  14.439 -0.4385  2.4590 -0.1926
 6384TIP3   OH240642   6.722   5.236   0.186 -0.0432  0.2280 -0.1244
 6384TIP3    H140643   6.804   5.195   0.161 -1.1849 -1.8396 -0.7681
 6384TIP3    H240644   6.696   5.192   0.267 -0.4773  0.8842  0.1023
 6385TIP3   OH240645   1.385   4.714   1.579  0.3138  0.6084  0.0520
 6385TIP3    H140646   1.381   4.685   1.670  0.2756  0.9063  0.1469
 6385TIP3    H240647   1.402   4.808   1.585  3.7207  0.1270 -0.2647
 6386TIP3   OH240648   2.631   5.466   3.528  0.4597 -0.1548 -0.4895
 6386TIP3    H140649   2.578   5.408   3.583  1.9222 -0.7392  0.3334
 6386TIP3    H240650   2.595   5.454   3.440 -3.3453  2.3644  0.4807
 6387TIP3   OH240651   1.733   1.541  13.299 -0.0544  0.4279  0.9959
 6387TIP3    H140652   1.772   1.459  13.267 -2.3443  0.2365 -1.7458
 6387TIP3    H240653   1.689   1.517  13.380  0.5345 -0.7102  1.0004
 6388TIP3   OH240654   0.538   2.099   5.335 -0.3419 -0.1982 -0.4724
 6388TIP3    H140655   0.511   2.109   5.244  0.8764 -0.7542 -0.9132
 6388TIP3    H240656   0.506   2.013   5.360 -1.8038  0.4735  0.0527
 6389TIP3   OH240657   6.426   4.650   6.237  0.3003  0.1342  0.0824
 6389TIP3    H140658   6.377   4.731   6.220  1.4844  1.1020  1.1058
 6389TIP3    H240659   6.368   4.600   6.296  0.0238  0.7398  0.3412
 6390TIP3   OH240660   1.546   0.762  16.576  0.6434 -0.6125 -0.2031
 6390TIP3    H140661   1.635   0.779  16.547  0.9950  0.5124  1.4091
 6390TIP3    H240662   1.546   0.786  16.669 -0.7891 -2.5909  0.3753
 6391TIP3   OH240663   1.532   4.287  14.975  0.3644  0.3811 -0.0859
 6391TIP3    H140664   1.480   4.207  14.983  1.3528 -0.1221  2.1160
 6391TIP3    H240665   1.552   4.312  15.065  4.3395  0.2251 -0.7281
 6392TIP3   OH240666   3.775   4.467  12.017  0.3707  0.1097  0.2003
 6392TIP3    H140667   3.788   4.524  11.941  1.1298 -0.1403  0.1352
 6392TIP3    H240668   3.783   4.378  11.982  0.2710 -0.0133  0.4871
 6393TIP3   OH240669   2.104   3.279   2.964  0.2151 -0.3674 -0.4014
 6393TIP3    H140670   2.165   3.264   2.892  0.3096 -0.3356 -0.3272
 6393TIP3    H240671   2.028   3.223   2.943  0.0466 -0.0080 -0.7623
 6394TIP3   OH240672   1.913   2.429  11.989 -0.0939  0.0260 -0.1917
 6394TIP3    H140673   1.827   2.445  12.029 -0.9147 -0.6723 -1.6242
 6394TIP3    H240674   1.926   2.335  11.995  0.0645 -0.0081 -0.9863
 6395TIP3   OH240675   1.774   4.059   5.149  0.2045  0.3188  0.3484
 6395TIP3    H140676   1.708   4.118   5.186  0.9907  1.4809 -0.0567
 6395TIP3    H240677   1.840   4.051   5.218  1.3669  1.9977 -0.5163
 6396TIP3   OH240678   2.742   5.982   2.683 -0.0138  0.6606 -1.1992
 6396TIP3    H140679   2.803   5.909   2.686  0.1299  0.7795 -1.1959
 6396TIP3    H240680   2.746   6.012   2.592 -1.3148 -0.3817 -1.6170
 6397TIP3   OH240681   5.040   3.494   2.826  0.2781  0.2757 -0.1619
 6397TIP3    H140682   5.055   3.490   2.921  1.0140  0.2062 -0.2760
 6397TIP3    H240683   5.058   3.405   2.795  1.1861  0.5766 -0.5220
 6398TIP3   OH240684   5.655   3.821   2.927  0.0878  0.0001  0.7652
 6398TIP3    H140685   5.644   3.905   2.971  1.4045  1.4977 -1.5264
 6398TIP3    H240686   5.749   3.806   2.928  0.3685  0.7378 -2.3665
 6399TIP3   OH240687   1.546   5.669  13.655 -0.1970  0.3150  0.1497
 6399TIP3    H140688   1.533   5.592  13.600  1.4310  0.0495  0.0959
 6399TIP3    H240689   1.510   5.643  13.741 -0.7197 -0.0640 -0.1730
 6400TIP3   OH240690   5.951   1.299   4.908  0.0553  0.2192  0.4616
 6400TIP3    H140691   5.991   1.386   4.902  1.1958 -0.1622  1.8593
 6400TIP3    H240692   5.871   1.306   4.857  0.1101  2.0974  0.5437
 6401TIP3   OH240693   6.443   3.693   5.643 -0.4583  0.3655  0.0925
 6401TIP3    H140694   6.402   3.713   5.559  0.8933 -0.1461 -0.7116
 6401TIP3    H240695   6.391   3.621   5.678  0.1516 -0.7736 -1.2595
 6402TIP3   OH240696   6.360   5.387  13.981 -0.5009 -0.4536  0.0492
 6402TIP3    H140697   6.336   5.479  13.996  0.0051 -0.5464  1.6967
 6402TIP3    H240698   6.434   5.392  13.920 -0.7007  0.2247 -0.1491
 6403TIP3   OH240699   1.264   4.751  11.297 -0.3963  0.0792  0.6689
 6403TIP3    H140700   1.304   4.676  11.341 -0.2028 -1.1774 -1.5004
 6403TIP3    H240701   1.338   4.801  11.262 -0.5849 -0.0777  0.0284
 6404TIP3   OH240702   4.835   3.037   1.756  0.1080  0.5499  0.1579
 6404TIP3    H140703   4.923   3.022   1.721 -1.2982 -0.4884 -3.3754
 6404TIP3    H240704   4.845   3.026   1.851  3.6393 -0.0307 -0.1290
 6405TIP3   OH240705   3.012   1.070   3.421  0.5428 -0.2028 -0.0428
 6405TIP3    H140706   2.926   1.092   3.457  0.4386  0.4542 -0.6609
 6405TIP3    H240707   3.023   0.977   3.440 -0.5941 -0.4605 -0.5202
 6406TIP3   OH240708   5.159   5.079   3.734 -0.1817  0.5920 -0.7797
 6406TIP3    H140709   5.080   5.037   3.770  0.3334 -0.3613 -0.7167
 6406TIP3    H240710   5.177   5.029   3.655  1.8141 -0.9394  0.5301
 6407TIP3   OH240711   1.093   6.726   4.900  0.1871  0.3916 -0.2908
 6407TIP3    H140712   1.046   6.758   4.823  2.5822  0.6035 -1.7613
 6407TIP3    H240713   1.068   6.634   4.907  0.2391  0.2586 -1.5995
 6408TIP3   OH240714   5.083   0.153  11.606 -0.1837  0.1092  0.3810
 6408TIP3    H140715   5.177   0.164  11.621 -0.2647  0.6261  0.5334
 6408TIP3    H240716   5.055   0.237  11.568 -0.2266 -0.7048 -1.4668
 6409TIP3   OH240717   4.394   4.716   3.093 -0.2393  0.2614  0.0990
 6409TIP3    H140718   4.333   4.673   3.153 -2.2610  1.3695 -1.0259
 6409TIP3    H240719   4.373   4.678   3.007  0.2033  1.1021 -0.3962
 6410TIP3   OH240720   3.141   5.230   3.488  0.0692  0.0676  0.1527
 6410TIP3    H140721   3.150   5.200   3.578 -1.5154 -0.5823  0.1324
 6410TIP3    H240722   3.095   5.314   3.495  0.3921  0.2658 -0.0409
 6411TIP3   OH240723   1.519   1.086  16.597  0.2591 -0.5646 -0.4774
 6411TIP3    H140724   1.457   1.125  16.658  0.7500 -3.5103  2.1872
 6411TIP3    H240725   1.500   0.992  16.600  2.6783 -1.2093 -2.1763
 6412TIP3   OH240726   1.706   4.905  12.651 -0.5227 -0.1037  0.1057
 6412TIP3    H140727   1.769   4.970  12.681 -0.7286  0.5265 -0.8033
 6412TIP3    H240728   1.621   4.944  12.668 -0.6437  0.1300 -0.9894
 6413TIP3   OH240729   4.680   6.278  13.346  0.4956  0.5036  0.1028
 6413TIP3    H140730   4.759   6.289  13.293  1.0336 -2.6088  0.0859
 6413TIP3    H240731   4.710   6.288  13.436  0.1463  2.8078  0.0308
 6414TIP3   OH240732   0.110   0.917   3.901 -0.4672  0.7781  0.0152
 6414TIP3    H140733   0.190   0.870   3.927 -0.6425  0.1676 -0.5412
 6414TIP3    H240734   0.069   0.941   3.984 -0.2687  0.1343  0.3068
 6415TIP3   OH240735   2.370   3.740  13.738 -0.2609  0.1244 -0.1824
 6415TIP3    H140736   2.353   3.723  13.646  1.2449  0.0045 -0.4627
 6415TIP3    H240737   2.324   3.669  13.784  1.4704 -1.6419 -1.0324
 6416TIP3   OH240738   1.353   5.023   1.828  0.6005  0.0158 -0.1009
 6416TIP3    H140739   1.320   4.965   1.897  0.7552 -0.4626 -0.4224
 6416TIP3    H240740   1.283   5.087   1.815  0.5385  0.0620  0.4445
 6417TIP3   OH240741   6.659   5.300   3.515 -0.4482  0.3501  0.3373
 6417TIP3    H140742   6.615   5.217   3.495  0.1785  0.0157  0.3180
 6417TIP3    H240743   6.733   5.275   3.569  0.7462  0.6944 -1.0674
 6418TIP3   OH240744   5.216   4.244   0.240  0.3641  0.0113  0.5219
 6418TIP3    H140745   5.276   4.208   0.306 -1.5789 -1.6516  1.4981
 6418TIP3    H240746   5.273   4.280   0.172  2.4376 -0.0370  2.1540
 6419TIP3   OH240747   6.299   0.858   3.820  0.0902  0.2820  0.0405
 6419TIP3    H140748   6.334   0.797   3.755 -0.9537 -0.1085 -0.1603
 6419TIP3    H240749   6.227   0.810   3.862 -0.3175  1.1403  0.3327
 6420TIP3   OH240750   6.524   5.956  12.300  0.0601  0.7888 -0.3153
 6420TIP3    H140751   6.575   6.036  12.288  0.0741  0.8015 -0.1711
 6420TIP3    H240752   6.588   5.886  12.291  0.0130  0.7858 -0.6413
 6421TIP3   OH240753   3.887   2.000  13.592  0.0184  0.3708  0.6367
 6421TIP3    H140754   3.804   1.953  13.589  0.5296 -0.6765  2.0429
 6421TIP3    H240755   3.932   1.974  13.511  1.1310 -3.3141  2.2233
 6422TIP3   OH240756   4.942   4.190   5.299  0.0435  0.0491 -0.8020
 6422TIP3    H140757   4.854   4.189   5.262 -0.5616  1.9627  0.4101
 6422TIP3    H240758   4.989   4.255   5.246  0.8426 -1.1333 -1.5962
 6423TIP3   OH240759   0.179   5.777  16.043 -0.0844 -0.7313 -0.0256
 6423TIP3    H140760   0.180   5.771  16.139  1.7292 -1.2417 -0.0273
 6423TIP3    H240761   0.188   5.686  16.014 -1.8212 -0.7148 -0.7421
 6424TIP3   OH240762   6.508   0.743   2.879 -0.4788  0.2629  0.0142
 6424TIP3    H140763   6.479   0.810   2.817  2.0226 -0.1420 -1.7617
 6424TIP3    H240764   6.497   0.661   2.832 -1.7301 -0.4462  1.4635
 6425TIP3   OH240765   6.323   4.119  12.062  0.5924 -0.0718  0.4644
 6425TIP3    H140766   6.294   4.141  11.974  0.4612  0.0012  0.5247
 6425TIP3    H240767   6.413   4.091  12.052  0.4849 -0.3440  0.2693
 6426TIP3   OH240768   0.851   5.885  16.837 -0.3223  0.4889  0.4722
 6426TIP3    H140769   0.833   5.847  16.751  1.0926 -0.2932  0.4977
 6426TIP3    H240770   0.946   5.890  16.842 -0.1669 -2.3042  3.1629
 6427TIP3   OH240771   6.378   1.580   3.403 -0.5266 -0.3330  0.4329
 6427TIP3    H140772   6.329   1.547   3.478 -0.0846 -2.2344 -0.0674
 6427TIP3    H240773   6.453   1.521   3.394 -0.6409 -0.2601 -1.5864
 6428TIP3   OH240774   1.671   4.276   1.757 -0.2168  0.2975  0.5770
 6428TIP3    H140775   1.710   4.222   1.826 -0.3524  1.0211  1.2354
 6428TIP3    H240776   1.638   4.354   1.803  0.0136  0.9632 -0.3533
 6429TIP3   OH240777   5.324   0.482   1.047  0.3058  0.4718 -0.3095
 6429TIP3    H140778   5.294   0.567   1.080  0.0551  0.1389  0.3293
 6429TIP3    H240779   5.278   0.472   0.964 -2.1131 -0.4163  1.0332
 6430TIP3   OH240780   5.898   1.584  16.353  0.2525  0.8468  0.1317
 6430TIP3    H140781   5.946   1.616  16.430 -0.1079  0.4023  0.5412
 6430TIP3    H240782   5.810   1.620  16.363  0.1161  0.5212  0.0860
 6431TIP3   OH240783   0.524   5.374  14.758 -0.2018  0.1779 -0.5804
 6431TIP3    H140784   0.529   5.450  14.699 -0.1630  0.1765 -0.5798
 6431TIP3    H240785   0.598   5.386  14.818 -0.2544  0.1908 -0.5186
 6432TIP3   OH240786   6.188   6.162  12.658 -0.0421 -0.6741 -0.5790
 6432TIP3    H140787   6.112   6.179  12.602 -0.2329 -1.7046 -0.6524
 6432TIP3    H240788   6.263   6.192  12.608 -0.1814 -1.8349 -1.5144
 6433TIP3   OH240789   4.159   3.989   1.682  0.0039  0.1831 -0.3026
 6433TIP3    H140790   4.142   4.058   1.746  0.5987 -0.1426  0.2252
 6433TIP3    H240791   4.227   4.026   1.625  0.5070 -0.0402  0.1339
 6434TIP3   OH240792   0.083   6.218   3.363  0.0827 -0.2244  0.0223
 6434TIP3    H140793   0.030   6.140   3.350  0.5589 -0.7402  1.0811
 6434TIP3    H240794   0.153   6.211   3.298 -0.8700  0.2390 -1.0838
 6435TIP3   OH240795   5.867   5.874  14.562  0.3775 -0.1659 -0.4999
 6435TIP3    H140796   5.891   5.784  14.584  0.0228 -0.4079 -1.0677
 6435TIP3    H240797   5.834   5.868  14.472 -0.4117  0.3931 -0.2584
 6436TIP3   OH240798   3.094   2.196  11.396  0.4466 -0.1864  0.1442
 6436TIP3    H140799   3.136   2.261  11.339 -0.8114 -1.3283 -2.2436
 6436TIP3    H240800   3.025   2.245  11.440  1.9367  0.8987  1.3956
 6437TIP3   OH240801   1.771   0.598   2.563 -0.4937 -0.1049 -0.5120
 6437TIP3    H140802   1.741   0.659   2.630  0.1730 -0.1925 -0.1264
 6437TIP3    H240803   1.701   0.598   2.498 -1.9664 -1.3350  1.0052
 6438TIP3   OH240804   1.337   6.773   5.642  0.5493 -0.4217 -0.4275
 6438TIP3    H140805   1.242   6.775   5.656  0.6990  0.3387  0.5644
 6438TIP3    H240806   1.347   6.773   5.547 -0.4356 -0.0542 -0.5441
 6439TIP3   OH240807   5.311   5.083  15.847  0.0825  0.6408  0.1317
 6439TIP3    H140808   5.268   5.023  15.787  2.4882 -1.0157 -0.0695
 6439TIP3    H240809   5.338   5.157  15.791 -1.1303  0.9830 -0.0173
 6440TIP3   OH240810   2.564   5.751   1.960 -0.2994  0.4024  0.3187
 6440TIP3    H140811   2.511   5.827   1.986 -1.4497  0.0851 -0.9769
 6440TIP3    H240812   2.584   5.766   1.867  0.0864 -0.5298  0.2379
 6441TIP3   OH240813   4.627   4.467  16.975  0.2007  0.0124  0.2523
 6441TIP3    H140814   4.688   4.531  16.938 -0.8631  0.6097 -0.4941
 6441TIP3    H240815   4.543   4.513  16.979 -0.3720 -1.0351  0.5817
 6442TIP3   OH240816   5.252   4.645  15.734 -0.6860  0.2030  0.1604
 6442TIP3    H140817   5.294   4.629  15.650  0.8681  4.7386 -0.1980
 6442TIP3    H240818   5.319   4.624  15.799 -0.6192  0.0762  0.0506
 6443TIP3   OH240819   4.039   5.733  12.758 -0.4858  0.2262  0.2033
 6443TIP3    H140820   4.045   5.827  12.747  0.4910  0.1888  0.3347
 6443TIP3    H240821   4.108   5.698  12.701 -0.2700 -0.3537  0.8084
 6444TIP3   OH240822   1.884   6.080   0.934  0.3781  0.2391  0.0452
 6444TIP3    H140823   1.941   6.028   0.991  0.9912  0.3721 -0.4331
 6444TIP3    H240824   1.806   6.027   0.922 -1.1229  1.3603  3.3819
 6445TIP3   OH240825   1.437   3.528  12.480  0.5022 -0.3824  0.4023
 6445TIP3    H140826   1.372   3.459  12.497  1.3548 -0.5613  3.5465
 6445TIP3    H240827   1.515   3.480  12.452 -0.1690 -0.2738 -1.8530
 6446TIP3   OH240828   3.000   1.135   6.306  0.4021  0.3020  0.2092
 6446TIP3    H140829   2.962   1.150   6.392  0.1835 -0.0820  0.1803
 6446TIP3    H240830   2.958   1.200   6.249 -0.5610 -0.4307  0.0785
 6447TIP3   OH240831   5.631   5.527  13.745 -0.3751  0.2722  0.1097
 6447TIP3    H140832   5.674   5.448  13.712 -0.2449  0.1955  0.4589
 6447TIP3    H240833   5.640   5.521  13.841 -0.6342  0.5548  0.1526
 6448TIP3   OH240834   3.124   6.681   4.200  0.3108  0.1883 -0.3560
 6448TIP3    H140835   3.208   6.677   4.155 -0.0020  0.1929 -0.9515
 6448TIP3    H240836   3.123   6.605   4.257  0.6038  0.0407 -0.5490
 6449TIP3   OH240837   4.171   5.269  15.666 -0.5169 -0.2684  0.3143
 6449TIP3    H140838   4.105   5.201  15.664 -0.2562 -0.5769  1.3876
 6449TIP3    H240839   4.173   5.304  15.577 -1.0780 -1.2442 -0.0935
 6450TIP3   OH240840   4.590   0.669   0.050 -0.0864  0.4398  0.2244
 6450TIP3    H140841   4.680   0.637   0.038  0.4336  1.4479  1.2698
 6450TIP3    H240842   4.598   0.739   0.115 -1.8690 -0.5430  1.5762
 6451TIP3   OH240843   5.588   5.510   4.063 -0.4418  0.4916  0.1889
 6451TIP3    H140844   5.650   5.581   4.046  0.5414  0.0672  1.7739
 6451TIP3    H240845   5.533   5.543   4.135 -0.5355 -0.0131  0.3533
 6452TIP3   OH240846   3.091   5.721  11.901  0.3017 -0.9155 -0.8185
 6452TIP3    H140847   3.148   5.714  11.977 -2.1945  1.1208  1.4062
 6452TIP3    H240848   3.132   5.787  11.846 -0.0238  0.9024  0.9978
 6453TIP3   OH240849   2.929   0.236  12.643 -0.0698  0.0473  0.4391
 6453TIP3    H140850   2.929   0.232  12.547 -0.7980  0.9468  0.3824
 6453TIP3    H240851   3.017   0.208  12.668  0.5788  1.0939 -0.5606
 6454TIP3   OH240852   0.566   3.863   0.744  0.3423 -0.3459  0.0496
 6454TIP3    H140853   0.568   3.795   0.677  0.6823 -0.1957 -0.0992
 6454TIP3    H240854   0.633   3.837   0.807 -0.0968 -0.5759  0.4215
 6455TIP3   OH240855   3.183   1.975   1.544  0.0614 -0.1839  0.0199
 6455TIP3    H140856   3.221   2.062   1.557 -1.9049  0.9303 -1.2771
 6455TIP3    H240857   3.127   1.962   1.620 -1.0467  0.5092 -0.6519
 6456TIP3   OH240858   6.504   3.218   4.648  0.6289  0.4970 -0.3362
 6456TIP3    H140859   6.467   3.296   4.690  0.2657  0.0624  0.1602
 6456TIP3    H240860   6.469   3.219   4.559 -0.7735 -0.0171  0.1767
 6457TIP3   OH240861   5.455   0.352   0.507  0.9476  0.1731  0.1371
 6457TIP3    H140862   5.481   0.315   0.422  0.5947  0.1819  0.0262
 6457TIP3    H240863   5.420   0.439   0.485 -0.3975 -0.3565  0.1409
 6458TIP3   OH240864   3.171   5.127  11.242 -0.1253 -0.4724  0.1113
 6458TIP3    H140865   3.249   5.119  11.187 -1.0489 -1.0042 -1.1628
 6458TIP3    H240866   3.108   5.175  11.188 -0.8091 -0.3812  0.9687
 6459TIP3   OH240867   6.216   2.136   3.197 -0.4423 -0.0936 -0.5501
 6459TIP3    H140868   6.219   2.122   3.103  2.6187 -0.4247 -0.4831
 6459TIP3    H240869   6.260   2.060   3.235  1.8522  1.7761  0.8417
 6460TIP3   OH240870   2.947   4.593   2.437  0.4677  0.8364  0.6784
 6460TIP3    H140871   2.901   4.536   2.376  0.9569 -0.6343  1.6242
 6460TIP3    H240872   2.986   4.661   2.382  1.2127 -0.6385 -0.7119
 6461TIP3   OH240873   0.914   1.296  15.795  0.6085 -0.1616 -0.2340
 6461TIP3    H140874   0.886   1.230  15.858  0.2688  0.3681  0.1694
 6461TIP3    H240875   0.898   1.255  15.710 -0.9849 -0.0452 -0.0177
 6462TIP3   OH240876   2.280   3.970  12.513  0.7019  0.3253 -0.0663
 6462TIP3    H140877   2.249   4.053  12.549  1.0197 -0.0047  1.0217
 6462TIP3    H240878   2.290   3.913  12.590 -1.6454 -1.4524 -0.9515
 6463TIP3   OH240879   0.021   1.495  12.749 -0.0133 -0.4621 -0.5827
 6463TIP3    H140880  -0.037   1.481  12.674 -2.6829 -0.5707  1.3670
 6463TIP3    H240881   0.022   1.412  12.795 -2.2546  0.7623  1.9321
 6464TIP3   OH240882   3.787   1.442  17.062  0.8417 -0.1370 -0.1126
 6464TIP3    H140883   3.726   1.393  17.119  1.6690 -0.6441  0.3568
 6464TIP3    H240884   3.856   1.472  17.122  0.7336  0.9976 -0.5241
 6465TIP3   OH240885   5.634   6.757  15.634  0.2449 -0.1664  0.1108
 6465TIP3    H140886   5.650   6.716  15.549  0.1755 -0.8055  0.4021
 6465TIP3    H240887   5.559   6.709  15.671  0.6460 -0.2871  0.7859
 6466TIP3   OH240888   6.136   1.848  11.419  0.1625  0.0998  0.2859
 6466TIP3    H140889   6.176   1.834  11.334  3.3626  0.0509  1.6763
 6466TIP3    H240890   6.173   1.780  11.475 -0.6316  1.0995  2.1079
 6467TIP3   OH240891   4.033   4.800   0.048  0.3324 -0.0795 -0.1678
 6467TIP3    H140892   4.111   4.846   0.079  0.0444  0.4865 -0.2677
 6467TIP3    H240893   3.966   4.869   0.040  0.5285 -0.0919 -2.5481
 6468TIP3   OH240894   5.354   6.405  13.601 -0.4778 -0.1609 -0.6238
 6468TIP3    H140895   5.269   6.374  13.631  0.0644 -1.3801 -0.2987
 6468TIP3    H240896   5.414   6.333  13.619  0.5230  0.4475 -1.3928
 6469TIP3   OH240897   1.257   1.277  13.102  0.1506  0.0890 -0.2290
 6469TIP3    H140898   1.182   1.219  13.107 -0.4254  0.8019 -0.3616
 6469TIP3    H240899   1.319   1.232  13.045  0.8639 -1.6216  1.7443
 6470TIP3   OH240900   0.878   4.833  16.096  0.5855 -0.1901  0.3682
 6470TIP3    H140901   0.959   4.847  16.045  0.2285  1.0252  0.0998
 6470TIP3    H240902   0.853   4.743  16.076  3.2058 -1.5172  2.4208
 6471TIP3   OH240903   3.508   1.159  10.427  0.3488 -0.2236 -0.1810
 6471TIP3    H140904   3.494   1.185  10.336 -1.0627 -0.4504 -0.0584
 6471TIP3    H240905   3.513   1.064  10.424  1.3695 -0.1812 -0.1351
 6472TIP3   OH240906   2.372   0.852   4.365  0.2243 -0.4704 -0.0083
 6472TIP3    H140907   2.382   0.914   4.437 -0.7974 -0.0130 -0.2497
 6472TIP3    H240908   2.451   0.864   4.312  0.9745 -0.7852  0.9966
 6473TIP3   OH240909   4.535   2.898  11.358  0.0070  0.5132 -0.2642
 6473TIP3    H140910   4.562   2.974  11.409  1.1895 -0.8125  1.1740
 6473TIP3    H240911   4.509   2.833  11.423 -0.3471 -0.5658 -1.4335
 6474TIP3   OH240912   3.845   3.134   2.458  0.2244 -0.2475  0.0290
 6474TIP3    H140913   3.848   3.039   2.462 -0.0332 -0.2800 -0.4175
 6474TIP3    H240914   3.869   3.155   2.367  0.1090  0.1028  0.0761
 6475TIP3   OH240915   6.648   0.138   5.521  0.4002 -0.2754 -0.4230
 6475TIP3    H140916   6.635   0.152   5.614  0.7492 -0.5944 -0.3263
 6475TIP3    H240917   6.577   0.188   5.479  0.8813  0.7580 -0.0370
 6476TIP3   OH240918   0.664   4.271   6.925 -0.2854  0.4195 -0.0277
 6476TIP3    H140919   0.619   4.195   6.888 -0.3438  0.6024 -0.3389
 6476TIP3    H240920   0.623   4.346   6.881  0.0995  0.6029 -0.0739
 6477TIP3   OH240921   3.673   1.298  15.492  0.0081 -0.1460 -0.1647
 6477TIP3    H140922   3.634   1.260  15.570 -0.7782  0.5922 -0.1870
 6477TIP3    H240923   3.707   1.223  15.443  0.8261 -0.5803  1.0471
 6478TIP3   OH240924   6.188   1.216  15.203 -0.0356  0.3299 -0.1867
 6478TIP3    H140925   6.165   1.205  15.111 -0.4918  1.3009 -0.2001
 6478TIP3    H240926   6.218   1.307  15.209 -4.6298  2.0480  1.5067
 6479TIP3   OH240927   5.153   6.588   5.807  0.2830  0.8248 -0.1193
 6479TIP3    H140928   5.127   6.565   5.896  0.9059  0.6994  0.0347
 6479TIP3    H240929   5.071   6.599   5.760 -0.0471  0.7274  0.4303
 6480TIP3   OH240930   4.183   3.603   3.065  0.2854  0.0249  0.8815
 6480TIP3    H140931   4.190   3.566   2.977  0.2790  2.1844 -0.0922
 6480TIP3    H240932   4.273   3.607   3.097  0.2319 -1.3140  1.2457
 6481TIP3   OH240933   2.925   0.971  14.496  0.1419  0.1482  0.1182
 6481TIP3    H140934   2.996   0.934  14.443 -0.4585 -0.2907 -0.3924
 6481TIP3    H240935   2.960   0.971  14.585  0.2979 -1.3026  0.0764
 6482TIP3   OH240936   1.156   4.643   4.520  0.1716  0.0258  0.4183
 6482TIP3    H140937   1.238   4.605   4.486  0.1319  0.3652 -0.0670
 6482TIP3    H240938   1.090   4.618   4.455  0.2554  1.4623 -0.2517
 6483TIP3   OH240939   3.520   1.343   2.581  0.0516  0.3591  0.2691
 6483TIP3    H140940   3.461   1.415   2.604  0.0630  0.0240  1.3814
 6483TIP3    H240941   3.606   1.383   2.574 -0.3131  0.9060 -1.6431
 6484TIP3   OH240942   6.124   2.483  13.645 -0.6018 -0.1335 -0.0502
 6484TIP3    H140943   6.213   2.493  13.678 -0.3151  0.8396 -1.0627
 6484TIP3    H240944   6.081   2.567  13.666 -1.5906 -0.9210  1.2696
 6485TIP3   OH240945   3.874   6.405   4.797  0.0584 -0.2412 -0.3349
 6485TIP3    H140946   3.933   6.373   4.729  1.4107  0.7491  0.3192
 6485TIP3    H240947   3.852   6.494   4.770 -1.8855 -0.8952 -1.0197
 6486TIP3   OH240948   4.614   1.035   0.853 -0.0597 -0.7760  0.3949
 6486TIP3    H140949   4.611   0.953   0.902 -2.5396 -0.6632  0.5939
 6486TIP3    H240950   4.567   1.097   0.908 -1.3648 -0.1892 -1.2718
 6487TIP3   OH240951   3.457   5.787   2.374  0.3457  0.2794  0.1037
 6487TIP3    H140952   3.547   5.786   2.406  0.1640  2.2690  0.7842
 6487TIP3    H240953   3.465   5.785   2.279  1.1290  0.8752  0.1474
 6488TIP3   OH240954   2.727   2.181   0.538 -0.1992  0.1878  0.0880
 6488TIP3    H140955   2.669   2.118   0.581  1.2714 -1.8772 -0.8462
 6488TIP3    H240956   2.778   2.219   0.609  0.0981 -0.9518  0.4971
 6489TIP3   OH240957   0.911   2.567  11.333  0.1219 -0.1874  0.4087
 6489TIP3    H140958   0.949   2.558  11.245  1.9085 -1.4471  1.2494
 6489TIP3    H240959   0.822   2.533  11.324  0.7118 -1.5503 -0.6507
 6490TIP3   OH240960   4.972   5.780   5.523  0.2233  0.3707  0.5075
 6490TIP3    H140961   5.058   5.750   5.493  0.6060  1.0611  0.8967
 6490TIP3    H240962   4.954   5.726   5.600  0.8846  1.0592  1.1703
 6491TIP3   OH240963   4.174   6.300  13.049  0.0696  0.2320  0.2676
 6491TIP3    H140964   4.082   6.304  13.077  0.2647  1.4530  0.7812
 6491TIP3    H240965   4.224   6.320  13.128  0.9862 -3.8342  0.9143
 6492TIP3   OH240966   1.468   0.461  16.602 -0.3655 -0.0812  0.2265
 6492TIP3    H140967   1.390   0.446  16.655  0.0835 -0.3248  0.8185
 6492TIP3    H240968   1.497   0.549  16.626 -1.0469  0.4342 -0.7611
 6493TIP3   OH240969   3.028   3.580  12.934 -0.0291  0.3016  0.2527
 6493TIP3    H140970   3.036   3.493  12.895 -0.1443 -0.0234  0.9267
 6493TIP3    H240971   3.116   3.600  12.966  0.3470  1.0849 -1.2075
 6494TIP3   OH240972   5.464   3.030  17.232  0.4057  0.1520  0.0368
 6494TIP3    H140973   5.407   3.107  17.233 -0.9810 -0.8329 -0.6292
 6494TIP3    H240974   5.552   3.066  17.243 -0.3571  1.6697  1.7552
 6495TIP3   OH240975   4.733   2.060  13.572  0.2056 -0.0153 -0.4345
 6495TIP3    H140976   4.640   2.041  13.556  0.1901  0.0961 -0.4782
 6495TIP3    H240977   4.767   2.082  13.485 -0.3598  2.7054 -0.0349
 6496TIP3   OH240978   1.164   6.664  14.697 -0.1642  0.4529 -0.1294
 6496TIP3    H140979   1.084   6.617  14.722  0.6819 -0.1080  1.7228
 6496TIP3    H240980   1.133   6.746  14.661 -1.6095 -0.1416 -0.3189
 6497TIP3   OH240981   0.336   0.746   3.919  0.3143 -0.1198 -0.3252
 6497TIP3    H140982   0.409   0.735   3.858  1.8401  0.9213  1.2188
 6497TIP3    H240983   0.333   0.664   3.969  0.7371  0.0083 -0.0863
 6498TIP3   OH240984   3.694   0.540   0.243  0.0577  0.5165 -0.3408
 6498TIP3    H140985   3.785   0.551   0.270  0.1762 -1.2347  0.0666
 6498TIP3    H240986   3.675   0.447   0.257 -2.3110  1.1208  1.2621
 6499TIP3   OH240987   1.970   3.310   3.953 -0.1403  0.0441  0.9698
 6499TIP3    H140988   1.972   3.247   4.024 -2.0776  0.9405  1.9078
 6499TIP3    H240989   1.891   3.362   3.969 -0.8407  0.0908 -2.0119
 6500TIP3   OH240990   3.566   4.756  15.669 -0.2379 -0.1540 -0.7682
 6500TIP3    H140991   3.550   4.663  15.655  0.2612 -0.4114  0.2268
 6500TIP3    H240992   3.649   4.758  15.717  1.1451  0.9374 -3.0300
 6501TIP3   OH240993   1.049   6.661   1.594 -0.8912 -0.4721  0.0259
 6501TIP3    H140994   0.957   6.639   1.583 -0.5286 -1.8535 -0.3475
 6501TIP3    H240995   1.088   6.584   1.635  0.2958 -0.3096 -0.7505
 6502TIP3   OH240996   4.561   1.195  13.592 -0.4607 -0.0568  0.5094
 6502TIP3    H140997   4.567   1.247  13.672  0.6931  2.4109 -1.0717
 6502TIP3    H240998   4.468   1.176  13.582 -0.6642 -0.0918  2.2182
 6503TIP3   OH240999   0.108   0.324   5.040  0.1825  0.7006 -0.2980
 6503TIP3    H141000   0.190   0.321   4.992  0.6162  1.3453  0.3772
 6503TIP3    H241001   0.097   0.416   5.063  0.4491  0.2887  1.6056
 6504TIP3   OH241002   2.697   1.945   1.974 -0.1334  0.1339  0.6849
 6504TIP3    H141003   2.712   2.002   2.050  0.2133  0.4148  0.4143
 6504TIP3    H241004   2.720   1.858   2.005  0.4910  0.3181  0.7673
 6505TIP3   OH241005   4.331   2.353   1.238 -0.0277 -0.1130  0.0520
 6505TIP3    H141006   4.332   2.402   1.156  0.0179  1.3651  0.8981
 6505TIP3    H241007   4.335   2.420   1.306 -0.5264 -1.2769  1.2799
 6506TIP3   OH241008   4.982   2.313  13.084  0.1445  0.1215 -0.1051
 6506TIP3    H141009   5.010   2.258  13.158  0.0251  1.1686  0.7452
 6506TIP3    H241010   5.027   2.396  13.099 -1.6973  1.1256  0.0847
 6507TIP3   OH241011   3.274   2.452   5.517 -0.1297  0.2135  0.0308
 6507TIP3    H141012   3.356   2.493   5.491 -0.3544  0.7885  0.2235
 6507TIP3    H241013   3.224   2.521   5.561 -0.1975 -0.4531  1.0583
 6508TIP3   OH241014   4.428   0.827   1.783  0.3386 -0.2677 -0.6098
 6508TIP3    H141015   4.409   0.735   1.803  2.4848 -0.6712 -0.1427
 6508TIP3    H241016   4.375   0.876   1.845  0.8256 -1.2924  0.6690
 6509TIP3   OH241017   0.106   1.559   5.381 -0.5782  0.0495 -0.1935
 6509TIP3    H141018   0.061   1.478   5.357 -3.0359  1.1304  0.5031
 6509TIP3    H241019   0.136   1.544   5.470 -2.5640  0.4551  0.5879
 6510TIP3   OH241020   0.961   0.095  16.235 -0.2430 -0.4240 -0.1008
 6510TIP3    H141021   0.967   0.013  16.188  2.3246 -0.5670  0.3526
 6510TIP3    H241022   0.912   0.074  16.314  1.1840 -1.7960  0.4725
 6511TIP3   OH241023   5.364   1.616  16.177  0.4788  0.2810 -0.3309
 6511TIP3    H141024   5.407   1.624  16.091  1.0613  1.5924  0.0463
 6511TIP3    H241025   5.319   1.700  16.188 -0.6300 -0.3587  0.1179
 6512TIP3   OH241026   0.771   5.473  11.915  0.3617 -0.2195  0.0309
 6512TIP3    H141027   0.844   5.423  11.879 -0.6725 -1.4731 -0.3587
 6512TIP3    H241028   0.693   5.426  11.887 -0.7556  2.3976 -1.6161
 6513TIP3   OH241029   1.061   4.264   1.798  0.2506  0.0553 -0.6960
 6513TIP3    H141030   1.144   4.306   1.820  0.6239 -0.2983 -1.3880
 6513TIP3    H241031   1.015   4.256   1.881  1.2059 -0.3620 -0.1953
 6514TIP3   OH241032   0.414   4.969   0.891 -0.0241  0.3345 -0.1001
 6514TIP3    H141033   0.480   4.934   0.950  1.5953 -0.1719 -2.0945
 6514TIP3    H241034   0.436   5.061   0.880 -0.3110  0.4253  0.0898
 6515TIP3   OH241035   6.775   2.459  13.532  0.3400  0.0262 -0.0344
 6515TIP3    H141036   6.687   2.432  13.557  0.5538 -0.0007  0.7149
 6515TIP3    H241037   6.763   2.542  13.487 -0.1015 -0.1458 -0.2382
 6516TIP3   OH241038   4.141   5.451  13.035  0.0310 -0.1142 -0.2102
 6516TIP3    H141039   4.173   5.454  13.125  0.2725  1.4694 -0.3047
 6516TIP3    H241040   4.155   5.540  13.003 -0.5547 -0.5161 -1.6410
 6517TIP3   OH241041   3.501   6.211   1.636  0.1911 -0.1255 -0.0302
 6517TIP3    H141042   3.594   6.217   1.659  0.1912  0.7084 -0.2111
 6517TIP3    H241043   3.455   6.255   1.707  0.0649  0.9030 -0.7253
 6518TIP3   OH241044   4.527   5.668   5.968 -0.1544 -0.6275 -0.1745
 6518TIP3    H141045   4.577   5.747   5.947 -0.2665  0.0422  1.8656
 6518TIP3    H241046   4.442   5.701   5.997 -1.0591 -1.6469 -1.5587
 6519TIP3   OH241047   2.636   5.304  13.948  0.5328 -0.2282 -0.0579
 6519TIP3    H141048   2.721   5.346  13.959  1.3686 -1.9191  0.4029
 6519TIP3    H241049   2.623   5.256  14.030 -0.7625 -0.1970 -0.2239
 6520TIP3   OH241050   0.159   3.577   1.559 -0.1611  0.7596 -0.7264
 6520TIP3    H141051   0.206   3.619   1.631 -1.2246 -0.8232  0.9912
 6520TIP3    H241052   0.074   3.620   1.557  0.1623  1.3818 -1.6409
 6521TIP3   OH241053   1.431   2.708  15.382 -0.0488 -0.4003 -0.0695
 6521TIP3    H141054   1.415   2.679  15.292 -0.1481 -1.5478  0.3006
 6521TIP3    H241055   1.393   2.796  15.386 -0.7420 -0.6446 -0.9270
 6522TIP3   OH241056   4.597   6.411   0.161  0.0094  0.7483 -0.2951
 6522TIP3    H141057   4.568   6.347   0.097 -2.7148  1.2703  0.2602
 6522TIP3    H241058   4.627   6.485   0.109 -0.1485  0.3506 -0.9634
 6523TIP3   OH241059   2.433   0.312   2.057  0.0674  0.6019 -0.0050
 6523TIP3    H141060   2.506   0.342   2.003  1.0335 -0.5134  0.6612
 6523TIP3    H241061   2.395   0.392   2.093  1.4447  1.1463  0.2665
 6524TIP3   OH241062   6.025   6.791   0.305 -0.5683 -0.0713 -0.0691
 6524TIP3    H141063   6.113   6.763   0.331 -0.9667 -1.2708  0.0255
 6524TIP3    H241064   6.020   6.770   0.212 -0.2457  1.3762 -0.4466
 6525TIP3   OH241065   0.269   2.857  11.513  0.0957  0.6363  0.1488
 6525TIP3    H141066   0.355   2.894  11.531  0.4754 -0.5033  0.7846
 6525TIP3    H241067   0.222   2.865  11.596  0.3517 -0.6926  0.4462
 6526TIP3   OH241068   2.904   2.677   2.024  0.0688 -0.2205 -0.4698
 6526TIP3    H141069   2.871   2.744   2.084  1.8028  0.1927  0.0665
 6526TIP3    H241070   2.860   2.597   2.053  1.3993 -0.1953  1.9019
 6527TIP3   OH241071   2.174   0.589   0.144 -0.5573 -0.7314  0.6478
 6527TIP3    H141072   2.157   0.668   0.195 -1.6521 -0.1737 -0.5071
 6527TIP3    H241073   2.110   0.526   0.177  0.7546 -1.3834  2.0262
 6528TIP3   OH241074   4.389   2.960   0.111  0.0424 -0.2818  0.5223
 6528TIP3    H141075   4.436   3.032   0.069  0.0083 -0.8484 -0.5287
 6528TIP3    H241076   4.343   3.001   0.184  0.2861  0.7013  0.1442
 6529TIP3   OH241077   4.822   3.288   0.812  0.6499 -0.6677 -0.9855
 6529TIP3    H141078   4.870   3.211   0.842  0.7713 -1.2534 -2.5975
 6529TIP3    H241079   4.835   3.290   0.717  0.8848  1.5044 -0.9745
 6530TIP3   OH241080   2.619   1.305   1.312  0.6502 -0.6519  0.0334
 6530TIP3    H141081   2.666   1.376   1.355  2.2878 -1.7045  0.0850
 6530TIP3    H241082   2.669   1.226   1.335 -1.6973 -1.9925  0.8769
 6531TIP3   OH241083   5.608   2.873   0.688 -0.0907 -0.6579  0.4760
 6531TIP3    H141084   5.670   2.935   0.724  0.6745 -1.5741  0.7643
 6531TIP3    H241085   5.654   2.789   0.689 -1.9780 -1.7786  2.5845
 6532TIP3   OH241086   5.845   5.917  15.492  0.5634  0.4585  0.6063
 6532TIP3    H141087   5.898   5.968  15.553  1.1428 -1.0735  1.4450
 6532TIP3    H241088   5.899   5.841  15.471 -0.7624 -0.4552  0.4088
 6533TIP3   OH241089   5.360   6.600   3.378 -0.0589 -0.0542  0.0286
 6533TIP3    H141090   5.341   6.617   3.470 -0.0889 -0.5192  0.1129
 6533TIP3    H241091   5.275   6.608   3.335 -0.6531 -2.7869  0.5072
 6534TIP3   OH241092   0.758   4.350   3.506  0.3736  0.2938  0.1773
 6534TIP3    H141093   0.768   4.258   3.530  0.4791  0.4722  0.8487
 6534TIP3    H241094   0.847   4.382   3.493  0.3009  0.1150 -0.8119
 6535TIP3   OH241095   2.957   3.150   4.849 -0.0577 -0.2120 -0.5367
 6535TIP3    H141096   2.871   3.166   4.810 -0.0862  0.2789 -0.2909
 6535TIP3    H241097   3.018   3.195   4.791  0.0325 -0.5398 -0.6977
 6536TIP3   OH241098   4.248   5.987   2.036  0.6607  0.3460  0.4470
 6536TIP3    H141099   4.170   5.931   2.031  0.7780  0.2520 -0.6854
 6536TIP3    H241100   4.315   5.932   2.076  0.5973 -0.1232 -0.0796
 6537TIP3   OH241101   1.265   5.757   0.052  0.1093  0.3735  1.0694
 6537TIP3    H141102   1.227   5.729  -0.031  0.6847 -1.1976  1.2994
 6537TIP3    H241103   1.349   5.796   0.028 -0.3204  1.1792  0.8223
 6538TIP3   OH241104   0.336   2.083  14.067  0.3009 -0.2041 -0.0332
 6538TIP3    H141105   0.310   2.122  13.984  1.6750 -0.7964 -0.7849
 6538TIP3    H241106   0.263   2.100  14.127 -0.3046  1.0443 -1.0968
 6539TIP3   OH241107   3.360   0.012   5.387  0.0943  0.0599  0.3131
 6539TIP3    H141108   3.312   0.006   5.469 -0.3179 -2.4650 -0.0305
 6539TIP3    H241109   3.452  -0.002   5.411  0.0738  0.1827  0.4577
 6540TIP3   OH241110   6.541   0.727   1.691  0.2582 -0.0466  0.1194
 6540TIP3    H141111   6.463   0.778   1.710 -0.9688 -1.0740 -1.7950
 6540TIP3    H241112   6.578   0.768   1.613  0.2136 -1.0132 -0.4311
 6541TIP3   OH241113   6.803   3.323   0.486  0.0474  0.1893  0.4550
 6541TIP3    H141114   6.725   3.296   0.534 -0.5133  0.9767  0.0097
 6541TIP3    H241115   6.775   3.323   0.394  1.5580 -2.9396 -0.1173
 6542TIP3   OH241116   1.030   6.606   2.032  0.1474 -0.4592  0.2034
 6542TIP3    H141117   1.035   6.550   1.955  3.2656  0.6007 -0.4878
 6542TIP3    H241118   1.051   6.693   2.000  0.7487  0.1531  2.1284
 6543TIP3   OH241119   5.240   0.555  12.513  0.4707 -0.4023 -0.0234
 6543TIP3    H141120   5.254   0.548  12.607 -0.0820 -0.7756  0.0388
 6543TIP3    H241121   5.174   0.624  12.503  0.5399 -0.3516 -0.1375
 6544TIP3   OH241122   5.248   1.593   2.769 -0.6736 -0.4069 -0.1406
 6544TIP3    H141123   5.258   1.678   2.726 -2.8817  0.1684  0.3373
 6544TIP3    H241124   5.245   1.613   2.862  0.4934 -1.2384  0.1000
 6545TIP3   OH241125   2.430   1.008  13.748  0.3039 -0.0898  0.4924
 6545TIP3    H141126   2.435   0.944  13.677  1.1880 -0.2817  0.7219
 6545TIP3    H241127   2.368   0.970  13.810 -1.8804  0.8845 -0.9579
 6546TIP3   OH241128   4.269   2.646   6.727 -0.3633  0.3626  0.0231
 6546TIP3    H141129   4.352   2.677   6.690  0.2367  0.1657  1.1528
 6546TIP3    H241130   4.273   2.551   6.718 -0.3887  0.3415  0.2446
 6547TIP3   OH241131   3.969   3.487   5.181  0.2001 -0.1559 -0.4093
 6547TIP3    H141132   4.031   3.472   5.253  1.1366  0.9701 -0.9692
 6547TIP3    H241133   3.937   3.399   5.159 -0.2235 -0.5285  1.4593
 6548TIP3   OH241134   6.267   5.883  11.964  0.3891 -0.6103  0.7601
 6548TIP3    H141135   6.264   5.930  11.880  1.2161  1.1523  1.6554
 6548TIP3    H241136   6.317   5.804  11.945  0.1914 -0.4444 -0.5142
 6549TIP3   OH241137   1.978   1.736   5.823  0.1400 -0.2728  0.3664
 6549TIP3    H141138   1.919   1.783   5.883 -2.4595 -0.5012 -1.8257
 6549TIP3    H241139   1.998   1.655   5.869 -1.5232 -0.3072  1.1328
 6550TIP3   OH241140   5.991   2.823   2.983 -0.9961 -0.1498  0.4039
 6550TIP3    H141141   5.942   2.895   2.945 -0.9131 -1.1519 -1.7464
 6550TIP3    H241142   6.078   2.859   2.999 -1.6185  0.8787  1.7356
 6551TIP3   OH241143   5.588   6.145  14.165  0.1970 -0.3490  0.2572
 6551TIP3    H141144   5.678   6.137  14.134  1.0503 -0.3855  2.5799
 6551TIP3    H241145   5.589   6.222  14.222 -1.6971  0.7138 -1.0496
 6552TIP3   OH241146   5.095   1.197   5.745 -0.6269  0.4468 -0.0567
 6552TIP3    H141147   5.118   1.183   5.653  0.2465 -1.4813  0.4008
 6552TIP3    H241148   5.033   1.127   5.766  1.5629 -1.1995  1.5648
 6553TIP3   OH241149   2.906   0.369   3.703 -0.5566  0.5827  0.6475
 6553TIP3    H141150   2.978   0.319   3.741 -0.2780  1.8832  1.9278
 6553TIP3    H241151   2.837   0.304   3.688  0.1827 -0.3590  1.2287
 6554TIP3   OH241152   0.782   4.883   1.756  0.4747 -0.1601 -1.0372
 6554TIP3    H141153   0.785   4.811   1.819  1.5890  0.8495  0.1302
 6554TIP3    H241154   0.874   4.909   1.745  0.0600  1.4990 -0.9083
 6555TIP3   OH241155   3.981   3.137  12.300  0.1646  0.2573  0.3003
 6555TIP3    H141156   3.888   3.153  12.315  0.3627  0.5033  1.3293
 6555TIP3    H241157   4.025   3.216  12.334  0.8387 -0.4603  1.1261
 6556TIP3   OH241158   0.478   0.621   0.807 -0.1492  0.8633 -0.3245
 6556TIP3    H141159   0.500   0.528   0.812  1.0896  1.2011  1.0332
 6556TIP3    H241160   0.386   0.625   0.834 -0.7554 -0.1085 -2.0398
 6557TIP3   OH241161   3.728   3.940  12.854 -0.0533 -0.0894 -0.7356
 6557TIP3    H141162   3.756   4.031  12.848  4.1782 -1.1600 -0.7649
 6557TIP3    H241163   3.764   3.899  12.775  0.9195 -2.3255  0.7733
 6558TIP3   OH241164   2.158   3.926   0.964  0.1416  0.1234  0.0241
 6558TIP3    H141165   2.193   3.897   0.880  0.1722 -0.7665  0.3279
 6558TIP3    H241166   2.209   4.004   0.985  2.3889 -1.4021  0.6780
 6559TIP3   OH241167   1.439   0.810  16.322 -0.1581 -0.0772  0.0950
 6559TIP3    H141168   1.477   0.818  16.409 -0.9692  0.4444  0.4152
 6559TIP3    H241169   1.447   0.897  16.284 -1.2883  0.1349  0.2934
 6560TIP3   OH241170   4.129   4.129  13.913 -0.2053 -0.5167 -0.5450
 6560TIP3    H141171   4.179   4.048  13.898 -1.2414 -1.1735 -0.5876
 6560TIP3    H241172   4.074   4.138  13.835  0.7754  0.9299 -1.1135
 6561TIP3   OH241173   2.447   4.350  11.751  0.3036 -0.2672  0.4082
 6561TIP3    H141174   2.409   4.290  11.816  1.1766 -1.4331 -0.1240
 6561TIP3    H241175   2.414   4.318  11.667 -0.0379  0.6385  0.1834
 6562TIP3   OH241176   2.145   6.317  14.845  0.0968  0.2264 -0.6756
 6562TIP3    H141177   2.159   6.251  14.777  1.6701  0.6959 -0.8532
 6562TIP3    H241178   2.139   6.400  14.797 -0.7991  0.3340 -0.3818
 6563TIP3   OH241179   3.815   2.474  12.732 -0.1313  0.2631  0.3381
 6563TIP3    H141180   3.851   2.391  12.700  0.8689  0.3660  1.1743
 6563TIP3    H241181   3.874   2.501  12.802 -0.5644  1.5895  0.2149
 6564TIP3   OH241182   2.713   6.063   0.513 -0.0172 -0.0728  0.1857
 6564TIP3    H141183   2.795   6.073   0.464 -1.2194  1.8529 -1.5911
 6564TIP3    H241184   2.672   5.985   0.476  0.7346 -0.7498  0.7347
 6565TIP3   OH241185   4.960   2.797   5.045 -0.8150 -0.6833  0.2193
 6565TIP3    H141186   4.882   2.741   5.046 -1.2941 -0.0300  1.0962
 6565TIP3    H241187   4.989   2.800   5.136 -0.1107 -0.4343 -0.0075
 6566TIP3   OH241188   3.519   2.303  11.128 -0.0926 -0.2870  0.6582
 6566TIP3    H141189   3.549   2.392  11.111 -0.3229 -0.2445  0.4761
 6566TIP3    H241190   3.472   2.278  11.049 -0.9807 -0.1677  1.1283
 6567TIP3   OH241191   3.373   4.207  12.349  0.3600 -0.1878  0.5244
 6567TIP3    H141192   3.328   4.284  12.316 -0.2589 -0.9745 -0.5486
 6567TIP3    H241193   3.413   4.167  12.271  1.2197 -0.5984  1.1533
 6568TIP3   OH241194   5.372   4.194   6.782  0.2188  0.0419 -0.3048
 6568TIP3    H141195   5.402   4.189   6.872  0.0296  1.6931 -0.1118
 6568TIP3    H241196   5.310   4.267   6.781 -1.2835 -1.1711 -1.3779
 6569TIP3   OH241197   0.135   1.692   3.369  0.4501 -0.4999  0.0687
 6569TIP3    H141198   0.103   1.777   3.337  0.7607 -0.6706 -0.7217
 6569TIP3    H241199   0.164   1.710   3.458 -0.1712  0.0561  0.1674
 6570TIP3   OH241200   6.334   4.685   1.316 -0.0888 -0.4349  0.2914
 6570TIP3    H141201   6.362   4.705   1.227  0.3184 -0.8383  0.3260
 6570TIP3    H241202   6.389   4.740   1.371 -0.0769 -0.4672  0.3117
 6571TIP3   OH241203   6.568   0.852  15.615 -0.4136 -0.1683 -0.0346
 6571TIP3    H141204   6.631   0.792  15.653 -0.3999  0.2046  0.5411
 6571TIP3    H241205   6.611   0.885  15.535  0.7306  1.1517  1.0704
 6572TIP3   OH241206   4.372   6.049  13.458  0.2509  0.4642  0.2988
 6572TIP3    H141207   4.291   6.008  13.489  0.1659  0.7332  0.4327
 6572TIP3    H241208   4.380   6.129  13.509  1.2066 -0.1280  1.1093
 6573TIP3   OH241209   2.372   6.770   4.754  0.4625  0.3125  0.2943
 6573TIP3    H141210   2.365   6.692   4.809  1.3375 -0.7539 -1.0498
 6573TIP3    H241211   2.465   6.774   4.731  0.1812  0.9481 -0.7890
 6574TIP3   OH241212   0.378   2.554   1.608 -0.0723 -0.0336 -0.2443
 6574TIP3    H141213   0.419   2.472   1.634 -0.1280  0.2605  0.8356
 6574TIP3    H241214   0.286   2.544   1.634 -0.0881  0.3536 -0.1449
 6575TIP3   OH241215   0.913   0.252   1.398 -0.4829 -0.1786  0.5316
 6575TIP3    H141216   0.862   0.172   1.383 -2.1293  1.0133 -0.6280
 6575TIP3    H241217   0.862   0.302   1.461  0.1048  0.3398  0.6090
 6576TIP3   OH241218   1.285   3.797  11.653 -0.1359  0.4261 -0.1603
 6576TIP3    H141219   1.347   3.834  11.590 -0.3438 -0.2455 -0.7859
 6576TIP3    H241220   1.199   3.811  11.613 -0.2066 -0.9361 -0.5583
 6577TIP3   OH241221   0.436   1.036  13.154 -0.5442  0.3189  0.5041
 6577TIP3    H141222   0.422   0.999  13.067 -2.1697  0.1695  0.8109
 6577TIP3    H241223   0.509   0.984  13.190  1.6046  1.7433 -1.5072
 6578TIP3   OH241224   3.272   0.293  16.937  0.6479  0.9929 -0.1715
 6578TIP3    H141225   3.269   0.212  16.886  1.0466  0.2171  0.9721
 6578TIP3    H241226   3.327   0.352  16.887  1.0102  0.2641 -0.6397
 6579TIP3   OH241227   1.810   5.331   4.064 -0.1352  0.1790  0.2376
 6579TIP3    H141228   1.854   5.246   4.076  0.5559  0.3746 -0.7088
 6579TIP3    H241229   1.725   5.320   4.105 -0.1625 -1.0707 -0.1008
 6580TIP3   OH241230   3.506   0.795   0.584 -0.2498  0.2849 -0.0404
 6580TIP3    H141231   3.515   0.708   0.624 -1.4181  0.6463  1.0952
 6580TIP3    H241232   3.575   0.848   0.625  0.5078 -0.1102 -0.7843
 6581TIP3   OH241233   6.258   3.784  13.621  0.0510 -0.3158  0.1726
 6581TIP3    H141234   6.247   3.689  13.616  1.5509 -0.4857 -0.7043
 6581TIP3    H241235   6.324   3.804  13.554 -1.1388  1.5215 -0.5461
 6582TIP3   OH241236   6.822   0.191   1.334  0.0094  0.3650  0.1657
 6582TIP3    H141237   6.824   0.133   1.410 -1.7375  1.5530  1.2025
 6582TIP3    H241238   6.914   0.210   1.315  0.5499 -1.5102  0.7317
 6583TIP3   OH241239   2.598   5.149   2.476 -0.3961  0.3205  0.3504
 6583TIP3    H141240   2.519   5.103   2.450 -0.4001  1.3808 -1.6885
 6583TIP3    H241241   2.664   5.080   2.485 -1.3277 -0.4835  1.3296
 6584TIP3   OH241242   3.961   5.358   3.755 -0.4502  0.3172 -1.0964
 6584TIP3    H141243   3.923   5.304   3.824 -0.5739  0.2544 -1.2121
 6584TIP3    H241244   3.902   5.346   3.681  0.0887 -0.2148 -1.4540
 6585TIP3   OH241245   3.140   1.649  12.754 -0.0564  0.1653  0.5220
 6585TIP3    H141246   3.047   1.640  12.734  0.1972 -0.5509 -0.3900
 6585TIP3    H241247   3.144   1.651  12.850 -1.0443  0.6652  0.5638
 6586TIP3   OH241248   3.850   0.101  13.547 -0.2766  0.2122 -0.2582
 6586TIP3    H141249   3.785   0.125  13.614 -0.0410 -1.3785  0.5724
 6586TIP3    H241250   3.916   0.171  13.552  0.6159 -0.7072  2.4001
 6587TIP3   OH241251   0.892   4.812  12.759  0.1393  0.1425  0.0133
 6587TIP3    H141252   0.940   4.888  12.727  0.8266 -0.4633 -0.4234
 6587TIP3    H241253   0.931   4.793  12.844 -0.3187  0.5225  0.3160
 6588TIP3   OH241254   3.117   1.777   1.099 -0.0745  0.1752  0.3787
 6588TIP3    H141255   3.169   1.811   1.172  1.4908 -0.1174 -0.5559
 6588TIP3    H241256   3.066   1.852   1.069 -1.5149  0.0520  2.3765
 6589TIP3   OH241257   0.753   3.917  12.865  0.1447 -0.4567 -0.1593
 6589TIP3    H141258   0.818   3.982  12.892  0.1550 -0.2147 -0.7406
 6589TIP3    H241259   0.704   3.961  12.796 -0.4217 -0.7583  0.0496
 6590TIP3   OH241260   4.125   2.980   5.597 -0.3041  0.0854 -0.6477
 6590TIP3    H141261   4.125   2.909   5.532 -1.4061 -0.2372 -0.3159
 6590TIP3    H241262   4.034   2.986   5.626 -0.1843  1.5174 -0.5174
 6591TIP3   OH241263   2.220   2.872   3.575  0.1102 -0.2715 -0.2338
 6591TIP3    H141264   2.167   2.902   3.649 -0.5341 -1.1787 -0.2970
 6591TIP3    H241265   2.228   2.948   3.518  0.4129  0.3764  0.6481
 6592TIP3   OH241266   6.507   0.860   0.125  0.1112  0.3846 -0.1687
 6592TIP3    H141267   6.456   0.786   0.159 -1.0504  0.3049 -1.9701
 6592TIP3    H241268   6.597   0.826   0.121  0.0610 -0.0417  1.4115
 6593TIP3   OH241269   3.328   2.941   1.042  0.1770 -0.6024 -0.8363
 6593TIP3    H141270   3.391   2.946   1.114 -1.0617 -1.2888  0.3394
 6593TIP3    H241271   3.278   3.022   1.047 -0.0277 -0.7300 -0.8225
 6594TIP3   OH241272   2.484   1.336   3.241  0.1266  0.1910  0.2209
 6594TIP3    H141273   2.437   1.267   3.287 -0.5189 -0.8013 -1.8098
 6594TIP3    H241274   2.573   1.333   3.277  0.6282 -2.9426 -1.0337
 6595TIP3   OH241275   4.542   5.395   0.339  0.1417  0.3462  0.8173
 6595TIP3    H141276   4.536   5.300   0.352  2.3998  0.1400  0.6853
 6595TIP3    H241277   4.581   5.405   0.252  0.3153  1.3875  1.0015
 6596TIP3   OH241278   3.523   5.424   3.793 -0.5808  0.3111 -0.4081
 6596TIP3    H141279   3.437   5.389   3.815 -1.3036  0.9748 -2.0268
 6596TIP3    H241280   3.569   5.429   3.877 -1.0420 -2.7527  0.1559
 6597TIP3   OH241281   1.082   2.484   2.097 -0.0160  0.2975 -0.3199
 6597TIP3    H141282   1.110   2.496   2.007  3.1004  0.5550  0.5835
 6597TIP3    H241283   1.042   2.568   2.121  1.3459  1.1106 -0.7713
 6598TIP3   OH241284   3.756   1.541   4.839  0.4360  0.2703  0.3590
 6598TIP3    H141285   3.789   1.492   4.764 -0.2331 -5.0731  3.0700
 6598TIP3    H241286   3.826   1.603   4.861  2.1036 -0.4391 -2.5493
 6599TIP3   OH241287   3.456   5.423   1.836 -0.1892 -0.3604 -0.2998
 6599TIP3    H141288   3.456   5.516   1.860  0.9047 -0.3064 -0.4634
 6599TIP3    H241289   3.542   5.408   1.796 -1.1274 -0.9645 -2.1937
 6600TIP3   OH241290   5.809   2.650   6.141 -0.0384  0.1409 -0.2142
 6600TIP3    H141291   5.799   2.705   6.219 -1.0484  0.9220 -0.8701
 6600TIP3    H241292   5.777   2.564   6.169  1.3487 -0.0955  0.7536
 6601TIP3   OH241293   5.698   5.777   6.284  0.0608  0.1942 -0.1788
 6601TIP3    H141294   5.607   5.806   6.288 -0.4016 -1.1786 -0.0417
 6601TIP3    H241295   5.693   5.687   6.251  1.4233  0.3091 -0.7684
 6602TIP3   OH241296   0.164   1.655  13.945 -0.1859 -0.2476  0.2236
 6602TIP3    H141297   0.147   1.602  14.023  1.4537 -1.6600 -0.3192
 6602TIP3    H241298   0.141   1.597  13.872  0.2441  0.3303 -0.3709
 6603TIP3   OH241299   6.088   5.842  10.354  0.2349  0.1996  0.4801
 6603TIP3    H141300   6.044   5.872  10.434 -0.7255  0.0413  0.0245
 6603TIP3    H241301   6.157   5.783  10.385  0.7812  1.2069  1.2648
 6604TIP3   OH241302   1.536   2.230   3.303  0.4523  0.1895  0.1712
 6604TIP3    H141303   1.468   2.163   3.312  2.3411 -2.4115 -2.7308
 6604TIP3    H241304   1.488   2.309   3.279 -1.6550 -1.6215 -2.1264
 6605TIP3   OH241305   3.835   5.834  15.606 -0.0095  0.2371 -0.3558
 6605TIP3    H141306   3.761   5.884  15.641  0.8583 -0.0387  2.0871
 6605TIP3    H241307   3.859   5.879  15.525 -1.7939  1.3037 -0.3316
 6606TIP3   OH241308   0.021   1.282   5.385 -0.8086 -0.2258 -0.4906
 6606TIP3    H141309   0.071   1.202   5.365 -1.0505  0.0313 -2.2432
 6606TIP3    H241310   0.055   1.311   5.470  1.8505 -0.2013 -1.4882
 6607TIP3   OH241311   2.242   4.048   2.771  0.2582  0.4080  0.1275
 6607TIP3    H141312   2.328   4.065   2.808  0.3383 -1.0417  0.6757
 6607TIP3    H241313   2.230   3.953   2.780 -0.7830  0.3684 -1.2779
 6608TIP3   OH241314   1.332   1.228   0.469  0.1828  0.2757  0.5457
 6608TIP3    H141315   1.367   1.157   0.415  0.3184  0.3008  0.6000
 6608TIP3    H241316   1.323   1.302   0.408  0.1984  0.2605  0.5250
 6609TIP3   OH241317   6.670   6.804   5.180 -0.0993  0.2080 -0.2681
 6609TIP3    H141318   6.602   6.859   5.142 -1.5974 -1.4213 -0.0572
 6609TIP3    H241319   6.728   6.784   5.107 -0.6132  0.4803 -0.7620
 6610TIP3   OH241320   2.532   5.432   4.166 -0.1328 -0.0440 -0.3209
 6610TIP3    H141321   2.544   5.337   4.163 -1.8528 -0.2900 -0.5837
 6610TIP3    H241322   2.550   5.461   4.077  2.5774  0.2376  0.2283
 6611TIP3   OH241323   1.167   5.650   6.164 -0.3460 -0.0186 -0.0772
 6611TIP3    H141324   1.102   5.702   6.116 -1.4119 -1.5896 -0.4293
 6611TIP3    H241325   1.251   5.683   6.134 -0.9407  1.8281  0.1019
 6612TIP3   OH241326   6.632   3.261   0.685 -0.5315  0.1639 -0.5841
 6612TIP3    H141327   6.596   3.313   0.756 -2.4816 -0.3432 -1.1547
 6612TIP3    H241328   6.642   3.173   0.722 -1.7973 -0.1628 -0.9854
 6613TIP3   OH241329   0.329   6.055  16.931 -0.2545  0.0553  0.1475
 6613TIP3    H141330   0.415   6.051  16.974 -0.1609  1.2801  0.1270
 6613TIP3    H241331   0.271   6.093  16.997 -0.3221  1.0616 -0.4671
 6614TIP3   OH241332   0.854   1.503   4.309 -0.4234 -0.7382  0.8128
 6614TIP3    H141333   0.919   1.466   4.249 -0.3465 -1.1283  1.1341
 6614TIP3    H241334   0.897   1.500   4.395 -0.6320 -0.4212  0.9303
 6615TIP3   OH241335   4.745   4.207  13.322  0.0497 -0.3890 -0.0010
 6615TIP3    H141336   4.758   4.274  13.256  0.7652 -0.4017  0.1231
 6615TIP3    H241337   4.822   4.213  13.379  0.3260 -1.5775 -0.2155
 6616TIP3   OH241338   1.347   3.568   2.866  0.5709 -0.4156  0.0422
 6616TIP3    H141339   1.419   3.627   2.887  1.0935 -0.3478 -1.7661
 6616TIP3    H241340   1.374   3.524   2.785 -0.8105 -1.4327  0.0858
 6617TIP3   OH241341   6.315   6.306   2.430  0.0148 -0.4944 -0.1685
 6617TIP3    H141342   6.354   6.370   2.370  0.8543 -1.2449 -0.4452
 6617TIP3    H241343   6.382   6.291   2.497 -0.4241 -0.6080  0.2537
 6618TIP3   OH241344   5.557   3.676   0.889 -0.3048  0.2068 -0.2437
 6618TIP3    H141345   5.468   3.706   0.870  0.0775  1.6978  0.1834
 6618TIP3    H241346   5.567   3.595   0.839 -1.6248  0.4587 -0.9357
 6619TIP3   OH241347   4.406   1.146   2.131 -0.0873 -0.4771  0.5172
 6619TIP3    H141348   4.393   1.175   2.221 -0.9756 -1.7308  0.8243
 6619TIP3    H241349   4.363   1.060   2.127 -1.4711  0.2332 -1.5021
 6620TIP3   OH241350   5.439   6.503   0.921  0.0318  0.4484 -0.9260
 6620TIP3    H141351   5.517   6.517   0.974 -1.5767  0.1537  1.6869
 6620TIP3    H241352   5.415   6.591   0.891  0.3491  0.7892 -0.2097
 6621TIP3   OH241353   4.662   0.213  15.150  0.3208  0.4497  0.3218
 6621TIP3    H141354   4.623   0.222  15.063 -0.5552  3.9963  0.9223
 6621TIP3    H241355   4.587   0.211  15.209  0.9171 -1.6065  1.1186
 6622TIP3   OH241356   2.297   5.995   4.320 -0.1237  0.3461  0.0396
 6622TIP3    H141357   2.276   5.906   4.291 -2.5506  0.9758 -0.3178
 6622TIP3    H241358   2.364   5.983   4.387 -1.0466 -1.8268  0.6469
 6623TIP3   OH241359   0.454   1.230   6.267 -0.0381 -0.1219  0.2151
 6623TIP3    H141360   0.433   1.220   6.360  1.7926  0.3406  0.7192
 6623TIP3    H241361   0.372   1.211   6.222 -0.8443 -0.8504  1.8923
 6624TIP3   OH241362   1.465   3.005   5.244 -0.6128 -0.5154 -1.4931
 6624TIP3    H141363   1.404   3.001   5.170 -1.6144 -0.8978 -0.6704
 6624TIP3    H241364   1.510   3.089   5.233 -1.7822  0.1004 -1.7404
 6625TIP3   OH241365   6.569   3.945   5.609  0.2584  0.2705 -0.6802
 6625TIP3    H141366   6.541   3.973   5.522  0.5100 -0.7877 -1.1193
 6625TIP3    H241367   6.500   3.885   5.638  1.2481 -1.1511 -1.1249
 6626TIP3   OH241368   5.242   3.394   5.156 -0.0379 -0.4873 -0.0532
 6626TIP3    H141369   5.294   3.350   5.089  1.2293  1.3711 -0.3604
 6626TIP3    H241370   5.198   3.465   5.110 -0.5875 -0.2913  0.7556
 6627TIP3   OH241371   1.881   1.976  14.045 -0.0475 -0.2238 -0.4432
 6627TIP3    H141372   1.812   2.042  14.055 -1.2982 -1.6433  0.8676
 6627TIP3    H241373   1.837   1.903  14.002  1.3004 -0.2620 -1.8250
 6628TIP3   OH241374   6.709   3.126   4.854 -0.8878  0.2988 -0.4570
 6628TIP3    H141375   6.670   3.044   4.824 -0.0885 -0.0617 -0.5403
 6628TIP3    H241376   6.653   3.194   4.818 -1.2574 -0.1963 -0.8277
 6629TIP3   OH241377   2.080   6.082   4.181 -0.8042 -0.3816 -0.9994
 6629TIP3    H141378   2.034   6.018   4.236 -1.0123 -0.4690 -1.2759
 6629TIP3    H241379   2.173   6.069   4.203 -0.9118 -0.0990 -0.3296
 6630TIP3   OH241380   3.870   5.173  12.094 -0.4933  0.3438  0.3857
 6630TIP3    H141381   3.789   5.147  12.049  0.0837  0.1997 -0.5944
 6630TIP3    H241382   3.844   5.183  12.186 -1.5011 -0.2584  0.1854
 6631TIP3   OH241383   3.299   4.388  12.168 -0.6357  0.0031 -0.2375
 6631TIP3    H141384   3.376   4.368  12.116  1.0547  2.3397  1.1532
 6631TIP3    H241385   3.242   4.436  12.108 -0.2483 -0.2625 -0.8269
 6632TIP3   OH241386   1.042   0.249  12.739  0.1208  0.2019  0.6784
 6632TIP3    H141387   0.976   0.196  12.783  0.3159 -0.9742 -0.3883
 6632TIP3    H241388   1.057   0.205  12.655  0.2193  2.0173 -0.3121
 6633TIP3   OH241389   5.166   6.567  10.459  0.0344  0.6610  0.4303
 6633TIP3    H141390   5.071   6.560  10.453  0.1340 -1.5314  0.4295
 6633TIP3    H241391   5.194   6.597  10.372 -0.6286  0.6521  0.2102
 6634TIP3   OH241392   5.143   1.101  14.279 -0.1357 -0.0703  0.3597
 6634TIP3    H141393   5.100   1.076  14.360  1.3057 -1.3974  0.7651
 6634TIP3    H241394   5.225   1.052  14.279 -0.4110 -0.7061 -2.2416
 6635TIP3   OH241395   0.049   2.849  15.878  0.1363  0.2390 -0.0007
 6635TIP3    H141396   0.134   2.873  15.841  0.4322  0.2945  0.7061
 6635TIP3    H241397  -0.007   2.925  15.859  1.1062  1.6718  2.3511
 6636TIP3   OH241398   1.090   0.000  14.223  0.0938 -0.2892 -0.6255
 6636TIP3    H141399   1.002   0.014  14.188  0.6985  0.9220 -1.7906
 6636TIP3    H241400   1.137  -0.045  14.152  1.0233  1.1568 -0.9828
 6637TIP3   OH241401   1.238   2.599  11.543  0.1187 -0.2931  0.0860
 6637TIP3    H141402   1.194   2.582  11.460 -0.2021  2.6278 -0.4331
 6637TIP3    H241403   1.173   2.645  11.596  0.9474 -0.4023  1.2436
 6638TIP3   OH241404   4.897   6.523   5.775 -0.6045 -0.0224  0.5832
 6638TIP3    H141405   4.842   6.476   5.838 -0.8115 -0.1083  0.3413
 6638TIP3    H241406   4.856   6.608   5.765 -1.0465 -0.2961 -0.0497
 6639TIP3   OH241407   3.857   3.670  11.624 -0.3533  0.0892 -0.2767
 6639TIP3    H141408   3.924   3.690  11.558 -0.4229  0.5546 -0.2138
 6639TIP3    H241409   3.907   3.644  11.702 -0.2677 -0.3305 -0.4721
 6640TIP3   OH241410   5.628   1.952   5.107  0.1937  0.4924 -0.8457
 6640TIP3    H141411   5.597   1.929   5.019  0.4444  2.3549 -1.4706
 6640TIP3    H241412   5.719   1.978   5.094 -0.4473  3.1675 -0.5275
 6641TIP3   OH241413   6.189   5.156  17.110 -0.0124  0.4561 -0.5756
 6641TIP3    H141414   6.235   5.177  17.029  1.6066 -0.2047  0.1258
 6641TIP3    H241415   6.203   5.062  17.122  0.1906  0.6279  0.6972
 6642TIP3   OH241416   0.211   0.962  15.672  0.0946  0.1114 -0.2439
 6642TIP3    H141417   0.147   1.033  15.672  0.1366  0.1793  1.1172
 6642TIP3    H241418   0.287   0.999  15.718  0.0144 -0.8863  0.7339
 6643TIP3   OH241419   2.261   2.276   3.369  0.0386  0.4753 -0.1053
 6643TIP3    H141420   2.340   2.248   3.415 -1.2713 -0.3511  1.7780
 6643TIP3    H241421   2.197   2.208   3.388 -2.2601  2.9343  1.6943
 6644TIP3   OH241422   0.465   6.772   0.505 -0.0431 -0.0241  0.1439
 6644TIP3    H141423   0.559   6.791   0.506 -0.1096  0.3792 -0.5402
 6644TIP3    H241424   0.456   6.688   0.550  0.5599  0.3017  0.8930
 6645TIP3   OH241425   1.981   5.580   4.524  0.0759  1.0747  0.2689
 6645TIP3    H141426   1.900   5.562   4.476 -1.4684  4.0789  1.4646
 6645TIP3    H241427   1.976   5.674   4.544  2.2813  0.6804  3.2629
 6646TIP3   OH241428   2.049   1.997   5.496  0.4843  0.1740  0.0526
 6646TIP3    H141429   2.039   1.907   5.466 -1.5909  1.0043 -2.0626
 6646TIP3    H241430   2.036   1.992   5.591  1.1323 -1.8029  0.0846
 6647TIP3   OH241431   5.564   2.642   0.390  0.3571  0.2813 -0.1144
 6647TIP3    H141432   5.538   2.723   0.345  0.2455  0.4695  0.2737
 6647TIP3    H241433   5.505   2.575   0.355  1.6142 -0.0290 -1.7492
 6648TIP3   OH241434   2.934   1.774  16.045  0.1446  0.6977  0.3339
 6648TIP3    H141435   2.844   1.744  16.051  0.4577 -0.4643 -0.4462
 6648TIP3    H241436   2.933   1.862  16.083 -1.3903  0.8767 -0.0738
 6649TIP3   OH241437   1.629   0.519  14.291 -0.7873  0.1195 -0.1039
 6649TIP3    H141438   1.632   0.423  14.292 -0.2475  0.1260 -0.6479
 6649TIP3    H241439   1.539   0.539  14.264 -1.4186 -0.2043  1.6247
 6650TIP3   OH241440   3.986   3.561   4.505  0.3104  0.4255 -0.3960
 6650TIP3    H141441   4.071   3.593   4.538 -1.0691  0.8651  3.1592
 6650TIP3    H241442   3.987   3.467   4.523  0.0498  0.4127 -0.4448
 6651TIP3   OH241443   6.603   6.709   4.663  0.0230 -0.5876 -0.1223
 6651TIP3    H141444   6.626   6.765   4.588  1.2020 -2.5518 -1.3161
 6651TIP3    H241445   6.508   6.703   4.661 -0.0367  0.3687 -0.7189
 6652TIP3   OH241446   3.853   6.217   3.277  0.7998  0.4573 -0.0659
 6652TIP3    H141447   3.785   6.195   3.213  1.2048 -1.8129  0.1973
 6652TIP3    H241448   3.819   6.295   3.321 -1.5957 -0.4962 -0.0544
 6653TIP3   OH241449   0.262   1.855   4.332 -0.4380 -0.3152  0.0808
 6653TIP3    H141450   0.291   1.888   4.247 -0.8165 -0.9486 -0.3109
 6653TIP3    H241451   0.286   1.762   4.331  0.2616 -0.1542  0.9946
 6654TIP3   OH241452   2.546   5.498   1.470 -0.1657 -0.0141  0.1825
 6654TIP3    H141453   2.576   5.412   1.440  1.1860  0.8260 -0.9954
 6654TIP3    H241454   2.592   5.512   1.553 -0.6470 -0.5458  0.5497
 6655TIP3   OH241455   1.113   3.848  15.957  0.4657  0.7245 -0.0073
 6655TIP3    H141456   1.155   3.859  16.043 -0.2526  0.6873  0.3581
 6655TIP3    H241457   1.040   3.788  15.974 -1.5892  3.0653  0.0329
 6656TIP3   OH241458   0.752   2.395   4.925  0.7002 -0.0619  0.7904
 6656TIP3    H141459   0.658   2.385   4.941  0.3221 -0.0546 -1.2634
 6656TIP3    H241460   0.776   2.471   4.978 -0.9309  1.3064 -0.3183
 6657TIP3   OH241461   5.480   4.562  16.176  0.1527  0.1220  0.3763
 6657TIP3    H141462   5.567   4.600  16.168 -0.1612  0.9195  0.6578
 6657TIP3    H241463   5.455   4.577  16.267 -1.0305  1.6056 -0.1531
 6658TIP3   OH241464   6.134   4.188  12.956  0.2987  0.6794  0.3012
 6658TIP3    H141465   6.118   4.195  13.050  1.0523 -0.0307  0.4899
 6658TIP3    H241466   6.223   4.220  12.944  0.0654  1.1451 -0.2334
 6659TIP3   OH241467   6.777   5.216  16.446 -0.2792  0.2336  0.6832
 6659TIP3    H141468   6.802   5.130  16.411 -1.7959  0.8494 -2.1612
 6659TIP3    H241469   6.860   5.261  16.460  0.4920 -0.3908 -1.4352
 6660TIP3   OH241470   0.185   1.751  14.656 -0.0921 -0.2666 -0.1297
 6660TIP3    H141471   0.231   1.677  14.618  0.2098 -0.8371  1.2964
 6660TIP3    H241472   0.158   1.722  14.743 -0.4171  1.1144  0.2696
 6661TIP3   OH241473   4.080   2.100  13.095  0.1673  0.0161  0.6137
 6661TIP3    H141474   4.121   2.105  13.009 -0.0151  0.3506  0.5422
 6661TIP3    H241475   4.095   2.186  13.134 -0.7825  0.2763  0.4348
 6662TIP3   OH241476   1.959   4.563   5.000  0.1566  0.3563  0.2636
 6662TIP3    H141477   1.997   4.644   5.035 -0.2040  0.1089  1.2659
 6662TIP3    H241478   2.008   4.547   4.920  0.2946  1.5224  0.0927
 6663TIP3   OH241479   3.530   2.473   1.897  0.5806  0.0919 -0.2051
 6663TIP3    H141480   3.593   2.519   1.841  1.7522 -0.1889  0.8455
 6663TIP3    H241481   3.479   2.542   1.938  1.4489  0.4135  0.3478
 6664TIP3   OH241482   2.052   2.176   0.716  0.1180 -0.1665  0.4038
 6664TIP3    H141483   2.122   2.206   0.659 -0.7726 -1.7366 -1.6478
 6664TIP3    H241484   2.076   2.085   0.737  0.4748  0.3981  2.6791
 6665TIP3   OH241485   1.732   3.484   0.705 -0.6194 -0.5685 -0.3544
 6665TIP3    H141486   1.731   3.515   0.614 -0.2914 -1.5750 -0.7108
 6665TIP3    H241487   1.713   3.390   0.699 -0.2152 -0.7200  0.5879
 6666TIP3   OH241488   4.449   6.154  14.036 -0.3258 -0.4627 -0.0381
 6666TIP3    H141489   4.458   6.244  14.066  0.7245 -0.7561  0.5721
 6666TIP3    H241490   4.486   6.155  13.948 -0.3352 -0.3021 -0.0413
 6667TIP3   OH241491   4.547   6.540  10.750  0.0031 -0.1204  0.4380
 6667TIP3    H141492   4.513   6.529  10.661  0.9477 -0.8898  0.1508
 6667TIP3    H241493   4.498   6.476  10.802  0.2010 -0.4355  0.2452
 6668TIP3   OH241494   1.424   3.374   3.824  0.0034 -0.4262 -0.6487
 6668TIP3    H141495   1.436   3.279   3.818  3.1627 -0.1003 -0.8084
 6668TIP3    H241496   1.420   3.404   3.733 -0.3113 -0.3313 -0.6053
 6669TIP3   OH241497   5.264   0.041   4.839  0.1092 -0.3665  1.1266
 6669TIP3    H141498   5.186  -0.011   4.859 -0.1106 -1.9644 -2.8083
 6669TIP3    H241499   5.337  -0.019   4.856  0.2309 -0.1476  1.3796
 6670TIP3   OH241500   4.848   5.834  12.138  0.3478 -0.5577 -0.1710
 6670TIP3    H141501   4.795   5.911  12.157 -0.2821 -1.3837  1.7121
 6670TIP3    H241502   4.921   5.867  12.086 -1.3807  0.8015 -1.8819
 6671TIP3   OH241503   6.752   4.457   3.847 -0.0568  0.1284 -1.0174
 6671TIP3    H141504   6.816   4.406   3.797 -0.3667 -1.2172 -0.0917
 6671TIP3    H241505   6.805   4.520   3.896  0.3395  0.6503 -2.0705
 6672TIP3   OH241506   4.939   6.508  11.338  0.3755  0.2143 -0.2258
 6672TIP3    H141507   4.906   6.459  11.263 -1.4759  2.9156 -1.3474
 6672TIP3    H241508   4.885   6.587  11.340  1.7769  1.2313  2.7181
 6673TIP3   OH241509   6.432   0.800  12.735 -0.2378 -1.3759 -0.4427
 6673TIP3    H141510   6.499   0.868  12.726 -0.7998 -1.0174 -2.2402
 6673TIP3    H241511   6.481   0.721  12.758  0.5784 -0.7104  0.1862
 6674TIP3   OH241512   1.267   4.152  16.437 -0.0307  0.4305 -0.3695
 6674TIP3    H141513   1.261   4.127  16.345 -1.3185  0.8048 -0.4003
 6674TIP3    H241514   1.239   4.074  16.485 -1.8607  1.0316 -0.3960
 6675TIP3   OH241515   4.725   6.046  15.815  0.1627  0.3225 -0.3971
 6675TIP3    H141516   4.761   6.132  15.838 -0.9259  0.4865  0.7876
 6675TIP3    H241517   4.802   5.990  15.807  0.8159  0.1200  4.1931
 6676TIP3   OH241518   6.634   1.390   1.496 -0.6388 -0.5548  0.7433
 6676TIP3    H141519   6.588   1.386   1.580 -1.3677  1.4692  0.4991
 6676TIP3    H241520   6.624   1.303   1.459 -3.2827 -0.5528  1.2557
 6677TIP3   OH241521   0.491   1.667  15.730 -0.5915 -0.3419  0.6465
 6677TIP3    H141522   0.423   1.686  15.795  0.4299  0.5380  1.5025
 6677TIP3    H241523   0.478   1.734  15.663 -0.7265 -0.3275  0.6859
 6678TIP3   OH241524   2.229   1.578  11.214  0.0536 -0.1461 -0.4579
 6678TIP3    H141525   2.188   1.492  11.229  0.6213 -0.1080  1.6937
 6678TIP3    H241526   2.178   1.638  11.268  0.3321  0.6948 -1.1113
 6679TIP3   OH241527   4.540   0.356   3.615  0.4776 -0.1436 -0.5374
 6679TIP3    H141528   4.569   0.373   3.705  0.8471 -1.2125 -0.4429
 6679TIP3    H241529   4.446   0.377   3.616  0.4366 -0.3194  0.1526
 6680TIP3   OH241530   3.624   3.250   0.624  0.1071 -0.1670 -0.3715
 6680TIP3    H141531   3.561   3.316   0.596  0.3831 -0.1093 -0.8826
 6680TIP3    H241532   3.599   3.227   0.713 -0.4693  0.0511 -0.4783
 6681TIP3   OH241533   1.730   3.709   1.975  0.1433  0.3551  0.3726
 6681TIP3    H141534   1.763   3.622   1.953  1.3673  0.8440  0.2167
 6681TIP3    H241535   1.724   3.710   2.070 -1.4086 -0.4233  0.3190
 6682TIP3   OH241536   6.095   1.673   3.807 -0.6061  0.4474 -0.1890
 6682TIP3    H141537   6.125   1.721   3.884  0.3617  0.9536 -0.8590
 6682TIP3    H241538   6.028   1.728   3.767 -0.7323  0.4320  0.0037
 6683TIP3   OH241539   0.693   4.889  11.821 -0.6191  0.0798  0.2748
 6683TIP3    H141540   0.676   4.795  11.812  0.2743  0.0292 -1.3450
 6683TIP3    H241541   0.784   4.900  11.795 -0.6229  1.3689  0.7135
 6684TIP3   OH241542   0.880   2.334  15.822 -0.5014 -0.3705 -0.0871
 6684TIP3    H141543   0.901   2.242  15.807 -0.8976 -0.0733 -2.9368
 6684TIP3    H241544   0.799   2.331  15.874  0.2367 -1.5795  1.0542
 6685TIP3   OH241545   2.178   5.249  13.974 -0.4310  0.3246  0.7945
 6685TIP3    H141546   2.150   5.285  13.890  0.8239 -1.3145 -0.3851
 6685TIP3    H241547   2.129   5.168  13.984 -0.7435  0.6143  1.7810
 6686TIP3   OH241548   3.004   5.040  16.676 -0.1495 -0.2143  0.0665
 6686TIP3    H141549   3.038   5.125  16.648 -3.0939  0.9446 -0.3643
 6686TIP3    H241550   3.029   4.979  16.607 -0.2926  0.8920 -0.9785
 6687TIP3   OH241551   1.551   1.129  15.115  0.0704 -0.3524 -0.0614
 6687TIP3    H141552   1.646   1.120  15.124 -0.0230 -1.4910 -0.1105
 6687TIP3    H241553   1.515   1.093  15.196 -0.3367 -0.2723 -0.2038
 6688TIP3   OH241554   2.451   2.958   2.264 -0.0477  0.7192  0.2283
 6688TIP3    H141555   2.540   2.991   2.279 -0.2484  1.1281  0.5324
 6688TIP3    H241556   2.426   2.995   2.179  0.6679 -0.6930 -0.6295
 6689TIP3   OH241557   5.844   6.025  16.016  0.1830 -0.3623 -0.2951
 6689TIP3    H141558   5.763   6.027  15.965 -0.0566 -0.2167  0.0805
 6689TIP3    H241559   5.850   5.935  16.048  2.2947 -1.5538 -3.6222
 6690TIP3   OH241560   0.689   6.582   3.865  0.0377 -0.0314  0.0473
 6690TIP3    H141561   0.646   6.508   3.909 -1.0587 -0.1866 -1.2187
 6690TIP3    H241562   0.703   6.551   3.776  0.9618  0.7687 -0.0978
 6691TIP3   OH241563   1.783   5.729   1.519 -0.3552  0.0189 -0.4161
 6691TIP3    H141564   1.737   5.807   1.549 -0.6555  0.1272 -1.1453
 6691TIP3    H241565   1.764   5.663   1.586  0.2512  0.6746  0.4210
 6692TIP3   OH241566   2.963   3.660  15.302  0.2627 -0.1413 -0.3250
 6692TIP3    H141567   3.002   3.575  15.284  0.5216  0.1609 -1.2278
 6692TIP3    H241568   3.023   3.701  15.364  0.6790 -0.2115 -0.6770
 6693TIP3   OH241569   2.189   1.787  16.893  0.4689  0.0406  0.4581
 6693TIP3    H141570   2.138   1.763  16.971 -0.7802 -0.9705 -0.6143
 6693TIP3    H241571   2.255   1.718  16.886  0.1665 -0.2298  0.2606
 6694TIP3   OH241572   0.890   4.137  13.001 -0.5655 -0.2447 -0.1373
 6694TIP3    H141573   0.883   4.212  12.942 -0.7328 -0.4584 -0.3906
 6694TIP3    H241574   0.968   4.156  13.054 -0.3885 -0.0741 -0.4547
 6695TIP3   OH241575   1.248   1.506  12.401 -0.1508 -0.0957 -0.1998
 6695TIP3    H141576   1.184   1.473  12.464  0.0366 -1.0083 -0.4818
 6695TIP3    H241577   1.199   1.570  12.348 -0.7714 -0.6193 -0.2680
 6696TIP3   OH241578   4.791   0.249   2.536 -0.3669  0.7751 -0.3563
 6696TIP3    H141579   4.836   0.170   2.505 -0.1110  0.8284 -0.1176
 6696TIP3    H241580   4.778   0.234   2.630 -1.1240  0.6226 -0.4800
 6697TIP3   OH241581   2.007   3.237   1.890  0.8371 -0.3230  0.5867
 6697TIP3    H141582   1.976   3.204   1.806  0.9448  1.0657 -0.0188
 6697TIP3    H241583   2.080   3.294   1.868 -0.7721  2.1570  1.3517
 6698TIP3   OH241584   1.763   1.069  10.864  0.1834 -0.2379  0.1606
 6698TIP3    H141585   1.684   1.082  10.812  0.4242  1.3132  0.1480
 6698TIP3    H241586   1.760   1.137  10.931  3.0490  2.0821 -1.7788
 6699TIP3   OH241587   3.267   6.527  14.609 -0.4676 -0.5124  0.2204
 6699TIP3    H141588   3.197   6.569  14.560 -1.1092  0.8683  2.1775
 6699TIP3    H241589   3.347   6.552  14.564 -1.0913 -0.4123 -0.8617
 6700TIP3   OH241590   2.089   6.464   0.788 -0.5037 -0.2640  0.5742
 6700TIP3    H141591   2.096   6.557   0.809 -0.1200  0.2083 -1.3787
 6700TIP3    H241592   2.178   6.438   0.765 -1.0110 -0.3532 -1.5471
 6701TIP3   OH241593   5.442   2.300   0.296 -0.2378  0.2656  0.2816
 6701TIP3    H141594   5.503   2.226   0.306  1.4432  1.4358 -0.8545
 6701TIP3    H241595   5.357   2.264   0.321  0.4257 -2.2016 -0.7162
 6702TIP3   OH241596   3.586   1.214  14.016 -0.1073  0.1050  0.8320
 6702TIP3    H141597   3.561   1.278  14.083 -0.8427  1.7558 -0.9232
 6702TIP3    H241598   3.681   1.214  14.018  0.0392  3.0867 -0.6541
 6703TIP3   OH241599   4.047   3.020  13.906 -0.0138 -0.2212  0.1384
 6703TIP3    H141600   4.123   3.077  13.922  0.4987 -0.7843 -0.2812
 6703TIP3    H241601   3.983   3.049  13.971  0.6402  0.1070  0.6621
 6704TIP3   OH241602   1.403   6.737  15.463  0.2946 -0.1293 -0.0189
 6704TIP3    H141603   1.319   6.763  15.499  0.9848 -0.1386  1.6928
 6704TIP3    H241604   1.409   6.643  15.481  1.0895  0.0649  0.8287
 6705TIP3   OH241605   2.847   6.168   5.379 -0.4092 -0.1787  0.1658
 6705TIP3    H141606   2.795   6.115   5.318  0.9634 -1.0709 -0.2783
 6705TIP3    H241607   2.791   6.178   5.456 -1.9009  0.3472 -0.9301
 6706TIP3   OH241608   4.382   4.245   3.025 -0.7913  0.3393 -0.1899
 6706TIP3    H141609   4.337   4.170   3.065 -0.2004 -0.8246 -1.6372
 6706TIP3    H241610   4.475   4.228   3.042 -0.6006  0.2965 -1.2532
 6707TIP3   OH241611   5.489   4.667   6.145  0.6169 -0.1012  0.1107
 6707TIP3    H141612   5.456   4.688   6.233  1.0331 -2.3474  0.8650
 6707TIP3    H241613   5.576   4.706   6.142  0.6796 -0.1793  0.7766
 6708TIP3   OH241614   3.581   6.553  15.761  0.0130 -0.0602 -0.2869
 6708TIP3    H141615   3.512   6.553  15.828  0.4430 -0.3129  0.1674
 6708TIP3    H241616   3.535   6.571  15.679 -0.3209  1.7805  0.2630
 6709TIP3   OH241617   0.615   6.150   5.299 -0.2900  0.3567 -0.3983
 6709TIP3    H141618   0.669   6.075   5.325 -2.4396 -1.3088 -0.4627
 6709TIP3    H241619   0.666   6.194   5.231  0.7402 -1.4766 -0.8850
 6710TIP3   OH241620   0.497   1.020  14.578  0.0022 -0.2251 -0.0855
 6710TIP3    H141621   0.434   0.969  14.525  0.0153 -1.2063  0.8084
 6710TIP3    H241622   0.572   1.033  14.520  0.0586 -1.3794 -0.3017
 6711TIP3   OH241623   5.377   3.727   0.191  0.3954  0.1334  0.2717
 6711TIP3    H141624   5.337   3.734   0.104 -0.4393  2.3669  0.7712
 6711TIP3    H241625   5.402   3.635   0.198  2.6745  0.2646 -3.2786
 6712TIP3   OH241626   5.004   1.733  10.979  0.5058  0.5400  0.7992
 6712TIP3    H141627   4.950   1.812  10.983  1.1673  1.0426  0.1062
 6712TIP3    H241628   5.088   1.761  11.017  0.7250  0.1496  0.6003
 6713TIP3   OH241629   0.479   3.629  12.426 -0.5084  0.0579 -0.1519
 6713TIP3    H141630   0.524   3.674  12.498 -1.8108  0.5855  0.3666
 6713TIP3    H241631   0.498   3.681  12.349  0.6755 -0.3583 -0.1660
 6714TIP3   OH241632   0.529   0.860  11.773 -0.3083  0.2068  0.5969
 6714TIP3    H141633   0.587   0.919  11.822 -0.1464  1.0189 -0.5368
 6714TIP3    H241634   0.461   0.917  11.738 -0.3010 -0.3226 -0.3062
 6715TIP3   OH241635   3.726   1.516  14.957  0.0457  0.8845  0.2618
 6715TIP3    H141636   3.651   1.457  14.963  0.7560  0.0753  1.5328
 6715TIP3    H241637   3.699   1.594  15.004 -0.4321  1.0965 -0.3452
 6716TIP3   OH241638   4.454   5.496   1.758  0.0443 -0.0209  0.5157
 6716TIP3    H141639   4.431   5.509   1.850 -0.3408 -0.2626  0.4525
 6716TIP3    H241640   4.525   5.559   1.742 -0.5014  0.6627  0.7291
 6717TIP3   OH241641   6.406   1.155  12.881 -0.2960  0.1742 -0.5194
 6717TIP3    H141642   6.388   1.124  12.970  0.3201  0.6662 -0.2143
 6717TIP3    H241643   6.331   1.210  12.859  0.2986  1.3813  0.3439
 6718TIP3   OH241644   1.943   4.001   5.358 -0.2245 -0.2256  0.3022
 6718TIP3    H141645   2.000   4.070   5.392 -2.6866  1.6249  0.9540
 6718TIP3    H241646   1.920   3.950   5.435  0.5538 -1.0235  0.0258
 6719TIP3   OH241647   6.594   0.200   0.788  0.1952 -0.5150 -0.0909
 6719TIP3    H141648   6.657   0.130   0.806  2.1316  1.3132  0.6894
 6719TIP3    H241649   6.584   0.200   0.692 -0.3730 -2.2546 -0.0525
 6720TIP3   OH241650   6.622   3.330  12.579 -0.0543  0.2386  0.3046
 6720TIP3    H141651   6.716   3.320  12.563 -0.4463 -0.2268 -2.0825
 6720TIP3    H241652   6.607   3.424  12.569 -0.0012  0.1748 -0.4448
 6721TIP3   OH241653   5.194   3.035  14.730 -0.6430 -0.1835  0.0162
 6721TIP3    H141654   5.283   3.046  14.698 -0.2480 -3.7963 -0.5782
 6721TIP3    H241655   5.203   2.979  14.807 -2.3734 -0.8167 -0.1966
 6722TIP3   OH241656   1.132   1.644  14.713  0.3678 -0.2663 -0.6944
 6722TIP3    H141657   1.123   1.739  14.707  1.1166 -0.2116 -1.0479
 6722TIP3    H241658   1.207   1.623  14.657  1.3869 -0.8634  0.8258
 6723TIP3   OH241659   4.142   4.382   4.016  0.0970 -0.4846  0.2038
 6723TIP3    H141660   4.086   4.386   3.938 -0.0747 -1.4315  0.2602
 6723TIP3    H241661   4.222   4.339   3.986 -0.4894 -2.0638  0.8146
 6724TIP3   OH241662   1.050   0.732   1.733  0.7319 -0.2402 -0.1971
 6724TIP3    H141663   1.106   0.760   1.805  0.1502  0.4907 -0.0179
 6724TIP3    H241664   1.046   0.807   1.675 -1.3917  0.3637  0.6217
 6725TIP3   OH241665   4.904   4.638  15.276  0.3552 -0.1763  0.3431
 6725TIP3    H141666   4.936   4.665  15.190  0.0957  1.7995  0.8185
 6725TIP3    H241667   4.951   4.557  15.295  1.9217  0.4207 -0.7951
 6726TIP3   OH241668   5.984   3.748  14.601  0.5398  0.2593 -0.1260
 6726TIP3    H141669   5.890   3.738  14.612  0.6916  0.1553  1.2207
 6726TIP3    H241670   5.998   3.843  14.595  0.4577  0.3420  0.8644
 6727TIP3   OH241671   1.529   5.748  16.281 -0.1456 -0.7442 -0.6104
 6727TIP3    H141672   1.567   5.836  16.279 -0.9300 -0.3924 -0.2720
 6727TIP3    H241673   1.446   5.757  16.234 -0.3593 -1.2384 -0.3328
 6728TIP3   OH241674   1.804   4.066  10.619  0.3737 -0.3020  0.4742
 6728TIP3    H141675   1.779   3.986  10.664 -1.0386 -0.2487 -0.1701
 6728TIP3    H241676   1.874   4.040  10.559  0.0066 -1.0344  0.3542
 6729TIP3   OH241677   6.217   1.451  11.863  0.4887  0.1931 -0.7565
 6729TIP3    H141678   6.245   1.360  11.860  1.8101  0.5729 -0.5541
 6729TIP3    H241679   6.201   1.474  11.771 -1.1201 -0.5960 -0.6989
 6730TIP3   OH241680   6.430   6.138   2.898 -0.2196  0.1630 -0.0454
 6730TIP3    H141681   6.344   6.157   2.936  0.3168  1.4218  0.5833
 6730TIP3    H241682   6.492   6.188   2.951  0.9503 -0.9431 -0.3145
 6731TIP3   OH241683   1.847   3.919   1.418  0.5762 -0.3534 -0.0836
 6731TIP3    H141684   1.890   3.992   1.463 -1.1335  1.9244 -1.9143
 6731TIP3    H241685   1.905   3.899   1.345  0.8092 -0.5051  0.1413
 6732TIP3   OH241686   5.119   5.906   1.963  0.1656 -0.1047  0.3455
 6732TIP3    H141687   5.048   5.910   1.899  0.3680  2.8198  0.1647
 6732TIP3    H241688   5.102   5.978   2.023  3.1127  1.0062  0.0517
 6733TIP3   OH241689   1.915   0.508  11.506  0.1617  0.2945  0.4296
 6733TIP3    H141690   2.008   0.528  11.509  0.1348  0.3833  0.7216
 6733TIP3    H241691   1.911   0.412  11.511  0.1949  0.3419  1.7979
 6734TIP3   OH241692   0.246   4.127  16.607  0.2338  0.0171 -0.3638
 6734TIP3    H141693   0.312   4.194  16.587 -0.1028  0.7711  0.9591
 6734TIP3    H241694   0.297   4.053  16.640  0.5372 -0.0186 -0.9022
 6735TIP3   OH241695   4.069   2.232   5.822 -0.2108  0.8336 -0.2099
 6735TIP3    H141696   4.070   2.138   5.839 -1.7620  0.6280 -1.0121
 6735TIP3    H241697   4.130   2.244   5.750  0.5890  0.5678  0.4152
 6736TIP3   OH241698   5.409   6.006  12.832  0.2418  0.9586 -0.3483
 6736TIP3    H141699   5.472   5.970  12.895 -1.0614 -0.6316  0.1147
 6736TIP3    H241700   5.461   6.065  12.777  2.0723 -0.0426  0.2223
 6737TIP3   OH241701   0.831   5.285   3.534 -0.1686 -0.1342 -0.5019
 6737TIP3    H141702   0.919   5.323   3.533 -0.1358 -0.2072 -0.4728
 6737TIP3    H241703   0.802   5.290   3.443 -0.0156 -0.3788 -0.5664
 6738TIP3   OH241704   2.221   2.927  13.992  0.1181 -0.8279  0.5395
 6738TIP3    H141705   2.202   2.833  14.000  0.3990 -0.8579  0.8505
 6738TIP3    H241706   2.289   2.944  14.057  0.1341 -0.4246  0.4213
 6739TIP3   OH241707   6.747   5.669   5.841  0.5978 -0.2515 -0.1507
 6739TIP3    H141708   6.707   5.649   5.756 -2.2477  1.4145  0.6529
 6739TIP3    H241709   6.701   5.613   5.903  0.4001  0.7697  0.6535
 6740TIP3   OH241710   1.326   2.163  13.160 -0.3018  0.4891 -0.2869
 6740TIP3    H141711   1.273   2.083  13.160  0.8011 -0.3135  1.4764
 6740TIP3    H241712   1.412   2.135  13.192  0.5626  2.1258 -1.0632
 6741TIP3   OH241713   2.750   3.354  12.114 -0.5826  0.0510  0.0695
 6741TIP3    H141714   2.830   3.387  12.073 -1.1945 -0.8847 -1.9937
 6741TIP3    H241715   2.727   3.422  12.177 -0.1524  2.1484 -1.8739
 6742TIP3   OH241716   5.323   2.674   5.090  0.2749  0.2909 -0.4958
 6742TIP3    H141717   5.398   2.705   5.039  2.6759 -0.7434  2.0994
 6742TIP3    H241718   5.320   2.733   5.166  0.4612 -1.4648  0.9471
 6743TIP3   OH241719   2.217   4.051  13.694  0.2148  0.1212  0.2252
 6743TIP3    H141720   2.305   4.019  13.713  0.4842  2.1627  3.1666
 6743TIP3    H241721   2.159   3.988  13.736  0.5100  0.6455  1.4875
 6744TIP3   OH241722   6.039   5.436   1.663 -0.9095 -0.3191  0.1308
 6744TIP3    H141723   6.127   5.462   1.638 -1.3904  1.3375  0.0467
 6744TIP3    H241724   6.022   5.482   1.745 -1.9069 -0.1433 -0.1583
 6745TIP3   OH241725   4.466   3.986  15.029  0.1946 -0.0376 -0.4386
 6745TIP3    H141726   4.449   4.066  14.980  1.4506  0.2037 -0.5220
 6745TIP3    H241727   4.513   4.014  15.107 -0.7611 -0.5455  0.3544
 6746TIP3   OH241728   0.033   5.277  14.864 -0.3874 -0.2214  0.1126
 6746TIP3    H141729   0.037   5.218  14.789 -0.4426 -0.2253  0.1118
 6746TIP3    H241730   0.091   5.350  14.841  0.4115 -0.7253  0.5061
 6747TIP3   OH241731   5.345   1.164   3.438 -0.6626 -0.3531 -0.5321
 6747TIP3    H141732   5.312   1.119   3.515 -1.4090 -1.2185 -1.3268
 6747TIP3    H241733   5.438   1.142   3.433 -0.1706  1.1418  1.0726
 6748TIP3   OH241734   3.432   1.983   0.040  0.4658 -0.2441  0.0101
 6748TIP3    H141735   3.525   2.003   0.032  0.5564 -0.7280 -0.1680
 6748TIP3    H241736   3.388   2.056  -0.003  0.6894  0.8926  1.6115
 6749TIP3   OH241737   5.245   4.517   4.448  0.3454 -0.2964  0.0585
 6749TIP3    H141738   5.309   4.585   4.470 -1.2644  0.6790  2.0622
 6749TIP3    H241739   5.297   4.438   4.435  2.0221  0.6245  0.8660
 6750TIP3   OH241740   2.484   1.358  11.268  0.5431 -0.0389  0.7978
 6750TIP3    H141741   2.452   1.303  11.197  1.8061 -0.2277  0.3401
 6750TIP3    H241742   2.478   1.448  11.234  0.9647 -0.1134  0.5242
 6751TIP3   OH241743   3.253   3.336   6.249  0.1126 -0.3892 -0.2828
 6751TIP3    H141744   3.294   3.275   6.188  0.9731 -0.5301  0.4204
 6751TIP3    H241745   3.235   3.283   6.327  0.1074  0.0665  0.0306
 6752TIP3   OH241746   3.519   4.393   3.697 -0.1260 -0.4451 -0.1044
 6752TIP3    H141747   3.540   4.308   3.736  1.1504  0.3968  1.1092
 6752TIP3    H241748   3.581   4.403   3.625 -0.8040 -0.8686 -0.7651
 6753TIP3   OH241749   1.552   4.912   1.667  0.3359 -0.1481  0.3049
 6753TIP3    H141750   1.482   4.946   1.724 -0.0841 -1.0462  0.3342
 6753TIP3    H241751   1.606   4.859   1.724 -0.1937 -1.2095 -0.1449
 6754TIP3   OH241752   1.154   1.244   6.073  0.0888 -0.0191 -0.2739
 6754TIP3    H141753   1.245   1.218   6.080  0.6578  0.7066 -3.4597
 6754TIP3    H241754   1.134   1.284   6.158  1.7234 -2.8596  1.6039
 6755TIP3   OH241755   6.627   0.736   2.584  0.0845 -0.5525 -0.4931
 6755TIP3    H141756   6.710   0.693   2.604  1.8675  1.5236 -2.7950
 6755TIP3    H241757   6.643   0.828   2.602 -1.6164 -0.0565 -1.3038
 6756TIP3   OH241758   6.666   4.673  12.411  0.0093  0.0502  0.1241
 6756TIP3    H141759   6.585   4.690  12.459 -1.0010 -0.2067 -1.4027
 6756TIP3    H241760   6.699   4.760  12.388  0.5262  0.1767  1.2751
 6757TIP3   OH241761   3.988   0.536   5.083 -0.4468  0.1155  0.0084
 6757TIP3    H141762   3.952   0.564   4.999  1.7421 -3.1055 -2.2724
 6757TIP3    H241763   3.954   0.447   5.095  3.3448 -1.6356 -0.4422
 6758TIP3   OH241764   5.589   2.525  15.170 -0.1085  0.6902 -0.8908
 6758TIP3    H141765   5.667   2.487  15.129 -0.6524 -0.6967 -0.6922
 6758TIP3    H241766   5.557   2.457  15.229 -1.4660  1.2370 -0.9497
 6759TIP3   OH241767   6.269   5.618  11.341 -0.5071 -0.3865 -0.5430
 6759TIP3    H141768   6.312   5.698  11.311  1.8249 -1.5648 -0.5190
 6759TIP3    H241769   6.312   5.596  11.423  0.2255 -2.6209 -1.4432
 6760TIP3   OH241770   5.087   5.692   6.083 -0.1517 -0.0381 -0.1126
 6760TIP3    H141771   5.018   5.743   6.041  1.0963  0.4609 -1.6842
 6760TIP3    H241772   5.045   5.609   6.107 -0.9137 -0.5349 -2.7823
 6761TIP3   OH241773   4.742   0.140  11.808 -0.3252 -0.2473 -0.0006
 6761TIP3    H141774   4.664   0.102  11.849  0.3113 -1.3623  0.2348
 6761TIP3    H241775   4.807   0.070  11.812 -0.0117 -0.1532 -2.3225
 6762TIP3   OH241776   4.157   5.486   5.293  0.2760  0.0832  0.1149
 6762TIP3    H141777   4.180   5.429   5.367 -1.0318 -1.0295 -0.2923
 6762TIP3    H241778   4.092   5.546   5.329  2.4346  2.1376  0.8334
 6763TIP3   OH241779   2.486   6.769  13.562 -0.5721  0.5500 -0.3782
 6763TIP3    H141780   2.392   6.770  13.546 -0.7016  1.2853  0.3839
 6763TIP3    H241781   2.497   6.724  13.645 -0.1744 -0.2255 -0.8339
 6764TIP3   OH241782   6.226   0.246   6.084 -0.2821  0.8012  0.1085
 6764TIP3    H141783   6.203   0.251   5.991  1.0055  1.9775 -0.1668
 6764TIP3    H241784   6.218   0.336   6.115  2.6254  1.0768  0.2854
 6765TIP3   OH241785   1.591   6.587   1.527  0.1935 -0.1367 -0.7083
 6765TIP3    H141786   1.611   6.652   1.461 -0.4003  0.3883 -0.3864
 6765TIP3    H241787   1.563   6.510   1.478  0.4787 -0.0044 -1.0796
 6766TIP3   OH241788   1.097   6.002   3.128 -0.7052  0.1646 -0.0693
 6766TIP3    H141789   1.029   5.981   3.064 -0.3302  0.9779 -0.7518
 6766TIP3    H241790   1.086   5.936   3.198 -1.4754 -0.3832 -0.6935
 6767TIP3   OH241791   1.026   3.328   3.010 -0.2051  0.0406 -1.0644
 6767TIP3    H141792   1.050   3.304   2.920 -0.9071  1.0751 -1.5503
 6767TIP3    H241793   0.931   3.341   3.007 -0.2616 -0.0767 -0.1288
 6768TIP3   OH241794   4.774   5.105   2.306 -0.8494 -0.1697  0.0544
 6768TIP3    H141795   4.802   5.092   2.397  1.3902 -1.0162 -0.6983
 6768TIP3    H241796   4.855   5.122   2.258 -1.7830 -1.3797 -2.0606
 6769TIP3   OH241797   6.123   6.608   5.523  0.3386 -0.0155 -0.5187
 6769TIP3    H141798   6.179   6.679   5.492 -0.4790  0.9488  0.1461
 6769TIP3    H241799   6.166   6.577   5.603 -0.9506  1.9678  1.0481
 6770TIP3   OH241800   3.713   0.589  11.610  0.0164 -0.2233 -0.3392
 6770TIP3    H141801   3.742   0.506  11.648 -2.5308 -0.3802  1.4543
 6770TIP3    H241802   3.670   0.564  11.528 -0.5627 -0.6788  0.0965
 6771TIP3   OH241803   3.209   1.959  15.892 -0.1646  0.0300  0.2195
 6771TIP3    H141804   3.154   1.935  15.817 -0.2202  1.1220 -0.1037
 6771TIP3    H241805   3.150   2.002  15.953 -0.3424 -1.7915  1.4066
 6772TIP3   OH241806   2.312   5.578  11.689  0.7271  0.3346  0.0858
 6772TIP3    H141807   2.223   5.598  11.660 -0.0890 -0.0689  2.1335
 6772TIP3    H241808   2.363   5.656  11.666 -0.5377  1.2985  0.4386
 6773TIP3   OH241809   2.572   4.947   4.937 -0.6027  0.9043 -0.2863
 6773TIP3    H141810   2.636   4.876   4.947 -0.3179  1.1101 -0.6374
 6773TIP3    H241811   2.581   4.999   5.017 -0.0644  1.1466 -0.5001
 6774TIP3   OH241812   1.672   2.697   6.506 -0.2570 -0.4327  0.9558
 6774TIP3    H141813   1.684   2.620   6.450 -0.7917 -0.8658  1.4255
 6774TIP3    H241814   1.701   2.668   6.593 -0.0226  0.0442  1.0391
 6775TIP3   OH241815   0.863   3.626  16.882 -0.5298  0.1031 -0.1270
 6775TIP3    H141816   0.811   3.666  16.951 -0.3050 -0.0705  0.1458
 6775TIP3    H241817   0.890   3.541  16.918  1.3973  0.8916  0.4660
 6776TIP3   OH241818   1.909   4.704  16.096 -0.9135 -0.6286 -0.0218
 6776TIP3    H141819   1.953   4.773  16.047 -0.0092 -1.4112 -0.3495
 6776TIP3    H241820   1.872   4.748  16.172 -1.4329  0.4233 -0.8566
 6777TIP3   OH241821   6.618   3.991   1.293 -0.1407 -0.1792  0.0589
 6777TIP3    H141822   6.541   3.965   1.344 -0.4195 -0.3899 -0.4627
 6777TIP3    H241823   6.666   3.910   1.279 -0.3974 -0.2281 -0.5566
 6778TIP3   OH241824   0.633   4.101  14.894 -0.1135  0.3649 -0.3223
 6778TIP3    H141825   0.642   4.006  14.896 -1.1326  0.2494 -0.5265
 6778TIP3    H241826   0.580   4.118  14.816 -0.5839  1.0382  0.1408
 6779TIP3   OH241827   0.234   3.387  16.112 -0.3294  0.1281 -0.4457
 6779TIP3    H141828   0.256   3.294  16.119  0.2630  0.3425  0.7343
 6779TIP3    H241829   0.315   3.432  16.136 -1.4131  0.9417  1.8488
 6780TIP3   OH241830   1.213   4.906  12.348  0.1267 -0.3441 -0.6580
 6780TIP3    H141831   1.118   4.921  12.351  0.0633 -0.6773 -0.9228
 6780TIP3    H241832   1.234   4.913  12.255  0.3084 -0.6073 -0.6361
 6781TIP3   OH241833   3.482   1.003   4.409  0.1265  0.2886 -0.3004
 6781TIP3    H141834   3.565   1.023   4.452  0.5189  2.1049 -1.7567
 6781TIP3    H241835   3.484   0.909   4.395  2.4904  0.4248 -1.2820
 6782TIP3   OH241836   6.297   0.328  17.089  0.7091  0.6625 -0.5897
 6782TIP3    H141837   6.315   0.422  17.099  3.6072  0.1058  0.5717
 6782TIP3    H241838   6.384   0.289  17.081 -0.3219 -2.1068  0.6941
 6783TIP3   OH241839   2.616   1.838   2.827  0.3075  0.0923  0.1613
 6783TIP3    H141840   2.527   1.808   2.808  0.5673 -0.2870 -0.4823
 6783TIP3    H241841   2.633   1.807   2.916  0.1427 -0.6813 -0.0675
 6784TIP3   OH241842   3.641   1.337   5.808 -0.0033 -0.5476  0.0815
 6784TIP3    H141843   3.563   1.310   5.857 -0.1998  0.4319  0.3478
 6784TIP3    H241844   3.651   1.430   5.830  0.1187 -0.1704 -1.4660
 6785TIP3   OH241845   4.837   2.382  10.924 -0.5250 -0.4555 -0.0644
 6785TIP3    H141846   4.892   2.379  11.002 -0.9160 -1.4961  0.1858
 6785TIP3    H241847   4.782   2.304  10.930  0.5639 -1.4761 -2.2104
 6786TIP3   OH241848   0.043   6.702  12.490  0.4632  0.1128 -0.1161
 6786TIP3    H141849  -0.042   6.737  12.519  1.6723  1.8689  1.5690
 6786TIP3    H241850   0.027   6.609  12.476 -1.4528  0.1407  1.4215
 6787TIP3   OH241851   4.703   2.473  14.667  0.2476 -0.5039 -0.4871
 6787TIP3    H141852   4.630   2.506  14.613 -0.3215  1.6236  1.4306
 6787TIP3    H241853   4.781   2.490  14.614 -0.4519 -0.7838 -1.6585
 6788TIP3   OH241854   5.299   3.763   2.720 -0.1468  0.0276 -0.0851
 6788TIP3    H141855   5.386   3.771   2.681 -0.6864 -1.4030 -1.7166
 6788TIP3    H241856   5.310   3.701   2.792  0.3227  0.4424  0.2018
 6789TIP3   OH241857   5.581   6.318  16.013  0.2293  0.3671  0.4429
 6789TIP3    H141858   5.565   6.364  15.931  2.3086  0.4871  0.0550
 6789TIP3    H241859   5.495   6.313  16.055 -0.7207  1.0804 -1.3220
 6790TIP3   OH241860   3.216   0.845  10.722 -0.3138 -0.1564 -0.3373
 6790TIP3    H141861   3.151   0.801  10.667 -0.3080 -1.4367  0.6399
 6790TIP3    H241862   3.268   0.897  10.660 -0.0141 -1.9011 -1.6359
 6791TIP3   OH241863   6.753   2.335  10.545  0.4302  0.2742 -0.1016
 6791TIP3    H141864   6.760   2.429  10.562  1.1310 -0.1273  2.2092
 6791TIP3    H241865   6.666   2.312  10.577  0.2424  0.1192 -0.7080
 6792TIP3   OH241866   0.392   4.463  10.788  0.0650  0.1228  0.1693
 6792TIP3    H141867   0.453   4.399  10.751  0.4655  1.2228 -1.1446
 6792TIP3    H241868   0.329   4.480  10.718 -0.2027  0.9470  0.5901
 6793TIP3   OH241869   6.440   3.283   1.887  0.2766  0.0626  0.1322
 6793TIP3    H141870   6.406   3.313   1.803 -0.6802  3.0757  1.4659
 6793TIP3    H241871   6.485   3.360   1.923  2.1735 -1.6552  1.6657
 6794TIP3   OH241872   4.058   0.108  17.275 -0.5474 -0.1179 -0.2865
 6794TIP3    H141873   4.141   0.097  17.229 -0.0213 -1.5514  0.9273
 6794TIP3    H241874   4.048   0.203  17.283  1.6912  0.1059  0.7478
 6795TIP3   OH241875   0.543   0.601  13.578  0.0689 -0.0053  0.5214
 6795TIP3    H141876   0.454   0.581  13.547 -0.1515  1.8401 -0.1294
 6795TIP3    H241877   0.593   0.617  13.498  0.8971 -0.5966  0.9084
 6796TIP3   OH241878   2.704   3.289  16.409 -0.1784 -0.1367  0.5306
 6796TIP3    H141879   2.622   3.241  16.399 -0.2978 -0.1462  1.4701
 6796TIP3    H241880   2.679   3.374  16.443  0.1009  0.3511 -0.4318
 6797TIP3   OH241881   3.626   0.264  11.005 -0.2847  0.1300 -0.0699
 6797TIP3    H141882   3.535   0.233  11.005 -0.4582  0.6184 -0.8840
 6797TIP3    H241883   3.652   0.262  11.097 -1.4649  0.9844  0.3051
 6798TIP3   OH241884   5.957   1.306   2.794 -0.1310 -0.2181 -0.0760
 6798TIP3    H141885   5.895   1.269   2.731  0.8197 -0.4325 -0.8934
 6798TIP3    H241886   5.963   1.240   2.863  0.1937 -0.7778 -0.6430
 6799TIP3   OH241887   1.313   4.758  10.743 -0.3162 -0.3054  0.0181
 6799TIP3    H141888   1.298   4.677  10.695 -2.2207 -0.0796  0.1553
 6799TIP3    H241889   1.336   4.823  10.676 -0.2213 -0.6239 -0.2573
 6800TIP3   OH241890   1.212   6.422  12.925  0.3884 -0.4525 -0.1669
 6800TIP3    H141891   1.290   6.476  12.916 -0.7727  1.5429  1.0172
 6800TIP3    H241892   1.194   6.391  12.837  1.5067  0.5315 -0.7659
 6801TIP3   OH241893   4.772   3.333  11.605  0.3422  0.3088  0.3511
 6801TIP3    H141894   4.712   3.406  11.592 -0.8557 -0.7790 -0.5124
 6801TIP3    H241895   4.755   3.303  11.695  1.1998  1.3701  0.8898
 6802TIP3   OH241896   4.896   2.241  12.744 -0.3799 -0.3575  0.4620
 6802TIP3    H141897   4.926   2.153  12.720  0.0070 -0.0340 -0.2621
 6802TIP3    H241898   4.976   2.288  12.768 -0.4104  0.2122 -0.5089
 6803TIP3   OH241899   6.093   2.179  17.011  0.0376  0.7054 -0.1980
 6803TIP3    H141900   6.087   2.132  17.095 -0.6719  1.2237  0.0494
 6803TIP3    H241901   6.117   2.268  17.035  1.0978  0.5510 -0.6514
 6804TIP3   OH241902   0.269   0.111   1.913  0.0749 -0.3127  0.4543
 6804TIP3    H141903   0.265   0.104   1.818  0.9368 -1.1699  0.4666
 6804TIP3    H241904   0.361   0.126   1.933  0.2106 -1.9523  1.2366
 6805TIP3   OH241905   1.813   5.217   6.148  0.2135 -0.0994  0.3307
 6805TIP3    H141906   1.725   5.199   6.114 -0.3566  2.8811  0.0101
 6805TIP3    H241907   1.801   5.228   6.242  1.2075 -4.6189  1.2607
 6806TIP3   OH241908   2.366   2.196  15.062 -0.8185  0.3654  0.0359
 6806TIP3    H141909   2.454   2.190  15.025 -0.2630  1.2364  1.1529
 6806TIP3    H241910   2.347   2.290  15.063 -0.7009  0.3976  2.1581
 6807TIP3   OH241911   0.541   3.911   5.302 -0.6928 -0.3093  0.0696
 6807TIP3    H141912   0.493   3.849   5.358 -0.6756  0.8767  1.4395
 6807TIP3    H241913   0.530   3.996   5.344  2.5656  0.0451  0.4405
 6808TIP3   OH241914   4.644   3.649   3.982  0.1308  0.0493 -0.3291
 6808TIP3    H141915   4.566   3.700   4.007 -1.0467 -1.7655 -0.1330
 6808TIP3    H241916   4.687   3.630   4.065  0.3366  0.3474 -0.3655
 6809TIP3   OH241917   5.404   5.226   4.976 -0.2805  0.3347  0.7871
 6809TIP3    H141918   5.459   5.286   4.926  0.5442 -0.5431  0.6346
 6809TIP3    H241919   5.464   5.162   5.013 -1.0625  0.0379  1.5975
 6810TIP3   OH241920   2.492   2.616  14.830  0.4452 -0.5844  0.0885
 6810TIP3    H141921   2.577   2.601  14.789  0.3611 -1.3842  0.2077
 6810TIP3    H241922   2.514   2.651  14.916  0.6295  0.3682 -0.3237
 6811TIP3   OH241923   2.465   3.556  16.028  0.4454 -0.1564  1.0049
 6811TIP3    H141924   2.499   3.513  15.949  0.7625 -0.3291  1.2350
 6811TIP3    H241925   2.520   3.634  16.038  0.0163  0.1878  0.7175
 6812TIP3   OH241926   3.262   4.123  14.102  0.0432 -0.0054 -0.7557
 6812TIP3    H141927   3.333   4.068  14.136  0.5197  1.3055  0.4570
 6812TIP3    H241928   3.279   4.127  14.008  0.7554 -0.8534 -0.6816
 6813TIP3   OH241929   1.109   5.318   1.336 -0.2879 -0.2916 -0.8786
 6813TIP3    H141930   1.094   5.398   1.386 -1.1640 -1.4918  0.8850
 6813TIP3    H241931   1.021   5.288   1.313 -0.0770 -1.6037 -0.0722
 6814TIP3   OH241932   1.038   6.724   5.470 -0.5324 -0.2633  0.2031
 6814TIP3    H141933   1.078   6.637   5.475  0.2268  0.1615  2.6552
 6814TIP3    H241934   0.974   6.716   5.399  1.4981 -1.9528 -1.6087
 6815TIP3   OH241935   3.622   4.597  14.052 -0.0670 -0.6459  0.1946
 6815TIP3    H141936   3.600   4.519  14.001  1.3290 -0.8199 -0.1786
 6815TIP3    H241937   3.541   4.618  14.100 -1.1686 -0.9820 -1.4193
 6816TIP3   OH241938   0.891   5.936   5.776 -0.0217 -0.0166 -0.4886
 6816TIP3    H141939   0.846   5.868   5.827  0.7373 -0.2574 -0.1303
 6816TIP3    H241940   0.911   6.004   5.840 -2.6813  1.6034 -1.1935
 6817TIP3   OH241941   0.099   0.059  12.883 -0.3182 -0.0816  0.0620
 6817TIP3    H141942   0.108   0.102  12.968 -0.2310 -0.8820  0.4719
 6817TIP3    H241943   0.085   0.130  12.821  4.7170  1.1587 -0.1044
 6818TIP3   OH241944   3.234   4.264   6.028 -0.1150 -0.1892 -1.1159
 6818TIP3    H141945   3.158   4.309   6.067 -0.3997 -2.1890  0.8481
 6818TIP3    H241946   3.199   4.183   5.993  1.0797 -1.2049 -0.0708
 6819TIP3   OH241947   6.747   4.511   4.531 -0.0365 -0.1339  0.0163
 6819TIP3    H141948   6.788   4.596   4.515  0.8796 -0.8050 -1.2867
 6819TIP3    H241949   6.782   4.483   4.616  0.6577  0.1922 -0.1622
 6820TIP3   OH241950   5.266   2.443  10.498 -0.0544 -0.4813  0.2896
 6820TIP3    H141951   5.237   2.461  10.587 -0.6171 -1.7238  0.3950
 6820TIP3    H241952   5.254   2.348  10.488 -0.5510 -0.2968 -1.2809
 6821TIP3   OH241953   3.242   0.934  17.123 -0.1892  0.0762 -0.0463
 6821TIP3    H141954   3.217   0.842  17.111 -0.8654  0.3411 -0.7251
 6821TIP3    H241955   3.196   0.981  17.054  0.3903  0.8949  0.1071
 6822TIP3   OH241956   6.764   2.793  13.253 -0.3781  0.2947  0.5292
 6822TIP3    H141957   6.857   2.771  13.263 -0.3487  0.0810 -0.1588
 6822TIP3    H241958   6.760   2.887  13.269  0.0238  0.3773  0.1627
 6823TIP3   OH241959   1.206   4.208   4.891 -0.3780  0.7910 -0.2084
 6823TIP3    H141960   1.114   4.228   4.879 -0.1509  1.0887 -1.6831
 6823TIP3    H241961   1.212   4.113   4.876 -0.5499  0.6391  0.6567
 6824TIP3   OH241962   6.469   3.026  13.854 -0.1648  0.1925 -0.1776
 6824TIP3    H141963   6.560   2.995  13.860 -0.6797 -1.5108 -0.6873
 6824TIP3    H241964   6.469   3.082  13.776  0.4055  0.0345 -0.2999
 6825TIP3   OH241965   1.693   3.132   1.704  0.3325  0.4863  0.6009
 6825TIP3    H141966   1.781   3.121   1.669 -0.5654 -1.0389 -1.3937
 6825TIP3    H241967   1.699   3.102   1.795  1.6127 -0.8644  0.1100
 6826TIP3   OH241968   2.397   1.608  16.873  0.1120 -0.2617  0.0631
 6826TIP3    H141969   2.381   1.532  16.929  0.1609 -0.3223 -0.0066
 6826TIP3    H241970   2.485   1.595  16.838  0.0481 -0.2646 -0.0960
 6827TIP3   OH241971   1.374   4.357   3.771 -0.1239  0.0850  0.1372
 6827TIP3    H141972   1.320   4.280   3.756  1.2290 -1.3570  2.0601
 6827TIP3    H241973   1.398   4.351   3.864  0.7501  2.3660  0.1216
 6828TIP3   OH241974   2.099   6.254  12.929  0.3150 -0.1534 -0.8628
 6828TIP3    H141975   2.143   6.186  12.877 -0.5888 -0.2496 -1.5228
 6828TIP3    H241976   2.170   6.294  12.979  0.7867 -2.0503  0.0988
 6829TIP3   OH241977   5.234   1.135   6.289  0.2027  0.2064  0.5472
 6829TIP3    H141978   5.191   1.207   6.334 -1.4157  1.0318 -2.0835
 6829TIP3    H241979   5.327   1.157   6.290 -0.0887  1.4800  1.2068
 6830TIP3   OH241980   3.599   5.906  13.766 -0.1149  0.0538 -0.3802
 6830TIP3    H141981   3.666   5.967  13.736 -1.0426  1.4679  0.3103
 6830TIP3    H241982   3.568   5.863  13.686 -0.2636  1.3703 -1.0540
 6831TIP3   OH241983   3.507   5.965   4.481 -0.2186 -0.2587  0.1687
 6831TIP3    H141984   3.449   5.896   4.447  0.5320 -0.6862 -0.2783
 6831TIP3    H241985   3.546   6.003   4.402 -1.3816  1.3829  0.3404
 6832TIP3   OH241986   6.524   1.363   4.016 -0.7890  0.0730 -0.4353
 6832TIP3    H141987   6.502   1.275   3.988 -0.5507 -0.0670 -0.1893
 6832TIP3    H241988   6.593   1.391   3.956 -1.1656  0.2579 -0.7847
 6833TIP3   OH241989   5.175   5.114   2.868 -0.0129  0.7197  0.5142
 6833TIP3    H141990   5.213   5.174   2.804  1.4148 -0.1488  0.5083
 6833TIP3    H241991   5.118   5.057   2.818 -0.5654  1.3928  0.3616
 6834TIP3   OH241992   4.380   3.308   2.519 -0.0919  0.2644 -0.1152
 6834TIP3    H141993   4.459   3.356   2.541 -0.5414  1.5477 -1.1923
 6834TIP3    H241994   4.377   3.236   2.582  1.4197  0.7437  0.5330
 6835TIP3   OH241995   0.665   5.614  11.267 -0.5894 -0.1410  0.0639
 6835TIP3    H141996   0.685   5.642  11.178 -0.1578  1.0079  0.5027
 6835TIP3    H241997   0.712   5.531  11.277  1.1739  0.7879 -0.0819
 6836TIP3   OH241998   4.955   4.108   5.918 -0.3620  0.1004  0.0630
 6836TIP3    H141999   5.004   4.176   5.872 -0.4756 -0.3872 -0.8097
 6836TIP3    H242000   4.949   4.139   6.008  0.8629  0.5455  0.0100
 6837TIP3   OH242001   5.306   3.572  11.638  0.6189  0.0280  0.0805
 6837TIP3    H142002   5.238   3.585  11.704  0.8303 -1.4874  0.6422
 6837TIP3    H242003   5.258   3.553  11.557  0.3709  1.0206 -0.0194
 6838TIP3   OH242004   5.092   4.290  14.397 -0.4799  0.0226 -0.2115
 6838TIP3    H142005   5.016   4.232  14.390  0.1625 -0.6974 -1.3550
 6838TIP3    H242006   5.096   4.335  14.312  1.5726 -1.4814 -0.9715
 6839TIP3   OH242007   5.278   4.309  13.040  0.2815 -0.2287 -0.3747
 6839TIP3    H142008   5.250   4.384  12.988  0.5566  0.6147  0.6687
 6839TIP3    H242009   5.363   4.285  13.002  1.9930  2.3339  1.5557
 6840TIP3   OH242010   1.393   2.459   2.893  0.4678  0.5692 -0.4507
 6840TIP3    H142011   1.463   2.523   2.908  1.5004 -0.5295 -0.4037
 6840TIP3    H242012   1.319   2.510   2.861  0.9843  1.8837  0.3988
 6841TIP3   OH242013   0.261   3.050  14.274  0.0588 -0.1538 -0.5178
 6841TIP3    H142014   0.314   2.998  14.213  0.4259 -0.7238  0.2746
 6841TIP3    H242015   0.172   3.043  14.240  0.3413  0.0254 -1.3197
 6842TIP3   OH242016   2.372   1.333   1.419 -0.0553  0.4839 -0.4310
 6842TIP3    H142017   2.433   1.308   1.351 -0.9843 -0.9619 -0.7824
 6842TIP3    H242018   2.290   1.352   1.373 -1.2299 -2.2452  0.3046
 6843TIP3   OH242019   4.264   3.770  16.602  0.2526  0.1312 -1.1095
 6843TIP3    H142020   4.298   3.682  16.585 -1.2955 -0.5853 -0.6366
 6843TIP3    H242021   4.177   3.756  16.638  0.2541  1.8558 -0.3432
 6844TIP3   OH242022   0.247   3.194   4.046 -0.2439 -0.1184 -0.3317
 6844TIP3    H142023   0.156   3.202   4.018  0.2966 -0.0777 -2.1628
 6844TIP3    H242024   0.266   3.278   4.090 -1.5022 -0.7226  1.4964
 6845TIP3   OH242025   0.734   3.370   2.366 -0.3096 -0.0553 -0.0711
 6845TIP3    H142026   0.752   3.454   2.325 -0.8896 -0.5774 -1.4369
 6845TIP3    H242027   0.639   3.362   2.365 -0.3970  0.1205  1.8627
 6846TIP3   OH242028   5.896   1.904  16.936  0.2553  0.6411 -0.2378
 6846TIP3    H142029   5.988   1.897  16.909 -0.1208 -2.8063 -1.1973
 6846TIP3    H242030   5.850   1.931  16.857  0.3052  1.1951 -0.0796
 6847TIP3   OH242031   1.147   3.110  13.668  0.5018 -0.2401  0.2133
 6847TIP3    H142032   1.205   3.083  13.739 -0.6478 -0.4656  1.0913
 6847TIP3    H242033   1.070   3.053  13.676 -0.3531  0.8231 -0.2059
 6848TIP3   OH242034   3.465   3.618   5.692  0.1310 -0.1293 -0.2858
 6848TIP3    H142035   3.423   3.644   5.609  1.4814  0.0388 -0.9495
 6848TIP3    H242036   3.557   3.605   5.669  0.0200 -3.0356  0.5814
 6849TIP3   OH242037   6.045   4.141  15.994 -0.7887 -0.2346  0.7112
 6849TIP3    H142038   6.058   4.235  16.005  1.4493 -0.3653 -0.2102
 6849TIP3    H242039   6.012   4.111  16.079 -2.3921  1.4581  0.7501
 6850TIP3   OH242040   0.106   1.813   6.100  0.0096 -0.3072 -0.3692
 6850TIP3    H142041   0.148   1.738   6.058  0.5482 -1.0854  1.4399
 6850TIP3    H242042   0.014   1.789   6.105  0.0495 -0.4982 -0.5172
 6851TIP3   OH242043   4.883   3.376  15.193 -0.2554 -0.1012 -0.2536
 6851TIP3    H142044   4.859   3.416  15.110 -1.2497 -0.9485 -0.3838
 6851TIP3    H242045   4.936   3.300  15.169 -1.5905 -1.0737 -0.1831
 6852TIP3   OH242046   1.900   2.782   1.748  0.5163 -0.3821 -0.1620
 6852TIP3    H142047   1.902   2.819   1.659  2.7076 -1.0662 -0.4552
 6852TIP3    H242048   1.904   2.687   1.735 -0.5936 -0.5708  0.6761
 6853TIP3   OH242049   4.361   1.925   3.317  0.6414 -0.0623 -0.7004
 6853TIP3    H142050   4.319   1.842   3.293  2.5923 -1.2906 -0.1294
 6853TIP3    H242051   4.329   1.987   3.252 -1.6031 -1.0082 -0.5968
 6854TIP3   OH242052   4.794   1.805   0.224 -0.5760 -0.0301 -0.3316
 6854TIP3    H142053   4.751   1.813   0.139  0.8931  1.0935 -1.0116
 6854TIP3    H242054   4.726   1.827   0.287 -1.5974 -0.5394 -1.2107
 6855TIP3   OH242055   1.607   0.143  16.342  0.1382  0.2807  0.2978
 6855TIP3    H142056   1.519   0.133  16.304 -0.0278 -0.8461  0.9287
 6855TIP3    H242057   1.655   0.066  16.311  0.9467  0.9504 -0.1336
 6856TIP3   OH242058   6.317   4.572  15.798  0.4823  0.2248 -0.3830
 6856TIP3    H142059   6.412   4.567  15.796  0.5013  0.6592 -0.8208
 6856TIP3    H242060   6.292   4.591  15.708  0.0184  0.6779 -0.1650
 6857TIP3   OH242061   0.941   0.888  12.301 -0.1180  0.5352  0.3116
 6857TIP3    H142062   0.851   0.862  12.320  0.0644 -0.0845  0.3488
 6857TIP3    H242063   0.985   0.806  12.279  0.4935  0.8033  0.5226
 6858TIP3   OH242064   0.847   1.079  15.527  0.5480 -0.0743  0.3793
 6858TIP3    H142065   0.755   1.089  15.550  0.7704  0.4446  1.0941
 6858TIP3    H242066   0.853   1.110  15.437  0.0449 -0.0172  0.3616
 6859TIP3   OH242067   4.899   6.028   3.431 -0.3330  0.1114  0.0727
 6859TIP3    H142068   4.869   6.010   3.342 -0.5948 -0.8368  0.3499
 6859TIP3    H242069   4.887   5.946   3.478  0.4274  0.4115  0.8167
 6860TIP3   OH242070   6.101   6.145  12.365 -0.3292 -0.0542  0.1117
 6860TIP3    H142071   6.152   6.076  12.324  0.8546  0.7480  0.1896
 6860TIP3    H242072   6.060   6.191  12.292 -1.0476 -0.7544  0.0543
 6861TIP3   OH242073   2.544   1.347   1.945  0.8126  0.3631 -1.0574
 6861TIP3    H142074   2.467   1.368   1.892  0.9573  0.1787 -1.3410
 6861TIP3    H242075   2.610   1.411   1.917  0.9152  0.2117 -1.1586
 6862TIP3   OH242076   1.306   3.200   1.150 -0.5940  0.2718 -0.2800
 6862TIP3    H142077   1.290   3.140   1.222  0.2424 -1.0109 -1.1197
 6862TIP3    H242078   1.272   3.155   1.073  2.1662 -0.2604 -1.2988
 6863TIP3   OH242079   4.581   4.539   0.268  0.4869  0.4808  0.6333
 6863TIP3    H142080   4.659   4.594   0.261  1.1434 -0.6568 -2.3033
 6863TIP3    H242081   4.615   4.453   0.295 -0.1357  0.6345  2.0014
 6864TIP3   OH242082   3.883   2.309  11.159 -0.3074 -0.5263 -0.3600
 6864TIP3    H142083   3.967   2.351  11.182 -0.4333  0.6221 -1.8137
 6864TIP3    H242084   3.817   2.375  11.182 -0.6433 -0.6104 -1.0585
 6865TIP3   OH242085   0.433   5.127  12.306  0.1183  0.2593 -0.4606
 6865TIP3    H142086   0.436   5.031  12.310  0.4811  0.1660 -2.0320
 6865TIP3    H242087   0.427   5.155  12.397  3.2644 -1.1527  0.3241
 6866TIP3   OH242088   4.456   4.253   5.825 -0.0834 -0.3550 -0.5011
 6866TIP3    H142089   4.467   4.302   5.906  0.6663  1.2651 -1.5372
 6866TIP3    H242090   4.415   4.171   5.852 -1.3872  0.8151  1.2879
 6867TIP3   OH242091   0.204   0.375   5.433 -0.3415  0.7619 -0.7258
 6867TIP3    H142092   0.177   0.364   5.524 -0.4570  0.2137 -0.8251
 6867TIP3    H242093   0.172   0.297   5.388 -0.6489  1.2192 -1.3249
 6868TIP3   OH242094   6.377   0.689   3.592  0.0917  0.3366  0.1668
 6868TIP3    H142095   6.340   0.621   3.648  2.3148  3.3310  6.1123
 6868TIP3    H242096   6.303   0.746   3.572 -0.8066 -0.8905 -0.1420
 6869TIP3   OH242097   5.545   5.182  16.494  0.2700  0.1259  0.7003
 6869TIP3    H142098   5.555   5.172  16.400 -2.2549 -0.8887  0.4554
 6869TIP3    H242099   5.585   5.103  16.531 -0.1638 -0.2725  0.3362
 6870TIP3   OH242100   5.285   2.688  12.396 -0.0232 -0.2678  0.1496
 6870TIP3    H142101   5.377   2.712  12.383  0.0325 -1.3740 -1.7858
 6870TIP3    H242102   5.249   2.760  12.449  1.6967  0.6772  0.1072
 6871TIP3   OH242103   0.870   6.398   3.440  0.1167  0.2680  0.7689
 6871TIP3    H142104   0.900   6.488   3.427 -1.9828  0.7589 -1.2115
 6871TIP3    H242105   0.799   6.405   3.503 -0.2682  0.0513  0.3624
 6872TIP3   OH242106   4.236   0.227  12.421 -0.6158 -0.1240  0.1037
 6872TIP3    H142107   4.276   0.146  12.389  1.3788  1.5210 -1.8772
 6872TIP3    H242108   4.162   0.243  12.362 -0.5268 -0.0772  0.0060
 6873TIP3   OH242109   4.816   2.736  16.469  0.1021  0.0740 -0.5994
 6873TIP3    H142110   4.884   2.716  16.404  1.3385  1.9661 -0.0007
 6873TIP3    H242111   4.800   2.653  16.514  0.6311 -0.8315 -2.0168
 6874TIP3   OH242112   2.345   0.388   0.064  0.1518  0.0270  0.4837
 6874TIP3    H142113   2.439   0.398   0.057  0.1376 -0.1774  0.0052
 6874TIP3    H242114   2.312   0.478   0.073 -0.0420  0.7654 -4.5929
 6875TIP3   OH242115   5.730   3.830   1.965 -0.0594  0.0735  0.3895
 6875TIP3    H142116   5.691   3.793   1.886 -0.9817  1.1223  0.3364
 6875TIP3    H242117   5.781   3.904   1.934  1.1636 -0.6622  0.5801
 6876TIP3   OH242118   0.186   5.524   3.398  0.3766  0.0980 -0.8810
 6876TIP3    H142119   0.281   5.535   3.393  0.3690  1.2705  0.6770
 6876TIP3    H242120   0.153   5.611   3.421 -1.0596 -0.3484 -1.1087
 6877TIP3   OH242121   3.796   6.047   0.157 -0.3641  0.1893 -0.2679
 6877TIP3    H142122   3.767   6.128   0.199  2.4022  0.2770  1.7202
 6877TIP3    H242123   3.809   6.071   0.065 -0.0554  1.8845  0.1775
 6878TIP3   OH242124   2.597   1.406   2.530  0.0297  0.1402  0.5543
 6878TIP3    H142125   2.634   1.480   2.483  0.8040  0.4417  1.5858
 6878TIP3    H242126   2.505   1.429   2.542 -0.2515 -0.0691 -0.9996
 6879TIP3   OH242127   3.512   0.035   3.054  0.7022 -0.4017  0.3374
 6879TIP3    H142128   3.585  -0.026   3.052  0.8674 -0.2126  0.4891
 6879TIP3    H242129   3.509   0.065   3.145  0.3095 -0.5612  0.3792
 6880TIP3   OH242130   3.959   4.129  14.546  0.7295  0.4286 -0.0694
 6880TIP3    H142131   3.921   4.139  14.633 -0.1506 -0.6372 -0.3015
 6880TIP3    H242132   3.962   4.217  14.510 -0.4006  0.6897  0.4426
 6881TIP3   OH242133   2.236   6.715   3.781 -0.4335 -0.0214  0.0000
 6881TIP3    H142134   2.145   6.691   3.801 -0.7237  1.2435  0.2869
 6881TIP3    H242135   2.232   6.808   3.760  0.9814  0.3393  1.1943
 6882TIP3   OH242136   1.987   2.846  12.676 -0.5416  0.3643  0.5963
 6882TIP3    H142137   1.900   2.807  12.686 -0.4584  0.2906  1.0764
 6882TIP3    H242138   2.047   2.781  12.713 -0.2598  0.3225  0.0759
 6883TIP3   OH242139   1.305   2.671  14.903 -0.1004 -0.1848 -0.2378
 6883TIP3    H142140   1.336   2.760  14.884 -1.8286  0.1705 -1.7693
 6883TIP3    H242141   1.309   2.663  14.998  2.0217  0.7738 -0.2093
 6884TIP3   OH242142   1.771   4.449  15.636 -0.2801  0.0971  0.3739
 6884TIP3    H142143   1.838   4.405  15.687 -0.4679 -0.3231  0.2635
 6884TIP3    H242144   1.767   4.538  15.672  1.3450  0.6069 -0.5710
 6885TIP3   OH242145   1.202   1.989   1.167 -1.0026  0.0608 -0.2922
 6885TIP3    H142146   1.160   1.934   1.233  0.4613  0.8672  1.4104
 6885TIP3    H242147   1.166   2.076   1.182 -2.6202 -0.1604 -2.3699
 6886TIP3   OH242148   3.173   3.725  13.695  0.1211  0.5373 -0.3245
 6886TIP3    H142149   3.217   3.786  13.635 -0.0210  0.4643 -0.5027
 6886TIP3    H242150   3.154   3.778  13.772 -0.1650  0.7686 -0.5490
 6887TIP3   OH242151   4.307   4.653   6.248 -0.1055  0.2294 -0.1154
 6887TIP3    H142152   4.225   4.665   6.296  0.1849  1.0888  0.1833
 6887TIP3    H242153   4.311   4.559   6.230 -1.8338  0.3301 -1.3301
 6888TIP3   OH242154   6.383   2.704  11.855 -0.3438 -0.0153 -0.0281
 6888TIP3    H142155   6.445   2.667  11.792  0.1593  2.1492 -0.9019
 6888TIP3    H242156   6.297   2.687  11.816 -0.1038  0.1778 -0.6559
 6889TIP3   OH242157   4.488   5.842  17.164 -0.5424  0.3619  0.3969
 6889TIP3    H142158   4.402   5.881  17.146  0.7921  3.6023  0.1900
 6889TIP3    H242159   4.487   5.824  17.258 -0.8438  2.3550  0.8418
 6890TIP3   OH242160   6.091   5.031  16.139  0.1199  0.5547  0.2486
 6890TIP3    H142161   6.031   5.085  16.086 -0.7245  0.5802  1.1941
 6890TIP3    H242162   6.178   5.059  16.111 -0.2873  2.3312  0.5967
 6891TIP3   OH242163   6.117   5.966  13.896  0.2178  0.2240  0.3991
 6891TIP3    H142164   6.037   5.918  13.918 -0.4560  0.1490 -2.0067
 6891TIP3    H242165   6.099   6.007  13.811  1.1883  3.7845  1.6930
 6892TIP3   OH242166   3.662   5.005  12.773 -0.2482 -0.5794  0.6851
 6892TIP3    H142167   3.621   5.089  12.752 -1.1637 -0.7624  1.6567
 6892TIP3    H242168   3.693   5.016  12.863  2.5452 -0.1957 -0.2170
 6893TIP3   OH242169   3.557   4.427   1.456 -0.0113 -0.4446  0.1104
 6893TIP3    H142170   3.505   4.416   1.377 -0.7567  0.8248  0.3899
 6893TIP3    H242171   3.643   4.454   1.424  0.0938 -1.2302 -0.3027
 6894TIP3   OH242172   0.202   6.056  13.974 -0.2720 -0.1439  1.0324
 6894TIP3    H142173   0.125   6.106  14.001 -0.2632  0.1601  0.5008
 6894TIP3    H242174   0.222   6.089  13.887  0.0563 -0.7008  0.8974
 6895TIP3   OH242175   1.762   2.991  14.486  0.1100  0.1755 -0.1345
 6895TIP3    H142176   1.740   3.030  14.402  3.0021  0.8788 -0.6944
 6895TIP3    H242177   1.768   3.065  14.546  0.9135  0.0658 -0.0594
 6896TIP3   OH242178   3.372   3.412  12.305  0.4872  0.3198 -0.4800
 6896TIP3    H142179   3.398   3.449  12.390 -0.9593  0.6514 -0.1544
 6896TIP3    H242180   3.364   3.318  12.322  1.4690  0.1992 -0.6042
 6897TIP3   OH242181   4.470   6.648  10.217  0.1585  0.3631 -0.4063
 6897TIP3    H142182   4.462   6.576  10.279 -0.6598  1.3923  0.7364
 6897TIP3    H242183   4.379   6.670  10.195  0.4239  0.3655 -1.5659
 6898TIP3   OH242184   4.353   1.814   2.152 -0.5887 -0.1030  0.0276
 6898TIP3    H142185   4.367   1.884   2.215  0.4420  1.2064 -1.5715
 6898TIP3    H242186   4.258   1.801   2.151 -0.6721  0.2736  1.3663
 6899TIP3   OH242187   4.889   1.208   4.956 -0.5745  0.3105  0.3806
 6899TIP3    H142188   4.928   1.120   4.957 -2.8380 -0.7823 -0.0553
 6899TIP3    H242189   4.941   1.256   4.892  1.7324 -0.1489  1.7777
 6900TIP3   OH242190   2.308   2.950   1.233  0.2838 -0.1643  0.9200
 6900TIP3    H142191   2.336   2.881   1.294  0.5640 -1.5060 -0.6455
 6900TIP3    H242192   2.220   2.973   1.261  0.5413 -0.4887  2.0422
 6901TIP3   OH242193   3.400   2.954  11.132 -0.0027 -0.0394  0.3115
 6901TIP3    H142194   3.466   2.913  11.076  0.5555 -1.7918  2.1255
 6901TIP3    H242195   3.335   2.989  11.071  2.0854  0.8840 -1.4855
 6902TIP3   OH242196   4.538   6.249   4.256 -0.1099  0.1495  0.5237
 6902TIP3    H142197   4.597   6.175   4.242  1.4873  1.4641 -0.0883
 6902TIP3    H242198   4.538   6.262   4.351  0.6885  0.1731  0.5326
 6903TIP3   OH242199   4.987   2.756   1.834  0.4017 -0.3234 -0.4060
 6903TIP3    H142200   5.040   2.686   1.796 -0.0600 -0.2929 -1.1219
 6903TIP3    H242201   5.040   2.835   1.824  1.0589 -0.5953  0.6859
 6904TIP3   OH242202   4.270   3.351   1.890 -0.1899 -0.0738  0.4214
 6904TIP3    H142203   4.350   3.394   1.861 -1.1094  0.4844 -1.4510
 6904TIP3    H242204   4.242   3.401   1.967  0.0984  1.1127 -0.2247
 6905TIP3   OH242205   2.009   4.960   1.077 -0.3250  0.1413  0.3915
 6905TIP3    H142206   2.089   5.011   1.091 -0.4626  0.0918  1.4321
 6905TIP3    H242207   2.023   4.880   1.127 -0.0401 -0.9640 -1.3797
 6906TIP3   OH242208   2.248   3.738   5.979  0.2379  0.2451 -0.5364
 6906TIP3    H142209   2.330   3.698   6.010  1.1222  0.4629 -2.4256
 6906TIP3    H242210   2.239   3.708   5.889 -2.5058 -0.8281  0.0042
 6907TIP3   OH242211   5.847   5.671  15.689 -0.1162  0.3380  0.7420
 6907TIP3    H142212   5.773   5.731  15.702  0.4975  1.0323  1.0953
 6907TIP3    H242213   5.895   5.708  15.615 -2.1592 -2.1715 -2.0585
 6908TIP3   OH242214   6.106   5.527   3.428  0.6213 -0.0633  0.1150
 6908TIP3    H142215   6.197   5.504   3.408  0.8701 -0.1794  1.3005
 6908TIP3    H242216   6.094   5.614   3.388  0.3940 -1.1358 -2.3506
 6909TIP3   OH242217   0.718   4.612  11.780  0.3786  0.1963  0.7351
 6909TIP3    H142218   0.628   4.585  11.800  0.4165 -2.1913 -1.6593
 6909TIP3    H242219   0.760   4.622  11.866 -1.7742 -0.1073  1.8873
 6910TIP3   OH242220   3.926   2.836   0.276 -0.7849  0.2140  0.7097
 6910TIP3    H142221   3.974   2.918   0.286 -1.5763  0.8590 -0.5308
 6910TIP3    H242222   3.854   2.843   0.339 -1.9500  1.3627 -0.6509
 6911TIP3   OH242223   0.896   5.161   1.769 -0.5097 -0.6783  0.3248
 6911TIP3    H142224   0.859   5.110   1.697  1.3642  1.3407 -2.2851
 6911TIP3    H242225   0.989   5.142   1.767 -0.3347 -0.1067  1.8390
 6912TIP3   OH242226   4.439   0.988   3.363  0.3993  0.1415 -0.4337
 6912TIP3    H142227   4.502   0.919   3.343 -0.7822 -1.3778  0.8905
 6912TIP3    H242228   4.405   1.014   3.277  1.9680  0.2067 -1.0758
 6913TIP3   OH242229   1.627   0.858   3.380  0.2715 -0.1033 -0.0362
 6913TIP3    H142230   1.619   0.766   3.405  2.1923  0.0879  1.5737
 6913TIP3    H242231   1.691   0.858   3.309 -1.4984 -0.1645 -1.7254
 6914TIP3   OH242232   3.999   5.660  13.290  0.2702  0.0235 -0.4161
 6914TIP3    H142233   3.930   5.594  13.294 -0.0212  0.3438  2.3061
 6914TIP3    H242234   3.979   5.711  13.212 -1.1621 -1.3543 -1.0039
 6915TIP3   OH242235   2.990   5.439   3.547  0.1811 -0.0017 -0.0137
 6915TIP3    H142236   2.908   5.471   3.509 -0.3626 -0.9739  0.3003
 6915TIP3    H242237   2.965   5.410   3.635  0.7061 -0.9760 -0.1716
 6916TIP3   OH242238   4.037   4.868  13.309 -0.7727  0.8495  0.0482
 6916TIP3    H142239   3.952   4.903  13.335 -1.2956 -0.5389  0.2917
 6916TIP3    H242240   4.019   4.820  13.228 -0.4622 -0.3709  0.6750
 6917TIP3   OH242241   5.301   3.178  13.276 -0.1506  0.4599  0.1472
 6917TIP3    H142242   5.227   3.119  13.288 -1.2140  1.5033 -1.0454
 6917TIP3    H242243   5.282   3.253  13.333 -0.1708  0.8607 -0.3799
 6918TIP3   OH242244   3.332   1.275  17.214  0.0314  0.3122  0.1213
 6918TIP3    H142245   3.392   1.349  17.221  1.6078 -1.0476  2.0900
 6918TIP3    H242246   3.385   1.204  17.179 -1.2264 -0.1409 -0.9329
 6919TIP3   OH242247   4.774   2.521  15.047  0.5352  0.0396  0.0546
 6919TIP3    H142248   4.727   2.471  15.114  1.1776 -0.3601  0.2203
 6919TIP3    H242249   4.718   2.596  15.030 -0.5146 -0.7975 -0.2959
 6920TIP3   OH242250   4.950   3.240  15.734 -0.6589  0.5946  0.1303
 6920TIP3    H142251   5.019   3.291  15.692 -1.5446  2.7671  1.1727
 6920TIP3    H242252   4.900   3.204  15.661 -0.2998  1.6353 -0.6697
 6921TIP3   OH242253   5.546   6.230  13.016  0.1256 -0.0372  0.9100
 6921TIP3    H142254   5.558   6.216  12.922 -0.5701  0.0147  0.8097
 6921TIP3    H242255   5.628   6.198  13.055 -0.8743 -3.3973  0.6095
 6922TIP3   OH242256   1.432   5.480  16.006  0.4914  0.1551 -0.1911
 6922TIP3    H142257   1.455   5.570  15.984  1.4871 -0.1401 -0.3800
 6922TIP3    H242258   1.342   5.470  15.975  0.1119  1.3046  0.4894
 6923TIP3   OH242259   1.772   4.835   6.731 -1.0203 -0.3937 -0.1123
 6923TIP3    H142260   1.816   4.897   6.789 -1.1832 -1.8039  1.5860
 6923TIP3    H242261   1.842   4.798   6.677 -0.8002  0.5534 -0.5055
 6924TIP3   OH242262   4.385   2.374  11.173  0.1047  0.0050  0.4614
 6924TIP3    H142263   4.480   2.362  11.177  0.4107  2.0483  0.7873
 6924TIP3    H242264   4.372   2.467  11.193 -1.8975  0.0111 -0.6078
 6925TIP3   OH242265   1.986   2.152   6.392  0.4039 -0.1095 -0.1999
 6925TIP3    H142266   2.065   2.131   6.441  0.4010  0.6426  0.1375
 6925TIP3    H242267   1.967   2.243   6.414 -0.6814 -0.3435 -0.1061
 6926TIP3   OH242268   2.562   6.793   0.424  0.0452  0.1002  0.0760
 6926TIP3    H142269   2.575   6.884   0.399  0.5556  0.1407  0.4845
 6926TIP3    H242270   2.598   6.743   0.351 -1.4633  0.2023 -0.7966
 6927TIP3   OH242271   1.135   5.377  13.526 -0.2265  0.7525 -0.0770
 6927TIP3    H142272   1.042   5.356  13.521 -0.5132  2.2390 -2.5581
 6927TIP3    H242273   1.177   5.297  13.557 -2.0249 -0.8994 -1.7211
 6928TIP3   OH242274   0.523   1.835   5.472 -0.4229  0.2952  0.3242
 6928TIP3    H142275   0.452   1.826   5.536  0.1105 -0.6645  0.7936
 6928TIP3    H242276   0.602   1.841   5.526 -0.1220  1.2482 -0.2013
 6929TIP3   OH242277   4.672   4.898   2.044 -0.3708  0.1477 -0.5525
 6929TIP3    H142278   4.629   4.828   1.995 -1.0735 -0.8859  1.4388
 6929TIP3    H242279   4.627   4.900   2.128  1.7041  0.8926  0.6123
 6930TIP3   OH242280   3.495   5.941  16.282 -0.3225  0.2871 -0.1579
 6930TIP3    H142281   3.584   5.950  16.248 -0.4688  0.9832 -0.3820
 6930TIP3    H242282   3.466   6.032  16.297  0.2711  0.0384  3.2902
 6931TIP3   OH242283   2.059   2.966  15.349 -0.0783  0.2085 -0.0392
 6931TIP3    H142284   2.016   2.880  15.348 -0.3403  0.3361 -0.0168
 6931TIP3    H242285   2.083   2.979  15.441  0.2016  0.0441 -0.0887
 6932TIP3   OH242286   2.638   1.161   0.424  0.2141  0.5132  0.6379
 6932TIP3    H142287   2.710   1.101   0.445  0.2524  0.9165  1.7282
 6932TIP3    H242288   2.595   1.177   0.508 -0.7905  0.7478  0.0953
 6933TIP3   OH242289   2.348   0.231   4.629  0.2106 -0.2915 -1.1300
 6933TIP3    H142290   2.435   0.205   4.598  0.7620 -0.3919  0.4039
 6933TIP3    H242291   2.335   0.178   4.708 -0.9864  0.1804 -1.0017
 6934TIP3   OH242292   1.295   2.260   0.079 -0.4174 -0.2217 -0.5195
 6934TIP3    H142293   1.321   2.351   0.062 -1.7193  0.0762 -1.0836
 6934TIP3    H242294   1.203   2.257   0.053  0.0023 -2.1051 -2.0322
 6935TIP3   OH242295   1.328   0.254  12.812  0.3297 -0.1974  0.4189
 6935TIP3    H142296   1.278   0.305  12.747  0.5781 -0.1636  0.2513
 6935TIP3    H242297   1.332   0.166  12.775 -1.5347 -0.7688  1.4992
 6936TIP3   OH242298   1.554   0.891   0.944 -0.7310  0.0625 -0.4232
 6936TIP3    H142299   1.635   0.840   0.934 -0.4457  0.7148 -1.7061
 6936TIP3    H242300   1.524   0.906   0.854 -1.9240  0.4027  0.0138
 6937TIP3   OH242301   1.682   1.440   2.374 -0.4774 -0.1132 -0.4795
 6937TIP3    H142302   1.687   1.345   2.390  1.8044 -0.0400 -0.4915
 6937TIP3    H242303   1.607   1.469   2.426  0.4431 -1.5117  1.7600
 6938TIP3   OH242304   4.688   0.093  10.236 -0.2064  0.5681 -0.0717
 6938TIP3    H142305   4.642   0.083  10.319 -0.6465  0.5211 -0.3158
 6938TIP3    H242306   4.670   0.011  10.189 -1.0724  1.1296 -0.7443
 6939TIP3   OH242307   3.490   6.595  14.469  0.0920  0.2309 -0.5132
 6939TIP3    H142308   3.533   6.522  14.424  0.2993 -0.1728  0.3119
 6939TIP3    H242309   3.562   6.652  14.497  0.1040 -0.3577  0.7188
 6940TIP3   OH242310   4.513   5.769   3.123 -0.0636  0.5501 -0.3037
 6940TIP3    H142311   4.480   5.739   3.208  0.1427  0.3774 -0.2825
 6940TIP3    H242312   4.562   5.694   3.089 -1.6178 -0.0205 -1.3896
 6941TIP3   OH242313   3.997   1.400  16.904 -0.2085  0.3526  0.0984
 6941TIP3    H142314   4.034   1.319  16.938 -1.8077 -0.4927 -0.0776
 6941TIP3    H242315   3.921   1.417  16.959 -0.8456  0.8240 -0.8873
 6942TIP3   OH242316   4.294   0.189   5.883 -0.2008 -0.3543  0.4649
 6942TIP3    H142317   4.328   0.101   5.863 -0.0083  0.1028 -1.4692
 6942TIP3    H242318   4.208   0.173   5.921  0.7555 -1.4295  2.3285
 6943TIP3   OH242319   0.579   1.781  13.130  0.4245 -0.5234  0.0635
 6943TIP3    H142320   0.565   1.791  13.224 -0.9584 -2.1557  0.0811
 6943TIP3    H242321   0.491   1.789  13.092  0.7780 -1.1769 -0.9277
 6944TIP3   OH242322   3.430   6.365  15.195  0.5956  0.1184  0.6388
 6944TIP3    H142323   3.485   6.371  15.272  0.0259  1.2435  0.9814
 6944TIP3    H242324   3.345   6.400  15.223 -0.2490 -1.3619  0.0728
 6945TIP3   OH242325   3.598   5.203  15.703 -0.6485 -0.2311 -0.3677
 6945TIP3    H142326   3.687   5.236  15.709 -0.6080 -0.4578  0.3699
 6945TIP3    H242327   3.607   5.115  15.666 -0.6627  0.1356 -1.2712
 6946TIP3   OH242328   2.420   0.953  14.168  0.0110 -0.2154  0.0925
 6946TIP3    H142329   2.494   0.893  14.158 -0.4560 -0.8256  0.2540
 6946TIP3    H242330   2.356   0.922  14.104 -0.1289  0.2783 -0.0086
 6947TIP3   OH242331   0.977   4.170  10.559 -0.1306 -0.5473 -0.3233
 6947TIP3    H142332   0.980   4.223  10.638 -1.4847 -0.4491 -0.3160
 6947TIP3    H242333   0.884   4.156  10.543  0.1671 -2.2994 -0.7452
 6948TIP3   OH242334   2.510   5.170   4.295 -0.0458  0.2378 -0.3272
 6948TIP3    H142335   2.474   5.088   4.331  0.1038  0.4521  0.3290
 6948TIP3    H242336   2.585   5.142   4.243 -0.0932 -0.0595 -0.2397
 6949TIP3   OH242337   6.390   0.996  15.780 -0.5676  0.2935 -0.0129
 6949TIP3    H142338   6.458   0.952  15.727  1.5827  2.1223  1.0527
 6949TIP3    H242339   6.341   1.048  15.716 -0.4494 -0.4183 -0.7072
 6950TIP3   OH242340   3.466   4.450   6.803  0.4208 -0.0838  0.2676
 6950TIP3    H142341   3.443   4.477   6.715  0.6207 -0.0861  0.2137
 6950TIP3    H242342   3.412   4.504   6.860  0.2428 -0.1295  0.1424
 6951TIP3   OH242343   2.110   1.969   1.730 -0.0730  0.2162  0.1504
 6951TIP3    H142344   2.184   1.968   1.791  0.7412 -2.4488 -0.7163
 6951TIP3    H242345   2.036   1.938   1.782 -0.2591  1.4130  0.6330
 6952TIP3   OH242346   4.553   0.057  12.220  0.4306 -0.1168  0.0839
 6952TIP3    H142347   4.494   0.014  12.282 -0.3477 -0.1156 -0.6320
 6952TIP3    H242348   4.522   0.028  12.134  0.8160  0.7247 -0.3514
 6953TIP3   OH242349   3.392   3.829  14.632 -0.1376 -0.1111  0.1323
 6953TIP3    H142350   3.445   3.906  14.610  1.4857 -1.9658 -3.3815
 6953TIP3    H242351   3.454   3.767  14.672 -1.3678  0.2026  2.7093
 6954TIP3   OH242352   1.336   2.973   4.115 -0.5392 -0.3090  0.0127
 6954TIP3    H142353   1.240   2.979   4.113 -0.6046 -0.0783  2.1512
 6954TIP3    H242354   1.359   2.950   4.025 -2.5733 -0.0969 -0.6334
 6955TIP3   OH242355   5.726   2.354   3.013 -0.1669  0.5328  0.0277
 6955TIP3    H142356   5.803   2.402   2.984 -0.9096  1.5950 -0.2533
 6955TIP3    H242357   5.655   2.387   2.959 -0.6279 -1.3124 -0.5662
 6956TIP3   OH242358   4.367   2.654   6.002  0.0934  0.6009 -0.6867
 6956TIP3    H142359   4.309   2.609   6.063  0.6279  2.0369  0.9618
 6956TIP3    H242360   4.325   2.643   5.916 -2.1265  0.7820  0.3011
 6957TIP3   OH242361   6.416   4.242   5.725 -0.1498  0.3355  0.3622
 6957TIP3    H142362   6.398   4.205   5.812 -0.0017 -0.8573 -0.0916
 6957TIP3    H242363   6.334   4.229   5.677  0.3158 -0.6250 -0.2030
 6958TIP3   OH242364   3.233   2.562  16.775 -0.0486 -0.3603  0.1895
 6958TIP3    H142365   3.203   2.565  16.684 -0.0910 -0.7743  0.1907
 6958TIP3    H242366   3.172   2.619  16.822 -0.5911 -0.8808  0.1207
 6959TIP3   OH242367   4.556   4.758   6.286 -0.4158 -0.6121  0.1629
 6959TIP3    H142368   4.467   4.736   6.257 -0.1333  0.6243 -1.8667
 6959TIP3    H242369   4.563   4.719   6.373 -2.3680 -2.1635 -0.2871
 6960TIP3   OH242370   1.550   2.889   4.405  0.2570  0.3485  0.0002
 6960TIP3    H142371   1.598   2.869   4.485 -0.3974  0.6125  0.4695
 6960TIP3    H242372   1.482   2.821   4.400 -0.5263  1.0875  0.3758
 6961TIP3   OH242373   3.626   4.757  13.229 -0.4525  0.1284  0.8458
 6961TIP3    H142374   3.691   4.823  13.255 -2.2245  2.3293  0.0109
 6961TIP3    H242375   3.599   4.783  13.141 -2.3448 -0.8095  1.1061
 6962TIP3   OH242376   3.544   6.537   3.109 -0.2287  0.1191  0.2146
 6962TIP3    H142377   3.615   6.473   3.107 -1.8631 -1.7547 -0.6786
 6962TIP3    H242378   3.522   6.544   3.202  0.5320  0.0518  0.4088
 6963TIP3   OH242379   6.405   2.871   0.566  0.0138 -0.1454  0.3284
 6963TIP3    H142380   6.351   2.937   0.608  0.9995  0.5769  0.4871
 6963TIP3    H242381   6.364   2.788   0.591 -1.3938  0.3864 -0.1033
 6964TIP3   OH242382   2.221   0.908   2.408  0.0958  0.2719  0.2077
 6964TIP3    H142383   2.184   0.827   2.373  1.0656  0.4176 -1.2630
 6964TIP3    H242384   2.301   0.880   2.454  0.5027  0.3892 -0.4149
 6965TIP3   OH242385   4.130   6.023   2.443 -0.5661  0.3029 -0.5751
 6965TIP3    H142386   4.190   6.088   2.480 -0.7217  0.2689 -0.2657
 6965TIP3    H242387   4.077   6.073   2.380  0.1840  0.2155 -1.2977
 6966TIP3   OH242388   4.191   6.420  12.568  0.2984  0.5404 -0.1900
 6966TIP3    H142389   4.256   6.442  12.502 -0.8551 -0.6129 -1.7883
 6966TIP3    H242390   4.228   6.343  12.612  0.0378 -0.1321 -1.1126
 6967TIP3   OH242391   1.056   2.262  16.850 -0.1843  0.2240  0.2763
 6967TIP3    H142392   1.030   2.173  16.826 -0.0062 -0.0979  1.2369
 6967TIP3    H242393   1.151   2.264  16.837 -0.4051  0.7944 -1.3448
 6968TIP3   OH242394   1.908   0.492   1.035 -0.2655 -0.1990  0.1766
 6968TIP3    H142395   1.927   0.436   1.111  0.0362 -0.2129  0.0946
 6968TIP3    H242396   1.902   0.431   0.961 -1.5967 -0.2992  0.3477
 6969TIP3   OH242397   4.878   3.431  13.908  0.1821  0.5807 -0.1068
 6969TIP3    H142398   4.798   3.379  13.917  1.1160 -1.1108 -1.0585
 6969TIP3    H242399   4.908   3.413  13.819  1.1546  1.8780 -0.0676
 6970TIP3   OH242400   0.920   1.628  13.689  0.1346 -0.1433 -0.6357
 6970TIP3    H142401   0.877   1.646  13.772  0.4923 -0.7767 -0.3087
 6970TIP3    H242402   0.921   1.713  13.644 -0.5677  0.0840 -0.2435
 6971TIP3   OH242403   6.167   0.676   4.917 -0.1141 -0.5300 -0.2394
 6971TIP3    H142404   6.243   0.705   4.867  0.0790 -0.3078  0.1810
 6971TIP3    H242405   6.171   0.580   4.912  1.4677 -0.6359  1.6011
 6972TIP3   OH242406   4.011   4.414  13.837  0.0176  0.8751 -0.0624
 6972TIP3    H142407   3.971   4.470  13.903  0.9841  1.6030 -0.0703
 6972TIP3    H242408   4.104   4.438  13.838  0.4002 -0.4662 -0.3243
 6973TIP3   OH242409   0.412   4.245  13.318 -0.0745 -0.2126  0.0740
 6973TIP3    H142410   0.502   4.213  13.323 -0.2578 -1.0586 -1.3778
 6973TIP3    H242411   0.419   4.331  13.277  0.1267  0.0445  0.6423
 6974TIP3   OH242412   1.427   2.118   3.883 -0.5318  0.3889 -0.4467
 6974TIP3    H142413   1.350   2.071   3.915 -0.0409  0.2633  0.5800
 6974TIP3    H242414   1.390   2.188   3.829 -1.4165  0.6840  0.4843
 6975TIP3   OH242415   4.160   3.933  12.022  0.1767 -0.2916 -0.4254
 6975TIP3    H142416   4.125   3.857  12.069 -0.8038  1.1599  1.2827
 6975TIP3    H242417   4.193   3.991  12.090 -1.2716  1.8957 -1.4598
 6976TIP3   OH242418   5.433   2.573  15.960  0.2896  0.1018  0.3682
 6976TIP3    H142419   5.518   2.561  15.917  0.1968  0.5035  0.0679
 6976TIP3    H242420   5.428   2.667  15.977 -0.1295  0.0911  0.3192
 6977TIP3   OH242421   3.014   4.634   2.715 -0.0750 -0.0199  0.3826
 6977TIP3    H142422   3.015   4.634   2.619  1.4574  0.3170  0.3739
 6977TIP3    H242423   2.922   4.647   2.737 -0.5464 -0.6485 -1.0307
 6978TIP3   OH242424   0.070   0.080   6.018  0.7098 -0.3653 -0.4748
 6978TIP3    H142425  -0.022   0.106   6.015  0.4497 -1.2724 -0.4019
 6978TIP3    H242426   0.116   0.159   6.048  0.0517  0.3089 -1.2173
 6979TIP3   OH242427   0.417   4.765  11.544  0.6274 -0.0782  0.2708
 6979TIP3    H142428   0.405   4.806  11.458  2.0190 -2.0587 -0.9581
 6979TIP3    H242429   0.512   4.751  11.551  0.5501  0.1059  2.1872
 6980TIP3   OH242430   3.017   4.491  16.787 -0.3170  0.2706 -0.5040
 6980TIP3    H142431   2.991   4.448  16.869 -0.9915 -0.8962 -1.3045
 6980TIP3    H242432   2.942   4.548  16.766 -1.6360 -1.8842 -1.9708
 6981TIP3   OH242433   4.744   0.354   1.749 -0.0546  0.2640 -0.0333
 6981TIP3    H142434   4.701   0.434   1.777 -0.4286 -0.2911  1.0101
 6981TIP3    H242435   4.727   0.349   1.655  0.2633  1.5702 -0.1757
 6982TIP3   OH242436   4.655   5.797  15.119  0.6814 -0.5473 -0.2516
 6982TIP3    H142437   4.635   5.754  15.202  0.9028 -0.1348  0.0208
 6982TIP3    H242438   4.675   5.888  15.144 -0.8995  0.0248 -0.9137
 6983TIP3   OH242439   1.248   4.393   0.936  0.1338 -0.0853  0.1042
 6983TIP3    H142440   1.216   4.306   0.911 -0.4739  0.3610 -0.7541
 6983TIP3    H242441   1.342   4.390   0.919 -0.1439 -0.0247 -1.7185
 6984TIP3   OH242442   5.516   6.458   5.220 -0.2071 -0.2907  0.2235
 6984TIP3    H142443   5.549   6.435   5.132  0.1034  0.1400  0.2238
 6984TIP3    H242444   5.594   6.461   5.275 -0.1678  1.1682  0.1339
 6985TIP3   OH242445   5.929   5.176   3.679 -0.0456 -0.6679  0.0502
 6985TIP3    H142446   5.945   5.188   3.585  0.6549  0.2605  0.2741
 6985TIP3    H242447   5.962   5.256   3.719 -3.4580  0.5177  0.7876
 6986TIP3   OH242448   6.520   2.157  11.919 -0.2141 -0.1581  0.1944
 6986TIP3    H142449   6.461   2.230  11.904 -0.3377  0.5457  3.4039
 6986TIP3    H242450   6.607   2.193  11.905 -0.2328  0.9192  2.3534
 6987TIP3   OH242451   0.760   2.390  13.098 -0.1952 -0.2132  0.6307
 6987TIP3    H142452   0.840   2.337  13.105 -0.5245 -0.8846 -0.4817
 6987TIP3    H242453   0.787   2.477  13.127  1.4934  0.1151 -1.6811
 6988TIP3   OH242454   3.099   2.533  15.852  0.3708 -0.4206  0.4461
 6988TIP3    H142455   3.116   2.569  15.939 -0.2817 -1.5301  1.0602
 6988TIP3    H242456   3.186   2.511  15.818  0.7467  1.2940  0.2115
 6989TIP3   OH242457   2.681   3.806   2.449  0.1091  0.0843  0.0348
 6989TIP3    H142458   2.626   3.835   2.522 -0.8247 -0.3958 -0.4620
 6989TIP3    H242459   2.732   3.734   2.485 -1.3767 -1.1041 -0.1358
 6990TIP3   OH242460   3.061   5.444   4.030 -0.2896  0.3254  0.1695
 6990TIP3    H142461   3.114   5.522   4.045  0.6664 -0.3196  0.2571
 6990TIP3    H242462   2.997   5.445   4.101 -0.1304  0.9056  0.3108
 6991TIP3   OH242463   6.405   1.411  10.882 -0.6231  0.5202  0.0894
 6991TIP3    H142464   6.473   1.467  10.846 -1.5524  0.3499 -2.1250
 6991TIP3    H242465   6.449   1.329  10.902 -0.1938  0.2398 -1.7682
 6992TIP3   OH242466   4.288   1.274  10.411  0.2979  0.1963 -0.1183
 6992TIP3    H142467   4.344   1.197  10.427 -1.1341 -0.8587 -0.0276
 6992TIP3    H242468   4.211   1.259  10.465 -1.2737  0.2889 -2.2115
 6993TIP3   OH242469   3.440   1.908  16.123  0.0485  0.1739  0.2461
 6993TIP3    H142470   3.518   1.955  16.094 -0.1252  0.8691  0.8696
 6993TIP3    H242471   3.369   1.947  16.071  0.0246  0.0031  0.1518
 6994TIP3   OH242472   4.858   0.425  10.541  0.5839  0.2771 -0.0502
 6994TIP3    H142473   4.826   0.448  10.454  1.6279  2.7333  0.1161
 6994TIP3    H242474   4.799   0.472  10.601  1.2824  0.5300  0.4527
 6995TIP3   OH242475   4.401   0.967  11.490 -0.0750  0.7534 -0.2753
 6995TIP3    H142476   4.419   0.987  11.398 -2.9859 -0.9092 -1.3581
 6995TIP3    H242477   4.392   1.052  11.532 -1.1853  1.6192 -2.1420
 6996TIP3   OH242478   0.321   3.024  10.842  0.2791  0.3151 -0.0675
 6996TIP3    H142479   0.238   3.012  10.888  0.4406  0.7699  0.3448
 6996TIP3    H242480   0.382   2.966  10.888  0.3861  0.6021  0.1576
 6997TIP3   OH242481   6.256   2.160  12.050 -0.0168 -0.0092 -0.1255
 6997TIP3    H142482   6.347   2.162  12.020  0.1880 -0.5224  0.4521
 6997TIP3    H242483   6.225   2.072  12.029  0.2075 -0.4695  1.3728
 6998TIP3   OH242484   6.043   5.798  14.279  0.1041 -0.1887  0.1296
 6998TIP3    H142485   6.114   5.736  14.298 -0.7201 -1.1564  0.1295
 6998TIP3    H242486   6.067   5.877  14.327  1.5770 -0.2237 -0.4910
 6999TIP3   OH242487   1.047   1.000   0.203  0.1349 -0.1716 -0.1531
 6999TIP3    H142488   1.056   1.090   0.172  1.8022 -0.1092  0.4262
 6999TIP3    H242489   0.962   0.972   0.168  0.4183  0.9802 -1.9238
 7000TIP3   OH242490   5.402   4.545  12.533 -0.4426 -0.6191 -0.3737
 7000TIP3    H142491   5.337   4.614  12.526  0.7172  0.6466  0.7907
 7000TIP3    H242492   5.458   4.571  12.606  0.5412 -2.3695 -0.4370
 7001TIP3   OH242493   3.308   6.795   6.326  0.4171 -0.0614 -0.2378
 7001TIP3    H142494   3.320   6.890   6.330 -0.6707  0.0844 -0.0115
 7001TIP3    H242495   3.330   6.764   6.414  2.1972 -0.2263 -0.7049
 7002TIP3   OH242496   3.213   0.112   5.618  0.3265  0.2901  0.1142
 7002TIP3    H142497   3.233   0.192   5.569  0.6036  0.4382  0.4565
 7002TIP3    H242498   3.121   0.121   5.644  0.7573  1.2141  1.4302
 7003TIP3   OH242499   6.108   3.603   4.844  0.0409 -0.0450  0.4106
 7003TIP3    H142500   6.098   3.661   4.768 -2.1083  0.0666  0.7022
 7003TIP3    H242501   6.029   3.549   4.843 -0.0891  0.0084  2.5812
 7004TIP3   OH242502   4.937   5.491   6.196  0.3636 -0.3554  0.4779
 7004TIP3    H142503   4.941   5.397   6.174  0.2326 -0.2912  0.1754
 7004TIP3    H242504   4.844   5.508   6.210  0.4409 -0.3854  1.0513
 7005TIP3   OH242505   4.399   4.837  12.585 -0.3399  0.2090  0.6550
 7005TIP3    H142506   4.432   4.775  12.520 -2.4369 -1.6813  1.3094
 7005TIP3    H242507   4.308   4.814  12.598 -1.0087  2.9193  1.5943
 7006TIP3   OH242508   5.537   0.400  15.518 -0.2339  0.2639 -0.1257
 7006TIP3    H142509   5.447   0.425  15.536 -0.6673 -1.4040  0.1612
 7006TIP3    H242510   5.564   0.348  15.594  0.6976  0.0777 -0.5600
 7007TIP3   OH242511   5.627   4.315   4.680 -0.4964  0.9132  0.0426
 7007TIP3    H142512   5.695   4.248   4.673 -0.5877  0.8337 -0.0919
 7007TIP3    H242513   5.602   4.314   4.772 -1.1711  0.0886 -0.1335
 7008TIP3   OH242514   5.119   4.340  11.312  0.3150 -0.0339 -0.0011
 7008TIP3    H142515   5.028   4.339  11.281 -0.1080  0.8244  1.1184
 7008TIP3    H242516   5.170   4.369  11.236 -0.5283  0.8193 -0.2646
 7009TIP3   OH242517   5.820   5.794  16.162 -0.6359 -0.2711  0.5235
 7009TIP3    H142518   5.815   5.720  16.103  1.5584 -0.8907  1.0287
 7009TIP3    H242519   5.763   5.769  16.236  1.4237 -2.3428  1.5361
 7010TIP3   OH242520   1.595   4.647  14.647 -0.4460  0.1030 -0.0233
 7010TIP3    H142521   1.617   4.609  14.562  2.5513  0.3562  0.5357
 7010TIP3    H242522   1.593   4.572  14.707 -0.5196  0.1536  0.0385
 7011TIP3   OH242523   2.206   2.706  16.888 -0.6620 -0.1207  0.4454
 7011TIP3    H142524   2.244   2.623  16.861 -0.9354  0.0916 -0.6120
 7011TIP3    H242525   2.265   2.739  16.956 -0.1553 -0.8152  0.3459
 7012TIP3   OH242526   5.850   4.175   5.607  0.1905  0.2356 -0.5756
 7012TIP3    H142527   5.900   4.099   5.581 -0.0617 -1.0043  2.1933
 7012TIP3    H242528   5.759   4.153   5.587  0.2646  0.5109 -1.2453
 7013TIP3   OH242529   6.557   1.253   0.037  0.1252  0.1731 -0.6583
 7013TIP3    H142530   6.595   1.262  -0.050 -1.2164  0.2698 -1.2509
 7013TIP3    H242531   6.485   1.191   0.026 -0.0996  0.2296  0.3731
 7014TIP3   OH242532   4.616   2.059   6.516  0.1194 -0.0157 -0.5688
 7014TIP3    H142533   4.557   2.130   6.489  2.1118  1.7700 -0.4384
 7014TIP3    H242534   4.580   2.029   6.600 -2.3544 -1.1493 -1.9306
 7015TIP3   OH242535   3.104   4.044  16.813 -0.0445  0.2947 -0.6464
 7015TIP3    H142536   3.039   3.980  16.784 -1.3380  1.0022  0.6141
 7015TIP3    H242537   3.184   3.992  16.825 -0.5266 -0.7092 -1.5706
 7016TIP3   OH242538   3.056   2.843  15.869  0.3048  0.0057  0.3724
 7016TIP3    H142539   3.005   2.891  15.935  0.6417  1.8690 -0.6713
 7016TIP3    H242540   3.133   2.812  15.917  1.0738  2.2275  0.7035
 7017TIP3   OH242541   1.348   5.817  12.274  0.2021  0.1974  0.2859
 7017TIP3    H142542   1.347   5.895  12.218  1.0144  1.4194  1.8889
 7017TIP3    H242543   1.295   5.842  12.350  0.3241 -0.8839  0.7415
 7018TIP3   OH242544   3.356   4.955  15.715 -0.0608 -0.4467  0.1807
 7018TIP3    H142545   3.328   4.959  15.624  0.2795  0.8867  0.1069
 7018TIP3    H242546   3.445   4.921  15.712 -0.0177 -0.3187 -0.0015
 7019TIP3   OH242547   1.950   0.693   5.378  0.3111  0.6465 -0.0142
 7019TIP3    H142548   1.945   0.673   5.284  0.9306 -0.5477  0.1830
 7019TIP3    H242549   1.998   0.776   5.382  0.5646  0.5459 -0.7470
 7020TIP3   OH242550   4.543   3.049   2.243  0.9656  0.0510  0.4259
 7020TIP3    H142551   4.461   3.088   2.274  1.2311 -0.8623  2.4948
 7020TIP3    H242552   4.609   3.117   2.257  0.9092  0.0013  0.9822
 7021TIP3   OH242553   2.202   1.896   4.148  0.0839  0.4439  0.2473
 7021TIP3    H142554   2.213   1.985   4.182 -1.9642  0.4398  1.0151
 7021TIP3    H242555   2.112   1.873   4.168  0.0003 -1.1167 -1.6404
 7022TIP3   OH242556   2.066   1.687   1.035 -0.6046 -0.6240 -0.4656
 7022TIP3    H142557   2.095   1.730   1.115  0.0420  1.0880 -1.5687
 7022TIP3    H242558   1.975   1.663   1.052 -0.7444  0.5074  0.4746
 7023TIP3   OH242559   1.301   5.914  13.403  0.2898  0.0553 -0.2223
 7023TIP3    H142560   1.396   5.926  13.401  0.2282  0.9508  1.1299
 7023TIP3    H242561   1.267   5.995  13.441 -1.0063 -0.3190 -0.5476
 7024TIP3   OH242562   5.762   2.297  12.433 -0.2753 -0.2011  0.7638
 7024TIP3    H142563   5.703   2.231  12.397  0.4970 -0.6695  0.3226
 7024TIP3    H242564   5.782   2.265  12.521  0.6620 -0.9609  0.2978
 7025TIP3   OH242565   0.941   1.809   5.469 -0.0999  0.2526  0.0649
 7025TIP3    H142566   0.919   1.848   5.384  1.3828 -1.7969 -1.3556
 7025TIP3    H242567   0.868   1.832   5.526 -0.7335  2.4137 -1.5087
 7026TIP3   OH242568   1.710   4.196  15.822 -0.3265 -0.2097 -0.1528
 7026TIP3    H142569   1.634   4.246  15.850 -0.2899 -0.5140  0.4956
 7026TIP3    H242570   1.785   4.242  15.860 -0.2453 -0.3975 -0.0875
 7027TIP3   OH242571   5.857   0.712   6.115  0.2285 -0.4000  0.2288
 7027TIP3    H142572   5.872   0.629   6.160 -0.1268  0.6908  2.5200
 7027TIP3    H242573   5.942   0.756   6.115  0.1127 -0.1698  0.3337
 7028TIP3   OH242574   2.389   0.696  11.327 -0.2097  0.5804 -0.2418
 7028TIP3    H142575   2.462   0.733  11.276 -0.0936 -0.9891 -1.2957
 7028TIP3    H242576   2.346   0.772  11.365  0.7896  1.6983 -1.2239
 7029TIP3   OH242577   2.690   2.511  12.088  0.3860 -0.0921  0.6558
 7029TIP3    H142578   2.710   2.441  12.150 -0.2616  0.2683  1.2884
 7029TIP3    H242579   2.775   2.548  12.065  0.5358  0.9940  2.7764
 7030TIP3   OH242580   6.743   0.047   4.890  0.3876  0.9871 -0.3219
 7030TIP3    H142581   6.801  -0.024   4.918 -0.1493  0.0760 -1.4239
 7030TIP3    H242582   6.770   0.065   4.800 -1.1787  0.3477 -0.9590
 7031TIP3   OH242583   1.264   3.780  16.373 -0.5681 -0.2157  0.2122
 7031TIP3    H142584   1.265   3.848  16.440 -0.3617 -0.1215  0.1134
 7031TIP3    H242585   1.183   3.794  16.325 -0.1783  0.4130 -0.2747
 7032TIP3   OH242586   5.585   2.590   2.136  0.4187  0.1306  0.0306
 7032TIP3    H142587   5.505   2.621   2.094 -0.8860  0.0253  2.2408
 7032TIP3    H242588   5.634   2.547   2.066 -1.2040  0.6579 -1.5165
 7033TIP3   OH242589   4.394   6.500   4.504  0.1794  0.4074 -0.6072
 7033TIP3    H142590   4.424   6.409   4.496 -0.9328 -0.2004  1.4651
 7033TIP3    H242591   4.300   6.496   4.486  0.5227  1.6434 -3.0923
 7034TIP3   OH242592   5.686   1.018  13.272  0.9574  0.1405  0.0355
 7034TIP3    H142593   5.776   1.018  13.239  0.6251  4.0625 -1.3429
 7034TIP3    H242594   5.688   1.078  13.347 -0.7055  1.2690 -0.7830
 7035TIP3   OH242595   4.289   6.562  17.016  0.5319  0.1974  0.1777
 7035TIP3    H142596   4.316   6.654  17.026 -1.0122  0.5772  1.3262
 7035TIP3    H242597   4.358   6.512  17.059  1.1546  0.8606 -0.0374
 7036TIP3   OH242598   0.440   1.486   0.898  0.4087  0.2240  0.1634
 7036TIP3    H142599   0.422   1.560   0.841  1.7702 -0.3016 -1.0108
 7036TIP3    H242600   0.355   1.443   0.910 -0.0762  0.9380 -0.6320
 7037TIP3   OH242601   2.990   5.430  12.557 -0.5968  0.6858 -0.7330
 7037TIP3    H142602   2.997   5.525  12.546 -1.1968  0.7299 -0.7815
 7037TIP3    H242603   2.984   5.396  12.467  1.4362  0.4294 -0.8171
 7038TIP3   OH242604   2.445   0.017  15.493 -0.2222  0.2792 -0.7463
 7038TIP3    H142605   2.499  -0.016  15.564 -1.6970 -2.1800 -0.6330
 7038TIP3    H242606   2.498   0.085  15.451  2.0964 -0.6355  0.5300
 7039TIP3   OH242607   5.710   1.782   5.926  0.4032 -0.6274 -0.2509
 7039TIP3    H142608   5.674   1.769   6.014  0.7113  0.3040  0.0236
 7039TIP3    H242609   5.712   1.877   5.914 -0.0176 -0.7531 -1.4375
 7040TIP3   OH242610   3.848   2.368  13.973  0.1296 -0.2366  0.1947
 7040TIP3    H142611   3.939   2.389  13.995 -0.0067 -1.8924  2.8770
 7040TIP3    H242612   3.854   2.316  13.893  1.3627  0.9291 -0.5091
 7041TIP3   OH242613   4.013   4.495  12.623 -0.0584  0.4195  0.6464
 7041TIP3    H142614   3.929   4.536  12.643 -1.2850 -1.1294 -0.9802
 7041TIP3    H242615   4.075   4.568  12.621 -1.9898  2.1746 -1.4139
 7042TIP3   OH242616   1.868   0.462   5.530  0.2782  0.3765 -0.5866
 7042TIP3    H142617   1.833   0.407   5.460 -0.7322 -0.2614  0.3920
 7042TIP3    H242618   1.863   0.551   5.495 -1.1430  0.1743 -0.9700
 7043TIP3   OH242619   5.623   3.970   1.632 -0.5851  0.2799 -0.0145
 7043TIP3    H142620   5.667   3.891   1.601 -0.4254  0.0834  0.6876
 7043TIP3    H242621   5.538   3.940   1.663  0.2766 -0.0189  2.2736
 7044TIP3   OH242622   1.719   4.330   5.640 -0.1121 -0.1721 -0.1667
 7044TIP3    H142623   1.770   4.412   5.640  0.4185 -0.4634  1.9760
 7044TIP3    H242624   1.785   4.261   5.643 -0.6061 -0.6360  0.1028
 7045TIP3   OH242625   1.271   1.582   6.171 -0.6744  0.4449 -0.3857
 7045TIP3    H142626   1.307   1.649   6.114  0.9661 -1.2027 -1.3942
 7045TIP3    H242627   1.190   1.620   6.204 -0.0875  2.6769 -1.3373
 7046TIP3   OH242628   5.490   5.048   5.688 -0.7494 -0.0994 -0.2667
 7046TIP3    H142629   5.399   5.073   5.704  0.1185  1.3485  3.4682
 7046TIP3    H242630   5.498   4.960   5.724 -0.5957 -0.0680 -0.2219
 7047TIP3   OH242631   3.425   2.749  14.593  0.6497  0.3584  0.0551
 7047TIP3    H142632   3.503   2.754  14.647  0.5827  1.6724  0.0676
 7047TIP3    H242633   3.371   2.682  14.634  1.1143  0.5103  0.9225
 7048TIP3   OH242634   5.698   5.480   6.473 -0.3443 -0.2529  0.0094
 7048TIP3    H142635   5.672   5.410   6.532 -0.4657  0.0702  0.3462
 7048TIP3    H242636   5.717   5.554   6.531  2.5813 -0.8130 -0.0551
 7049TIP3   OH242637   1.276   2.512  16.633 -0.7549  0.3231  0.1718
 7049TIP3    H142638   1.239   2.575  16.695 -1.0435 -2.1213  2.7077
 7049TIP3    H242639   1.218   2.517  16.557 -1.8936  1.7294  1.0756
 7050TIP3   OH242640   6.143   4.864  12.737  0.4092 -0.0195 -0.5088
 7050TIP3    H142641   6.231   4.858  12.774 -0.0053 -0.2737  0.4736
 7050TIP3    H242642   6.085   4.867  12.814 -0.5021 -0.8694 -1.1348
 7051TIP3   OH242643   4.472   3.502  14.010 -0.1849  0.2659 -0.2184
 7051TIP3    H142644   4.486   3.586  13.966 -1.8384  0.1211 -1.0773
 7051TIP3    H242645   4.383   3.477  13.986 -0.3232 -0.9289  1.4053
 7052TIP3   OH242646   5.185   6.554  16.151  0.1899 -0.7484 -0.8124
 7052TIP3    H142647   5.247   6.621  16.120  1.7183 -0.7106  2.0347
 7052TIP3    H242648   5.102   6.602  16.160  1.2604  0.8865  1.2350
 7053TIP3   OH242649   0.400   5.661   5.192  0.0156 -0.0591 -0.5120
 7053TIP3    H142650   0.336   5.676   5.122 -0.5129 -0.7983 -0.2126
 7053TIP3    H242651   0.388   5.735   5.251 -0.0895  0.1607 -0.8043
 7054TIP3   OH242652   4.417   1.419  12.810  0.7051 -0.2317  0.2511
 7054TIP3    H142653   4.425   1.443  12.718  1.6229 -1.6589 -0.0823
 7054TIP3    H242654   4.504   1.435  12.847  1.0548 -1.8902  0.2566
 7055TIP3   OH242655   5.291   0.563   4.794 -0.2755  0.1304  0.6325
 7055TIP3    H142656   5.315   0.471   4.787 -1.2579 -0.2079  1.4737
 7055TIP3    H242657   5.202   0.568   4.758 -0.6130  0.5557  1.4900
 7056TIP3   OH242658   3.879   2.058  11.299  0.3950 -0.0788 -0.1013
 7056TIP3    H142659   3.878   2.145  11.259 -0.0456 -0.5724 -1.2211
 7056TIP3    H242660   3.922   2.002  11.234  0.2008 -0.7997  0.3733
 7057TIP3   OH242661   1.910   4.608  14.656 -0.2796 -0.0599  0.3847
 7057TIP3    H142662   1.968   4.649  14.721 -0.0509  0.3741 -0.0843
 7057TIP3    H242663   1.844   4.674  14.638  0.0094  0.0608 -0.2733
 7058TIP3   OH242664   0.608   4.393   5.325 -0.3234  0.0622 -0.1620
 7058TIP3    H142665   0.685   4.401   5.268 -0.4203  2.3046 -0.0402
 7058TIP3    H242666   0.550   4.464   5.298 -0.8562  0.5217  1.9867
 7059TIP3   OH242667   2.863   1.863   0.426  0.6509 -0.3560 -0.5748
 7059TIP3    H142668   2.838   1.934   0.486 -1.6266 -1.4201 -0.1511
 7059TIP3    H242669   2.937   1.820   0.468 -0.3327 -0.5271  1.0639
 7060TIP3   OH242670   4.190   2.635   4.748  0.2832  0.4499 -0.2755
 7060TIP3    H142671   4.276   2.600   4.770  0.1650  0.3918  0.1021
 7060TIP3    H242672   4.150   2.656   4.833 -1.0029 -1.7164 -0.2742
 7061TIP3   OH242673   0.259   1.827  15.611 -0.4210 -0.3494  0.2036
 7061TIP3    H142674   0.194   1.808  15.679 -0.3270 -0.8679  0.1566
 7061TIP3    H242675   0.260   1.749  15.557  0.9662 -0.7793  0.7964
 7062TIP3   OH242676   1.904   2.932  13.948  0.1604 -0.1419 -0.2742
 7062TIP3    H142677   1.979   2.958  14.003  1.1239 -1.7801 -0.7278
 7062TIP3    H242678   1.901   2.836  13.956 -1.6003 -0.1539 -0.6690
 7063TIP3   OH242679   2.185   5.772  12.677  0.0385 -0.2207 -0.3622
 7063TIP3    H142680   2.123   5.824  12.626 -1.2049 -1.1711  0.1191
 7063TIP3    H242681   2.179   5.806  12.766  0.0821 -0.4200 -0.2816
 7064TIP3   OH242682   1.655   4.956   4.002  0.1306 -0.0367  0.3974
 7064TIP3    H142683   1.611   4.925   4.081 -0.3893  0.9492  0.5204
 7064TIP3    H242684   1.602   4.924   3.930 -0.0483  0.0382  0.4960
 7065TIP3   OH242685   3.177   4.841  16.426  0.4270  0.0559 -0.3274
 7065TIP3    H142686   3.087   4.813  16.407 -0.0856  1.0917  0.4925
 7065TIP3    H242687   3.215   4.857  16.339  0.0277 -0.9428 -0.7125
 7066TIP3   OH242688   3.772   5.579   1.282  0.2271  0.5782 -0.1909
 7066TIP3    H142689   3.718   5.579   1.203 -0.3954  0.1693  0.2292
 7066TIP3    H242690   3.852   5.534   1.256 -1.0089 -1.9427  0.0901
 7067TIP3   OH242691   3.008   3.136  14.989  0.4170  0.0443  0.7641
 7067TIP3    H142692   2.921   3.132  15.030  0.7152 -1.4451  1.3091
 7067TIP3    H242693   3.069   3.112  15.058  1.2567  0.7852  0.3056
 7068TIP3   OH242694   4.647   2.922  12.142 -0.0616 -0.1145 -0.1090
 7068TIP3    H142695   4.720   2.894  12.197 -0.0661  0.1073  0.0099
 7068TIP3    H242696   4.593   2.975  12.200 -0.3164 -0.2774 -0.1976
 7069TIP3   OH242697   4.751   1.237  14.945 -0.0647 -0.2383 -0.1120
 7069TIP3    H142698   4.733   1.286  15.025  0.1140  0.7116 -0.6383
 7069TIP3    H242699   4.846   1.232  14.942 -0.0513 -3.2006  1.4434
 7070TIP3   OH242700   6.131   3.377   0.161  0.5550  0.2862 -0.5779
 7070TIP3    H142701   6.219   3.385   0.124  0.3482 -0.8852 -1.3704
 7070TIP3    H242702   6.144   3.387   0.255  1.6104 -0.4128 -0.6296
 7071TIP3   OH242703   4.459   0.916   1.086 -0.2434 -0.1386 -0.2748
 7071TIP3    H142704   4.443   0.867   1.006 -0.3016 -1.0525  0.2757
 7071TIP3    H242705   4.536   0.875   1.125 -0.5470 -0.0883  0.4121
 7072TIP3   OH242706   4.210   1.078  10.744  0.1783 -0.0194 -0.0434
 7072TIP3    H142707   4.186   1.160  10.700  0.6335  0.6750  0.9585
 7072TIP3    H242708   4.134   1.021  10.730 -1.4737  1.5899  1.7546
 7073TIP3   OH242709   4.893   2.996  13.910 -1.1176  0.0443  0.0158
 7073TIP3    H142710   4.830   2.970  13.977  0.2788 -2.5150  0.4912
 7073TIP3    H242711   4.900   2.919  13.854  2.0384 -0.0677  0.3986
 7074TIP3   OH242712   0.750   3.163  14.670  0.2427  0.2246  0.6053
 7074TIP3    H142713   0.772   3.194  14.758  2.9916 -0.6233  0.3015
 7074TIP3    H242714   0.834   3.154  14.626 -1.1137  1.5345 -2.4878
 7075TIP3   OH242715   5.665   6.268  15.080  0.0597 -0.1843  0.0056
 7075TIP3    H142716   5.615   6.337  15.036  0.2962  0.3873  0.6121
 7075TIP3    H242717   5.725   6.315  15.137  0.1400 -0.8993  0.5272
 7076TIP3   OH242718   5.818   6.604  14.967 -0.2581  0.8768  0.6629
 7076TIP3    H142719   5.845   6.609  15.059 -1.3486 -0.6852  1.1221
 7076TIP3    H242720   5.846   6.517  14.939 -1.4036  0.6852  0.0385
 7077TIP3   OH242721   0.472   0.244  11.675  0.0957 -0.6747 -0.1130
 7077TIP3    H142722   0.430   0.329  11.680  1.4845 -0.0370  1.0949
 7077TIP3    H242723   0.436   0.205  11.595  0.0388  1.3579 -1.1422
 7078TIP3   OH242724   0.658   2.140   0.177 -0.0452  0.8769  0.1281
 7078TIP3    H142725   0.709   2.180   0.248 -1.6391  0.5117  1.5581
 7078TIP3    H242726   0.582   2.197   0.167 -0.1936  0.5290 -0.8193
 7079TIP3   OH242727   4.571   4.375  12.917  0.0699  0.2201 -0.5588
 7079TIP3    H142728   4.494   4.392  12.863 -0.1988 -0.0369 -0.2610
 7079TIP3    H242729   4.583   4.280  12.912 -0.1887  0.1399  0.1333
 7080TIP3   OH242730   1.917   5.240   1.037  0.1661  0.1973  0.3692
 7080TIP3    H142731   1.937   5.147   1.020  2.7634  0.7709 -0.1826
 7080TIP3    H242732   1.865   5.267   0.962 -1.5778 -1.0227  1.0597
 7081TIP3   OH242733   4.695   5.304   6.079  0.6880  0.3177  0.0926
 7081TIP3    H142734   4.623   5.251   6.114  0.2804  0.0230 -1.1320
 7081TIP3    H242735   4.773   5.268   6.121  0.1301  0.7385  1.5546
 7082TIP3   OH242736   3.336   0.783   2.021  0.2342 -0.1763 -0.0353
 7082TIP3    H142737   3.352   0.702   2.070  1.0792 -0.5755 -0.9400
 7082TIP3    H242738   3.422   0.809   1.989 -0.0332  1.0775  0.2064
 7083TIP3   OH242739   4.461   0.509  16.206  0.1983 -0.2030 -0.2344
 7083TIP3    H142740   4.495   0.420  16.217  1.7826  0.4147  0.2255
 7083TIP3    H242741   4.397   0.502  16.136 -0.6627 -1.9383  0.6778
 7084TIP3   OH242742   1.717   3.961  14.899 -0.3138  0.1533  0.2856
 7084TIP3    H142743   1.723   3.929  14.989 -1.5223  0.0230  0.3381
 7084TIP3    H242744   1.623   3.965  14.881 -0.0806 -0.6278 -1.2631
 7085TIP3   OH242745   4.462   5.561   2.749  0.4136  0.1806  0.6182
 7085TIP3    H142746   4.406   5.531   2.677  0.4446  2.5112 -0.4861
 7085TIP3    H242747   4.501   5.481   2.784 -0.3884 -1.1328 -1.3020
 7086TIP3   OH242748   2.897   2.118   5.737  0.2934  0.0590 -0.6020
 7086TIP3    H142749   2.828   2.182   5.750 -0.1865 -0.4877 -0.4024
 7086TIP3    H242750   2.939   2.109   5.822 -0.5857 -0.9485 -0.2490
 7087TIP3   OH242751   5.817   5.400  11.796  0.8997 -0.1870  0.2570
 7087TIP3    H142752   5.777   5.321  11.832 -0.1553  0.0338 -0.3736
 7087TIP3    H242753   5.743   5.449  11.759  1.7825  0.1519 -1.1186
 7088TIP3   OH242754   2.731   2.131   2.169 -0.4287  0.3745  0.5904
 7088TIP3    H142755   2.672   2.169   2.235  0.4946 -1.0547  2.3131
 7088TIP3    H242756   2.816   2.170   2.188 -0.3547  0.7607 -0.4787
 7089TIP3   OH242757   4.269   4.646   0.915  0.0725  0.5147 -0.0281
 7089TIP3    H142758   4.335   4.659   0.983  0.9377  0.2619 -0.8089
 7089TIP3    H242759   4.280   4.555   0.888  0.3676  0.8707 -1.1493
 7090TIP3   OH242760   1.090   6.754   3.796  0.0262  0.0782 -0.1100
 7090TIP3    H142761   1.154   6.820   3.770  0.8620 -0.6545  0.0808
 7090TIP3    H242762   1.007   6.787   3.761  0.3876  1.3511  0.1914
 7091TIP3   OH242763   3.388   1.417   5.075 -0.1603  0.8862 -0.1553
 7091TIP3    H142764   3.369   1.471   5.152 -0.9049  0.9635 -0.3902
 7091TIP3    H242765   3.306   1.372   5.056 -0.2796  1.5947 -1.4697
 7092TIP3   OH242766   5.482   5.054   2.817  0.3256  0.4137  0.1380
 7092TIP3    H142767   5.483   4.958   2.812 -0.8423  0.3861  0.2661
 7092TIP3    H242768   5.419   5.074   2.886  0.2196  1.2925 -0.2010
 7093TIP3   OH242769   6.589   0.062  16.913 -0.3382  0.7371 -0.1263
 7093TIP3    H142770   6.630   0.079  16.828 -0.2644  0.7251 -0.0928
 7093TIP3    H242771   6.500   0.035  16.891  0.1270 -0.7606 -0.2844
 7094TIP3   OH242772   6.109   0.509   5.201 -0.2297  0.1074  0.1090
 7094TIP3    H142773   6.141   0.537   5.115 -0.1854 -0.2092  0.0198
 7094TIP3    H242774   6.173   0.444   5.230  0.6104  1.3152  1.0713
 7095TIP3   OH242775   4.477   5.841   2.792  1.0942  0.3756  0.3205
 7095TIP3    H142776   4.397   5.863   2.840  0.0952 -0.4396 -0.9283
 7095TIP3    H242777   4.486   5.747   2.801  0.6179  0.1334 -1.4750
 7096TIP3   OH242778   2.452   3.973  15.235 -0.0135  0.1655  0.2385
 7096TIP3    H142779   2.473   3.916  15.162  0.1506 -0.3902  0.7111
 7096TIP3    H242780   2.527   4.033  15.241 -0.4096  0.7562 -0.5630
 7097TIP3   OH242781   1.088   6.180   2.432 -0.2151  0.1579  0.7766
 7097TIP3    H142782   1.045   6.143   2.509 -0.6003  0.3771  0.6716
 7097TIP3    H242783   1.044   6.264   2.418 -0.6130 -0.1898 -0.0927
 7098TIP3   OH242784   2.395   1.930  14.900  0.0085  0.2045  0.4479
 7098TIP3    H142785   2.478   1.922  14.852 -0.4637 -0.1164 -0.3266
 7098TIP3    H242786   2.375   2.024  14.896  0.8412  0.4432  1.5206
 7099TIP3   OH242787   3.881   6.453   5.928 -0.4110  0.0281 -0.1416
 7099TIP3    H142788   3.839   6.539   5.930  1.3902  0.9856 -1.1850
 7099TIP3    H242789   3.968   6.467   5.965  0.5689 -0.9020 -1.9253
 7100TIP3   OH242790   4.831   1.523  13.441  0.6724  0.3174 -0.2495
 7100TIP3    H142791   4.836   1.546  13.348 -3.6789  2.7197 -0.1317
 7100TIP3    H242792   4.850   1.605  13.487  0.7513 -0.3453  0.9492
 7101TIP3   OH242793   6.538   3.587  12.614 -0.0927 -0.3928  0.8008
 7101TIP3    H142794   6.450   3.624  12.626 -0.0105  1.0351 -2.0615
 7101TIP3    H242795   6.593   3.664  12.597  0.6659 -1.4791 -2.4185
 7102TIP3   OH242796   4.752   4.014   1.519  0.7337  0.1382 -0.3637
 7102TIP3    H142797   4.737   4.079   1.450  0.8378 -1.0633 -1.5431
 7102TIP3    H242798   4.689   3.945   1.502  2.4500 -1.3933 -0.8322
 7103TIP3   OH242799   2.410   1.598   6.297 -0.2165 -0.1907 -0.2709
 7103TIP3    H142800   2.393   1.520   6.244  0.2810  0.2097 -1.0367
 7103TIP3    H242801   2.446   1.565   6.379 -0.2034 -0.7736 -0.5121
 7104TIP3   OH242802   1.009   2.159  15.484 -0.1233  0.0750  0.2052
 7104TIP3    H142803   1.030   2.199  15.400 -0.6606 -0.5849 -0.2615
 7104TIP3    H242804   1.092   2.156  15.531  0.1024  0.8420 -0.1235
 7105TIP3   OH242805   5.234   5.779  11.040 -0.2110 -0.1487 -0.1813
 7105TIP3    H142806   5.237   5.874  11.032  0.2958 -0.1292  0.1290
 7105TIP3    H242807   5.279   5.747  10.962  0.2742 -0.1035  0.0698
 7106TIP3   OH242808   2.117   3.832  11.421  0.5644  0.1069 -0.2938
 7106TIP3    H142809   2.204   3.864  11.396 -0.0384  2.0741 -0.0434
 7106TIP3    H242810   2.081   3.796  11.340  1.4939 -0.4584 -0.4653
 7107TIP3   OH242811   5.523   1.845   4.162 -0.3405 -0.0238  0.5726
 7107TIP3    H142812   5.550   1.891   4.083 -0.0331 -0.1604  0.5980
 7107TIP3    H242813   5.588   1.871   4.228  0.2955 -1.1041  0.3918
 7108TIP3   OH242814   5.556   4.187   1.169 -0.3432 -0.0633  0.3241
 7108TIP3    H142815   5.552   4.188   1.264  0.3803  0.8655  0.3583
 7108TIP3    H242816   5.555   4.094   1.146 -0.5758 -0.2934  1.2303
 7109TIP3   OH242817   3.121   6.645   0.275  0.0978 -0.1576  0.3010
 7109TIP3    H142818   3.199   6.677   0.322 -0.9411  0.9961  1.3027
 7109TIP3    H242819   3.096   6.718   0.218  1.5350 -1.6511 -2.4472
 7110TIP3   OH242820   3.954   3.882  12.708 -0.1374 -0.5575 -0.1769
 7110TIP3    H142821   3.909   3.914  12.630  1.2801  0.2963 -0.6764
 7110TIP3    H242822   3.961   3.787  12.695 -0.3851 -0.4914 -0.8288
 7111TIP3   OH242823   5.896   0.443  17.088  0.2978 -0.1597 -0.1763
 7111TIP3    H142824   5.827   0.381  17.066 -0.2080  0.1021  0.6308
 7111TIP3    H242825   5.929   0.414  17.173  1.3986 -0.4606 -0.6801
 7112TIP3   OH242826   6.105   5.312  12.584 -0.2465  0.5482  0.3096
 7112TIP3    H142827   6.111   5.225  12.543  0.1902  0.4043  0.6687
 7112TIP3    H242828   6.169   5.365  12.537 -1.9130  1.2538 -1.2729
 7113TIP3   OH242829   3.942   6.644   2.524 -0.0649  0.2165  0.4797
 7113TIP3    H142830   4.000   6.596   2.466 -0.7852 -0.3971  0.2465
 7113TIP3    H242831   3.948   6.600   2.608  2.5244  2.3055  1.5258
 7114TIP3   OH242832   2.761   2.715  17.268 -0.5059 -0.1404  0.0570
 7114TIP3    H142833   2.819   2.712  17.344 -1.1893 -0.1957  0.5868
 7114TIP3    H242834   2.735   2.623  17.254  0.4020 -0.2712 -0.8703
 7115TIP3   OH242835   4.021   3.209   1.787 -0.3332  0.0522  0.4100
 7115TIP3    H142836   4.095   3.225   1.846  0.0624  0.6644 -0.2411
 7115TIP3    H242837   3.983   3.295   1.772 -0.4705 -0.1084 -0.1801
 7116TIP3   OH242838   2.095   2.546  15.795  0.0885  0.1099  0.1723
 7116TIP3    H142839   2.147   2.606  15.848  1.1626 -0.5864 -0.0544
 7116TIP3    H242840   2.138   2.546  15.709 -0.0824 -0.7345  0.0771
 7117TIP3   OH242841   1.254   2.742   3.502  0.2036 -0.3486  0.3362
 7117TIP3    H142842   1.216   2.827   3.478  0.2152 -0.3995  0.1388
 7117TIP3    H242843   1.184   2.679   3.485  0.6275 -0.5460 -0.8043
 7118TIP3   OH242844   3.769   6.481  11.264 -0.3542 -0.2844  0.0810
 7118TIP3    H142845   3.684   6.525  11.259 -0.4396 -0.0669  2.3227
 7118TIP3    H242846   3.833   6.551  11.249 -0.5239 -0.4155 -1.4343
 7119TIP3   OH242847   6.589   2.404  15.411 -0.0425  0.5001 -0.0699
 7119TIP3    H142848   6.680   2.380  15.426 -0.3425 -0.4734  0.2176
 7119TIP3    H242849   6.554   2.421  15.498 -0.0657  1.1678 -0.2022
 7120TIP3   OH242850   0.921   5.088   2.173 -0.2542  0.2504  0.0533
 7120TIP3    H142851   0.939   5.015   2.233  0.4008  1.2336  1.0742
 7120TIP3    H242852   0.928   5.166   2.227  1.3462  1.2514 -1.5009
 7121TIP3   OH242853   0.241   2.126  12.786  0.0697  0.0676  0.1584
 7121TIP3    H142854   0.239   2.205  12.839 -1.1083 -1.2519  2.2415
 7121TIP3    H242855   0.164   2.132  12.729 -0.9899 -0.3012  1.5105
 7122TIP3   OH242856   0.239   0.270   4.448 -0.0822 -0.4005 -0.2061
 7122TIP3    H142857   0.246   0.226   4.363 -1.7755 -0.3336 -0.4241
 7122TIP3    H242858   0.229   0.363   4.425  0.2297 -0.2871  0.1097
 7123TIP3   OH242859   6.392   1.224  11.894  0.5948 -0.2886 -0.2669
 7123TIP3    H142860   6.466   1.212  11.954  0.6205  0.7755 -0.0582
 7123TIP3    H242861   6.429   1.209  11.808  0.4564 -2.2887 -0.0268
 7124TIP3   OH242862   5.241   1.428  14.554 -0.2470 -0.1228  0.2758
 7124TIP3    H142863   5.220   1.486  14.481 -1.8410 -0.3479  0.5122
 7124TIP3    H242864   5.155   1.401  14.589  0.4663 -0.2000  2.0862
 7125TIP3   OH242865   5.094   3.120  13.784  0.4361  0.4711  0.6400
 7125TIP3    H142866   5.133   3.040  13.750 -1.0388  0.3794 -1.0020
 7125TIP3    H242867   5.011   3.092  13.822  0.0983  1.1608  0.4278
 7126TIP3   OH242868   5.536   4.279   0.020 -0.2830  0.0684  0.4042
 7126TIP3    H142869   5.518   4.313   0.107  0.2005  2.3016 -0.3064
 7126TIP3    H242870   5.557   4.186   0.034  0.5514  0.5431  2.7320
 7127TIP3   OH242871   6.419   5.394  14.962 -0.0489  0.2247  0.5254
 7127TIP3    H142872   6.329   5.397  14.992 -0.4622 -0.9004 -0.5024
 7127TIP3    H242873   6.439   5.483  14.933 -1.5565  0.0623 -1.1954
 7128TIP3   OH242874   3.103   0.001   5.302  0.3066 -0.1668 -0.0094
 7128TIP3    H142875   3.186  -0.002   5.350  1.2978 -0.0118 -1.6496
 7128TIP3    H242876   3.094   0.093   5.277 -0.5337 -0.1250  0.4249
 7129TIP3   OH242877   6.309   2.033  16.604 -0.6934 -0.0277  0.0424
 7129TIP3    H142878   6.383   2.006  16.550  0.3091  1.3852  0.6557
 7129TIP3    H242879   6.283   2.119  16.570 -0.2214  0.7685  1.5743
 7130TIP3   OH242880   4.080   5.552  11.295  0.4946  0.1091  0.3264
 7130TIP3    H142881   4.115   5.547  11.384  2.2947 -2.0651 -0.4236
 7130TIP3    H242882   4.156   5.537  11.239 -1.0711 -1.4870 -1.4864
 7131TIP3   OH242883   4.616   5.322  15.944  0.5917  0.5015  0.8305
 7131TIP3    H142884   4.539   5.378  15.932 -0.1344 -0.2070  1.9273
 7131TIP3    H242885   4.660   5.359  16.021  0.7402  0.2468  0.8675
 7132TIP3   OH242886   2.586   4.844   3.198  0.2568 -0.2666  0.0251
 7132TIP3    H142887   2.590   4.764   3.145  0.3265  0.1630 -0.6371
 7132TIP3    H242888   2.671   4.849   3.242  0.2583 -0.5472  0.0548
 7133TIP3   OH242889   4.808   3.364  17.004 -0.5719  0.2825  0.0118
 7133TIP3    H142890   4.807   3.306  16.928  1.9629  1.3153 -0.9220
 7133TIP3    H242891   4.886   3.337  17.053  0.0429  2.1169  0.1189
 7134TIP3   OH242892   2.621   4.942  13.993 -0.3088 -0.3805 -0.2675
 7134TIP3    H142893   2.628   4.905  14.081  0.3274 -0.4336 -0.3396
 7134TIP3    H242894   2.536   4.987  13.993 -0.1119  0.0033  0.5189
 7135TIP3   OH242895   2.831   2.173   1.075 -0.4109 -0.5943  0.1796
 7135TIP3    H142896   2.823   2.095   1.131 -1.6234 -0.3636  0.3610
 7135TIP3    H242897   2.746   2.216   1.083 -0.2186  0.0251 -0.9984
 7136TIP3   OH242898   1.222   5.791   0.768  0.4258 -0.4761 -0.0237
 7136TIP3    H142899   1.207   5.789   0.673 -0.7685  0.5734  0.1191
 7136TIP3    H242900   1.254   5.880   0.785  0.9104 -0.7461  0.5351
 7137TIP3   OH242901   6.530   6.322   5.204  0.3668 -0.2290 -0.0030
 7137TIP3    H142902   6.496   6.276   5.280 -0.9102  0.9334  0.1673
 7137TIP3    H242903   6.581   6.394   5.241 -0.8643  0.7778 -0.2087
 7138TIP3   OH242904   0.099   4.135   2.284  0.3141  0.2615  0.9949
 7138TIP3    H142905   0.060   4.086   2.356 -0.6215  0.5212  0.6908
 7138TIP3    H242906   0.193   4.119   2.291  0.0629 -1.5042  0.9659
 7139TIP3   OH242907   4.824   0.712   5.095 -0.4200 -0.1927 -0.3650
 7139TIP3    H142908   4.903   0.657   5.095 -0.1779  0.1295 -1.3249
 7139TIP3    H242909   4.808   0.730   5.002 -0.6070  1.2130 -0.0733
 7140TIP3   OH242910   3.260   4.577  15.101 -0.4759 -0.3387  0.5003
 7140TIP3    H142911   3.283   4.496  15.054 -0.1672  0.5857 -1.0265
 7140TIP3    H242912   3.292   4.563  15.190 -0.9286 -2.1098  0.4270
 7141TIP3   OH242913   5.944   2.511   0.186 -0.3652 -0.3734 -0.2115
 7141TIP3    H142914   5.888   2.495   0.110 -1.1633 -0.8784  0.4615
 7141TIP3    H242915   5.964   2.423   0.219  2.3069 -0.3339 -1.4481
 7142TIP3   OH242916   3.399   3.823  12.496  0.1639  1.0730 -0.3079
 7142TIP3    H142917   3.484   3.804  12.456  1.0379  0.2235  1.8201
 7142TIP3    H242918   3.420   3.874  12.574 -0.9023 -1.5268  1.8612
 7143TIP3   OH242919   6.370   2.171  17.249 -0.0899 -0.2144  0.6236
 7143TIP3    H142920   6.335   2.238  17.191  0.2520 -0.2468  0.3821
 7143TIP3    H242921   6.430   2.218  17.307  0.6255 -0.4147  0.0506
 7144TIP3   OH242922   0.443   6.684   6.192 -0.2888 -0.6226 -0.2256
 7144TIP3    H142923   0.515   6.745   6.176 -0.5674 -0.7603 -2.3373
 7144TIP3    H242924   0.387   6.729   6.255  1.0360 -0.0207  0.5508
 7145TIP3   OH242925   0.707   5.753  16.450  0.0091  0.1297 -0.0696
 7145TIP3    H142926   0.760   5.822  16.489  0.5311 -0.2155 -0.1650
 7145TIP3    H242927   0.752   5.731  16.369  0.2140 -0.7778  0.2782
 7146TIP3   OH242928   1.510   4.373   0.896  0.0567  0.2125  0.2822
 7146TIP3    H142929   1.519   4.279   0.912  1.2870  0.1648 -0.5507
 7146TIP3    H242930   1.599   4.402   0.877 -0.7905  0.7136 -3.7651
 7147TIP3   OH242931   6.340   6.395  11.240  0.3390 -0.3078 -0.1627
 7147TIP3    H142932   6.378   6.344  11.311  1.0831 -0.1038 -0.4130
 7147TIP3    H242933   6.409   6.400  11.174 -0.1286  0.0419 -0.6347
 7148TIP3   OH242934   0.191   1.313   3.811  0.0539  0.5809 -0.4088
 7148TIP3    H142935   0.280   1.342   3.833 -0.5634  1.6111  0.8493
 7148TIP3    H242936   0.198   1.218   3.800  1.3112  0.6552 -0.3402
 7149TIP3   OH242937   5.126   1.177   5.468 -0.0537 -1.0847 -0.3526
 7149TIP3    H142938   5.036   1.151   5.450  0.4147 -3.7459  0.7676
 7149TIP3    H242939   5.180   1.110   5.427  1.4313  0.0728 -0.4046
 7150TIP3   OH242940   1.107   2.116  12.448  0.0149  0.4249  0.0338
 7150TIP3    H142941   1.053   2.087  12.375  0.2262 -0.5611  0.2629
 7150TIP3    H242942   1.129   2.207  12.427 -0.3534  0.3122 -0.8669
 7151TIP3   OH242943   4.305   1.227   3.853  0.1282 -0.2329 -0.1790
 7151TIP3    H142944   4.237   1.260   3.794 -1.4186  0.5650  1.9277
 7151TIP3    H242945   4.273   1.141   3.880  0.1601 -0.0488  0.4655
 7152TIP3   OH242946   6.646   0.811  16.717 -0.6287  0.0064  0.1726
 7152TIP3    H142947   6.594   0.796  16.796 -0.9383  1.1804  0.2113
 7152TIP3    H242948   6.718   0.867  16.747 -0.4442  0.0105 -0.2764
 7153TIP3   OH242949   4.890   3.130  12.199  0.2841 -0.1465  0.3552
 7153TIP3    H142950   4.940   3.049  12.200 -1.0694 -1.0092  0.9642
 7153TIP3    H242951   4.892   3.162  12.289 -1.8093 -1.2379  0.8642
 7154TIP3   OH242952   3.079   6.612  10.875  0.8872  0.1224  0.5060
 7154TIP3    H142953   2.996   6.576  10.845  1.0086 -0.9176  1.3696
 7154TIP3    H242954   3.138   6.605  10.800 -0.1693  2.2635 -0.6218
 7155TIP3   OH242955   3.334   1.135   2.078 -0.4735  0.4068 -0.1016
 7155TIP3    H142956   3.373   1.194   2.142  1.2692  1.5449 -2.0912
 7155TIP3    H242957   3.370   1.163   1.994 -1.7849 -1.7242 -1.4777
 7156TIP3   OH242958   2.885   3.797  13.116  0.3237 -0.6119  0.0842
 7156TIP3    H142959   2.921   3.733  13.054  2.0560  0.6927 -0.3165
 7156TIP3    H242960   2.938   3.786  13.195 -0.4762 -0.7943  0.6097
 7157TIP3   OH242961   5.384   2.366  11.148 -0.1979  0.0349  0.0363
 7157TIP3    H142962   5.361   2.457  11.129  0.3123 -0.0930 -1.2854
 7157TIP3    H242963   5.464   2.350  11.097 -0.8535 -1.4475 -0.5841
 7158TIP3   OH242964   2.076   2.700  14.087 -0.2495  0.4906  0.3136
 7158TIP3    H142965   2.095   2.767  14.153 -1.3197  2.5653 -1.3761
 7158TIP3    H242966   2.003   2.650  14.124 -0.3661  1.1470  0.9956
 7159TIP3   OH242967   5.781   4.908   4.873  0.5331 -0.2814 -0.0533
 7159TIP3    H142968   5.772   4.813   4.867  0.2459 -0.3240  0.8749
 7159TIP3    H242969   5.863   4.922   4.919  0.5633 -0.0766 -0.1663
 7160TIP3   OH242970   3.752   0.912  15.080 -0.1823  0.2557  0.5815
 7160TIP3    H142971   3.804   0.988  15.107  0.4502 -0.2633  0.8499
 7160TIP3    H242972   3.713   0.938  14.996 -1.3539  1.5144  1.4522
 7161TIP3   OH242973   4.096   3.889   0.775 -0.1410  0.4056 -0.7544
 7161TIP3    H142974   4.134   3.905   0.689  1.0842  0.6722 -0.1843
 7161TIP3    H242975   4.066   3.799   0.772  1.5493 -0.1827 -0.8821
 7162TIP3   OH242976   4.190   6.049   4.809 -0.3292 -0.2095 -0.3060
 7162TIP3    H142977   4.095   6.038   4.809 -0.1123 -2.8933  1.3435
 7162TIP3    H242978   4.220   6.005   4.729 -0.5224  2.4227 -1.9389
 7163TIP3   OH242979   2.675   4.553  15.359  0.4649  0.0462  0.1274
 7163TIP3    H142980   2.700   4.493  15.430  2.5666  0.3400 -0.2959
 7163TIP3    H242981   2.579   4.549  15.357  0.4775 -3.2855  0.1455
 7164TIP3   OH242982   0.912   3.075  15.553 -0.3337  0.2684  0.2793
 7164TIP3    H142983   0.828   3.115  15.529 -0.2982 -0.2937 -0.8527
 7164TIP3    H242984   0.931   3.014  15.481  0.5145 -0.4095  1.0552
 7165TIP3   OH242985   6.074   2.028   0.501  0.3019 -0.1045 -0.8810
 7165TIP3    H142986   6.043   2.112   0.535  0.5496 -0.6163  0.6713
 7165TIP3    H242987   6.022   2.014   0.422 -1.1413  0.5715 -0.0885
 7166TIP3   OH242988   2.368   4.272  16.178  0.4359  0.0950 -0.0766
 7166TIP3    H142989   2.383   4.251  16.086 -1.2046  1.1242 -0.6202
 7166TIP3    H242990   2.441   4.328  16.202  0.0201  1.2081 -1.2731
 7167TIP3   OH242991   4.461   0.596  12.070 -0.3403  0.1544  0.0389
 7167TIP3    H142992   4.393   0.597  12.002  0.4954  1.9003 -0.8264
 7167TIP3    H242993   4.429   0.658  12.136  1.1884  2.4681 -1.2628
 7168TIP3   OH242994   6.289   1.222   3.387 -0.4987 -0.0586 -0.2784
 7168TIP3    H142995   6.324   1.147   3.339 -2.3152 -0.3599 -1.2131
 7168TIP3    H242996   6.366   1.268   3.420  0.7170 -1.1446 -1.5112
 7169TIP3   OH242997   2.760   5.318  16.762  0.1359  0.5831 -0.1266
 7169TIP3    H142998   2.786   5.365  16.841  2.8241 -1.2128  0.1878
 7169TIP3    H242999   2.767   5.225  16.786  2.4032 -0.0633 -2.7471
 7170TIP3   OH243000   4.330   6.156  12.209 -0.5205  0.1126  0.5982
 7170TIP3    H143001   4.395   6.213  12.250 -2.6215  1.2495  2.5893
 7170TIP3    H243002   4.351   6.069  12.243  1.4427 -0.0329 -0.8132
 7171TIP3   OH243003   1.133   3.887  13.274 -0.4877  0.2585 -0.6984
 7171TIP3    H143004   1.215   3.882  13.323 -0.7055  3.3492  0.1664
 7171TIP3    H243005   1.066   3.902  13.341 -1.2990  0.9471 -1.6329
 7172TIP3   OH243006   1.160   3.015  14.081  0.1996  0.2655 -0.2770
 7172TIP3    H143007   1.128   3.009  13.991  1.0340 -0.8177 -0.5193
 7172TIP3    H243008   1.235   2.956  14.084 -1.0541 -1.3467  1.6829
 7173TIP3   OH243009   4.458   0.637  12.362 -0.2148  0.4314  0.2009
 7173TIP3    H143010   4.393   0.700  12.393 -0.8102  0.7257 -1.5555
 7173TIP3    H243011   4.437   0.556  12.408 -0.5784  1.0225  1.1103
 7174TIP3   OH243012   6.331   0.236   0.894 -0.1451  0.4816  0.0155
 7174TIP3    H143013   6.278   0.207   0.819 -0.8054  0.6852  0.4004
 7174TIP3    H243014   6.421   0.227   0.864 -0.4080  1.6940 -1.2451
 7175TIP3   OH243015   6.407   6.375  13.198 -0.3864  0.2541  0.2654
 7175TIP3    H143016   6.361   6.446  13.244 -0.5322  0.5851 -0.3771
 7175TIP3    H243017   6.369   6.375  13.111 -0.4275 -0.6674  0.2749
 7176TIP3   OH243018   5.491   5.833  16.926 -0.0483 -0.3283  0.2363
 7176TIP3    H143019   5.577   5.797  16.903  0.2873 -0.7440  2.0035
 7176TIP3    H243020   5.449   5.764  16.977 -1.3634 -0.0332 -0.3975
 7177TIP3   OH243021   0.806   5.837   0.703 -0.0305  0.0049  0.0648
 7177TIP3    H143022   0.886   5.798   0.668 -1.1296 -0.2867 -2.2870
 7177TIP3    H243023   0.809   5.818   0.797  2.0911 -0.9681 -0.1529
 7178TIP3   OH243024   1.502   6.299   2.442  0.1183 -0.1623  0.2613
 7178TIP3    H143025   1.419   6.345   2.454  0.6715  0.3107  3.1611
 7178TIP3    H243026   1.478   6.206   2.435 -0.7577  0.1646 -1.8589
 7179TIP3   OH243027   4.781   3.068  13.625  0.3582  0.2571  0.0770
 7179TIP3    H143028   4.733   3.124  13.687 -0.5802 -0.7272  0.2797
 7179TIP3    H243029   4.735   3.081  13.541  0.6724  0.4307 -0.0689
 7180TIP3   OH243030   5.290   6.310   5.148  0.0868 -0.3159 -0.1727
 7180TIP3    H143031   5.352   6.383   5.154 -1.4623  1.0337  0.1597
 7180TIP3    H243032   5.207   6.346   5.178 -0.8786 -2.0823 -0.5405
 7181TIP3   OH243033   5.346   6.605  15.253  0.2704 -0.0798 -0.1118
 7181TIP3    H143034   5.328   6.663  15.179 -1.3915 -1.1030 -0.5585
 7181TIP3    H243035   5.311   6.520  15.226 -0.5573 -0.4338  1.9199
 7182TIP3   OH243036   2.886   5.188   6.297  0.1185 -0.0973  0.1887
 7182TIP3    H143037   2.863   5.141   6.378 -1.3497 -1.0724 -0.7526
 7182TIP3    H243038   2.967   5.146   6.269 -0.3815 -1.0844  0.1613
 7183TIP3   OH243039   5.568   5.628  15.973  0.2789 -0.3027  0.3846
 7183TIP3    H143040   5.481   5.628  16.012 -0.3223 -1.9999 -0.8410
 7183TIP3    H243041   5.573   5.711  15.925 -0.6166 -0.1467  0.5471
 7184TIP3   OH243042   0.473   2.230  16.296  0.0652  0.2667 -0.2682
 7184TIP3    H143043   0.541   2.208  16.233  0.0053  2.1103 -1.0507
 7184TIP3    H243044   0.419   2.151  16.302  1.4664 -0.7565 -0.6606
 7185TIP3   OH243045   6.785   4.344   6.339  0.0361 -0.0185  0.1059
 7185TIP3    H143046   6.725   4.403   6.294  2.3672  0.9133 -2.0491
 7185TIP3    H243047   6.816   4.284   6.271  1.4726 -0.5105  1.1324
 7186TIP3   OH243048   1.930   1.920   0.445  0.2482 -0.0829 -0.1411
 7186TIP3    H143049   2.018   1.895   0.474  0.2374  0.3218  0.2486
 7186TIP3    H243050   1.941   1.946   0.354  0.9752  2.1651  0.5232
 7187TIP3   OH243051   1.719   0.515   5.101 -0.2154  0.3216  0.2918
 7187TIP3    H143052   1.632   0.524   5.139 -0.4730  1.8801 -0.6067
 7187TIP3    H243053   1.704   0.489   5.011  0.2793 -0.0425  0.3076
 7188TIP3   OH243054   4.442   3.485  16.322  0.0949 -0.0826  0.0704
 7188TIP3    H143055   4.456   3.465  16.414 -0.5193  0.4049  0.2806
 7188TIP3    H243056   4.370   3.427  16.295 -1.3763  1.4312  0.5588
 7189TIP3   OH243057   3.661   4.122  17.086 -0.0458 -0.2322  0.2139
 7189TIP3    H143058   3.632   4.199  17.038  0.2638  0.5603  1.2540
 7189TIP3    H243059   3.736   4.152  17.137 -0.3999 -1.0146  1.2347
 7190TIP3   OH243060   4.413   4.800   4.206 -1.0184 -0.3147  0.1980
 7190TIP3    H143061   4.354   4.727   4.186  0.7449 -1.5036 -0.9912
 7190TIP3    H243062   4.499   4.759   4.217 -0.6565  1.0271  4.2207
 7191TIP3   OH243063   3.718   3.642   0.036 -0.6314  0.3493  0.0201
 7191TIP3    H143064   3.766   3.674  -0.041  0.9585 -0.1007  0.7746
 7191TIP3    H243065   3.711   3.719   0.093 -1.0303  0.4723 -0.1917
 7192TIP3   OH243066   5.379   4.132   6.102 -0.4626 -0.1093  0.2405
 7192TIP3    H143067   5.395   4.215   6.146 -0.6193  1.5052 -2.4741
 7192TIP3    H243068   5.466   4.092   6.092 -0.3622 -0.1912  1.3745
 7193TIP3   OH243069   4.166   3.670  12.950 -0.0908 -0.0152  0.0340
 7193TIP3    H143070   4.248   3.638  12.914 -0.3325 -0.4450 -0.1349
 7193TIP3    H243071   4.185   3.688  13.042 -0.3101 -1.9318  0.4785
 7194TIP3   OH243072   3.222   0.260  12.382 -0.0562  0.0765  0.0272
 7194TIP3    H143073   3.133   0.225  12.370  0.0977 -0.3129  0.0233
 7194TIP3    H243074   3.246   0.292  12.295 -0.0421 -0.1740 -0.0626
 7195TIP3   OH243075   1.507   6.107  10.451 -0.0450 -0.0955  0.1896
 7195TIP3    H143076   1.483   6.022  10.414  1.5624 -0.1102 -0.9154
 7195TIP3    H243077   1.528   6.088  10.543 -1.0370 -0.6104  0.3294
 7196TIP3   OH243078   5.423   0.577  16.211  0.0971 -0.4162  1.2548
 7196TIP3    H143079   5.426   0.672  16.226  1.7857 -0.1695 -0.3342
 7196TIP3    H243080   5.378   0.568  16.127  0.8473 -0.9334  0.9039
 7197TIP3   OH243081   5.305   1.607   0.516  0.0051  0.5706  0.8428
 7197TIP3    H143082   5.379   1.584   0.572  0.7794  0.6282 -0.1251
 7197TIP3    H243083   5.336   1.589   0.427 -0.5527  2.1477  0.2891
 7198TIP3   OH243084   6.693   2.939   0.257  0.0895 -0.8551 -0.1561
 7198TIP3    H143085   6.661   3.019   0.300  1.7466  0.5323 -1.3386
 7198TIP3    H243086   6.621   2.877   0.265 -1.4320  0.8829  0.4941
 7199TIP3   OH243087   5.513   6.033  14.931  0.5079  0.4883 -0.2832
 7199TIP3    H143088   5.564   5.998  14.859 -0.3786 -1.8512  0.1391
 7199TIP3    H243089   5.572   6.095  14.975  2.6785 -1.4069 -0.3478
 7200TIP3   OH243090   5.606   2.321  11.690 -0.1836 -0.1561 -0.1589
 7200TIP3    H143091   5.585   2.402  11.736 -1.6192 -0.7064  0.1990
 7200TIP3    H243092   5.699   2.329  11.669  0.6991 -0.0071  3.1794
 7201TIP3   OH243093   1.923   5.233  16.756 -0.3678 -0.1752 -1.0168
 7201TIP3    H143094   2.016   5.245  16.738  0.0297 -0.5667  0.5858
 7201TIP3    H243095   1.913   5.138  16.768 -0.4578  0.0418  1.1154
 7202TIP3   OH243096   2.704   2.931  14.917 -0.1451 -0.2699 -0.1971
 7202TIP3    H143097   2.710   2.843  14.954  0.5532  0.4163  1.4087
 7202TIP3    H243098   2.699   2.989  14.993  0.4230  1.1536 -1.2034
 7203TIP3   OH243099   1.824   4.717   2.967  0.5449 -0.5986  0.7915
 7203TIP3    H143100   1.805   4.677   3.052  0.8889 -1.2581  0.5668
 7203TIP3    H243101   1.920   4.718   2.962  0.5398  0.0911  0.7073
 7204TIP3   OH243102   2.101   4.898   2.738  0.5459  0.1422 -0.6840
 7204TIP3    H143103   2.122   4.990   2.750  1.0067 -0.0343 -0.0769
 7204TIP3    H243104   2.013   4.898   2.700  0.5054  0.8226 -0.6025
 7205TIP3   OH243105   5.938   0.216   5.203 -0.0129  0.4788 -0.5316
 7205TIP3    H143106   5.976   0.289   5.154  1.8094  0.1515  0.2898
 7205TIP3    H243107   5.919   0.150   5.137  1.7552  0.3103 -0.9270
 7206TIP3   OH243108   3.467   0.499  15.355  0.1139 -0.2212 -0.1610
 7206TIP3    H143109   3.403   0.431  15.336 -0.2753  0.1671 -0.2575
 7206TIP3    H243110   3.526   0.499  15.280  1.0159 -1.4545  0.4954
 7207TIP3   OH243111   6.746   0.670   4.952  0.1603  0.5692  0.3911
 7207TIP3    H143112   6.751   0.748   5.007  1.1339  0.8617 -0.0943
 7207TIP3    H243113   6.793   0.693   4.872  1.9564 -1.0492  0.8926
 7208TIP3   OH243114   1.346   0.891   0.454  0.5744 -0.6019  0.7916
 7208TIP3    H143115   1.259   0.870   0.421  0.8187 -1.3036  0.5645
 7208TIP3    H243116   1.396   0.914   0.376  1.3515 -2.9591  0.5086
 7209TIP3   OH243117   1.842   6.267  12.001 -0.8648 -0.3112 -0.5121
 7209TIP3    H143118   1.773   6.225  12.054 -0.3052  0.1839  0.6442
 7209TIP3    H243119   1.868   6.343  12.053  0.8674 -0.7334 -0.7113
 7210TIP3   OH243120   3.507   1.033  16.834  0.0220 -0.1567  0.0141
 7210TIP3    H143121   3.599   1.041  16.807 -0.1924  1.0348 -0.4309
 7210TIP3    H243122   3.458   1.030  16.751 -0.3469 -0.7057  0.2503
 7211TIP3   OH243123   2.973   2.889  13.324  0.2389 -0.3332 -0.4323
 7211TIP3    H143124   2.936   2.805  13.348 -1.6278  0.8204  1.0267
 7211TIP3    H243125   2.926   2.953  13.379  1.5995  1.6549 -1.4376
 7212TIP3   OH243126   5.046   4.134  16.624  0.2054 -0.2175  0.3009
 7212TIP3    H143127   5.025   4.139  16.717 -1.6064  1.1323 -0.0978
 7212TIP3    H243128   5.089   4.217  16.604 -0.5468  0.0577 -0.2675
 7213TIP3   OH243129   1.439   5.205  12.086 -0.8794 -0.3471 -0.7498
 7213TIP3    H143130   1.428   5.121  12.131 -1.2029 -1.8521 -3.4296
 7213TIP3    H243131   1.352   5.226  12.052 -0.8265  1.1737 -0.0329
 7214TIP3   OH243132   2.022   4.539  11.588  0.1279  0.3617  0.6166
 7214TIP3    H143133   2.003   4.506  11.501 -2.4777  1.3896  0.6993
 7214TIP3    H243134   2.117   4.528  11.598  0.3440 -0.7295 -1.9069
 7215TIP3   OH243135   6.554   5.621  11.463  0.7006  0.4490  0.0936
 7215TIP3    H143136   6.632   5.674  11.448  1.9150 -1.4135 -0.5688
 7215TIP3    H243137   6.588   5.534  11.485 -1.1953 -0.0750  1.1907
 7216TIP3   OH243138   1.758   4.772   5.262 -0.2074 -0.0675 -0.4688
 7216TIP3    H143139   1.675   4.779   5.215 -1.1767 -0.3733  1.1246
 7216TIP3    H243140   1.773   4.678   5.270  0.8182 -0.0198 -1.5901
 7217TIP3   OH243141   3.922   2.918  16.150 -0.0898 -0.6135 -0.3534
 7217TIP3    H143142   3.868   2.898  16.227 -0.1476 -3.0850 -0.9519
 7217TIP3    H243143   3.866   2.899  16.075  0.3841  0.5381 -1.0315
 7218TIP3   OH243144   5.009   1.027  11.255 -0.1498  0.1883  0.2719
 7218TIP3    H143145   4.989   0.933  11.257 -1.5886  0.4690 -0.4928
 7218TIP3    H243146   5.099   1.032  11.289  0.9076 -1.7116 -1.9924
 7219TIP3   OH243147   4.311   6.268  10.427 -0.7389 -0.3470 -0.3455
 7219TIP3    H143148   4.278   6.218  10.503 -2.1995 -1.2687 -1.5257
 7219TIP3    H243149   4.314   6.204  10.356 -0.4105  0.7442 -1.3380
 7220TIP3   OH243150   1.489   2.098   1.134 -0.0981  0.0508 -0.5682
 7220TIP3    H143151   1.508   2.055   1.051  1.1246  1.0859 -0.8348
 7220TIP3    H243152   1.414   2.049   1.169 -0.7884 -0.2322 -2.3774
 7221TIP3   OH243153   4.551   2.860   5.951  0.2655 -1.0840 -0.4577
 7221TIP3    H143154   4.503   2.912   5.887 -1.2902  2.4769  3.1317
 7221TIP3    H243155   4.487   2.796   5.982 -0.3053 -0.2346  0.1742
 7222TIP3   OH243156   0.606   6.425  15.552 -0.2510  0.6674 -0.3125
 7222TIP3    H143157   0.553   6.460  15.480 -1.4520  0.3767  0.4213
 7222TIP3    H243158   0.577   6.472  15.629 -0.8206 -0.8580  0.4373
 7223TIP3   OH243159   4.873   1.699   1.493 -0.0531  0.3982  0.4791
 7223TIP3    H143160   4.801   1.676   1.433 -0.1399  0.4863  0.5501
 7223TIP3    H243161   4.905   1.614   1.524  1.5190  0.1926 -1.4590
 7224TIP3   OH243162   0.859   3.272   4.217 -0.2219  0.7475  0.1774
 7224TIP3    H143163   0.767   3.294   4.203 -0.1355  1.9323  1.3265
 7224TIP3    H243164   0.901   3.355   4.240  0.9059  0.0431  0.7631
 7225TIP3   OH243165   1.565   0.329  11.611  0.2559  0.5040  0.0320
 7225TIP3    H143166   1.489   0.277  11.638  0.9510 -0.5586 -0.0444
 7225TIP3    H243167   1.640   0.271  11.621  0.6876  0.3099 -3.3136
 7226TIP3   OH243168   6.305   2.162   4.979 -0.3162 -0.8290  0.0534
 7226TIP3    H143169   6.274   2.252   4.972 -2.0863 -1.3734  0.5124
 7226TIP3    H243170   6.255   2.125   5.052  0.1352 -2.2843 -0.3469
 7227TIP3   OH243171   2.314   5.679   0.831 -0.2987  0.2324 -0.0297
 7227TIP3    H143172   2.340   5.609   0.771 -1.3332  0.4044 -0.6998
 7227TIP3    H243173   2.313   5.638   0.917  1.0540 -0.0566 -0.1262
 7228TIP3   OH243174   1.413   1.329   0.990  0.1365  0.4359 -0.1092
 7228TIP3    H143175   1.462   1.318   0.909 -1.7114  0.3481 -1.2643
 7228TIP3    H243176   1.414   1.242   1.031  0.8013  0.4070 -0.1691
 7229TIP3   OH243177   2.986   0.421  14.752  0.1335  0.4490 -0.4236
 7229TIP3    H143178   3.082   0.415  14.748  0.2693  2.2984 -0.7250
 7229TIP3    H243179   2.965   0.499  14.700 -1.4152  0.9211  0.8475
 7230TIP3   OH243180   2.268   2.153   3.821  0.0730  0.2517 -0.0085
 7230TIP3    H143181   2.190   2.122   3.774 -0.8762  2.2214  0.1924
 7230TIP3    H243182   2.317   2.073   3.840 -0.4294 -0.8060 -2.6829
 7231TIP3   OH243183   4.269   3.035   0.330  0.2042  0.1738 -0.1802
 7231TIP3    H143184   4.334   3.033   0.400 -0.5171 -1.3673  0.5152
 7231TIP3    H243185   4.193   2.989   0.367 -0.3599 -0.2901 -1.8066
 7232TIP3   OH243186   6.764   3.480  16.522 -0.7479  0.2745 -0.2898
 7232TIP3    H143187   6.775   3.575  16.529 -1.3742  0.2954  0.5314
 7232TIP3    H243188   6.761   3.464  16.427 -0.5556  1.0567 -0.4437
 7233TIP3   OH243189   6.064   5.387   4.342 -0.2333 -0.7797 -0.0320
 7233TIP3    H143190   6.147   5.344   4.323  0.2597 -0.5267  1.4290
 7233TIP3    H243191   6.048   5.369   4.435 -0.4573  1.3628  0.4155
 7234TIP3   OH243192   0.216   3.588   5.511 -0.0034 -0.2439 -0.4032
 7234TIP3    H143193   0.122   3.583   5.498 -0.4374  0.6060  1.9460
 7234TIP3    H243194   0.242   3.500   5.538 -0.5328 -0.0196  0.9461
 7235TIP3   OH243195   4.185   5.712  16.486  0.1963 -0.1105  0.4768
 7235TIP3    H143196   4.251   5.780  16.478 -0.1737  0.4800  2.0746
 7235TIP3    H243197   4.112   5.754  16.531 -0.9848 -0.9473 -0.6007
 7236TIP3   OH243198   1.273   5.925   4.899 -0.2781 -0.3866  0.2108
 7236TIP3    H143199   1.220   5.998   4.934 -1.1348 -0.5417 -0.7058
 7236TIP3    H243200   1.338   5.968   4.843  0.8124 -0.1716  1.5805
 7237TIP3   OH243201   4.468   0.606  12.735 -0.2106 -0.1408 -0.2882
 7237TIP3    H143202   4.464   0.547  12.659 -1.3618 -0.6020  0.1144
 7237TIP3    H243203   4.380   0.643  12.741 -0.4268 -0.8284  1.3677
 7238TIP3   OH243204   4.603   2.704  13.801 -0.2035 -0.4122 -0.0768
 7238TIP3    H143205   4.582   2.697  13.894 -1.4610  0.3693 -0.2778
 7238TIP3    H243206   4.697   2.721  13.799 -0.2790  0.2483  1.0869
 7239TIP3   OH243207   3.700   6.351  10.811 -0.1784  0.1339 -0.2205
 7239TIP3    H143208   3.706   6.437  10.853  1.8033 -0.2636  0.4373
 7239TIP3    H243209   3.756   6.358  10.733 -0.6846 -0.3085 -0.6295
 7240TIP3   OH243210   3.686   6.361   2.213  0.5989  0.0605 -0.1705
 7240TIP3    H143211   3.679   6.404   2.127  1.0115 -1.0212 -0.7695
 7240TIP3    H243212   3.626   6.409   2.269  0.3180  0.7909 -1.0678
 7241TIP3   OH243213   1.410   3.988  14.030  0.3559  0.0321 -0.1387
 7241TIP3    H143214   1.454   3.936  14.096  1.3230  2.1804  1.0015
 7241TIP3    H243215   1.391   4.071  14.073 -2.0234  0.3361 -1.5599
 7242TIP3   OH243216   1.179   5.585   4.983 -0.5953 -0.4343 -0.5556
 7242TIP3    H143217   1.100   5.550   5.023  0.3014 -3.3518 -1.0970
 7242TIP3    H243218   1.150   5.621   4.899 -1.3778 -1.5136 -0.7732
 7243TIP3   OH243219   4.991   0.990   5.188  0.5015 -0.2691  0.7486
 7243TIP3    H143220   5.035   0.982   5.103 -0.0343  1.6956  0.2387
 7243TIP3    H243221   4.900   1.010   5.167  0.0239 -1.2007  1.8040
 7244TIP3   OH243222   1.124   4.339  11.016 -0.2874 -0.0260  0.6306
 7244TIP3    H143223   1.187   4.305  11.079 -1.6909 -2.4546  0.8795
 7244TIP3    H243224   1.112   4.267  10.954 -1.2376  1.1698 -0.6313
 7245TIP3   OH243225   3.391   0.455  16.753 -0.1646  0.4366  0.3308
 7245TIP3    H143226   3.358   0.402  16.681 -0.6489 -1.5581  1.9064
 7245TIP3    H243227   3.335   0.532  16.754 -0.6672  0.1121 -0.9010
 7246TIP3   OH243228   6.785   3.960  12.873  0.4252 -0.2279 -0.6926
 7246TIP3    H143229   6.712   3.920  12.919  0.8812  0.1771  0.3976
 7246TIP3    H243230   6.855   3.894  12.877  0.1255 -0.6327 -1.7695
 7247TIP3   OH243231   4.907   5.721   4.692 -0.1025  0.1378  0.4889
 7247TIP3    H143232   4.840   5.720   4.761  1.1658 -1.8570  1.7708
 7247TIP3    H243233   4.873   5.661   4.626 -2.0176  3.1231 -1.4890
 7248TIP3   OH243234   2.776   6.536  16.721  0.4218 -0.7027  0.2639
 7248TIP3    H143235   2.722   6.463  16.689 -0.5110  0.2374 -0.4259
 7248TIP3    H243236   2.814   6.505  16.802 -2.1334 -1.0558  1.4431
 7249TIP3   OH243237   4.653   4.708   3.486 -0.0319 -0.3371 -0.4879
 7249TIP3    H143238   4.578   4.762   3.511 -0.7301 -0.7733 -1.5692
 7249TIP3    H243239   4.652   4.636   3.550 -0.2627 -0.0955 -0.2150
 7250TIP3   OH243240   2.028   0.604  14.850 -0.3318  0.2264  0.2789
 7250TIP3    H143241   2.086   0.679  14.838 -0.6446  0.6080  1.1325
 7250TIP3    H243242   2.041   0.578  14.941  0.0012 -0.9536 -0.0862
 7251TIP3   OH243243   3.438   0.048  12.099  0.3725 -0.4508 -0.6780
 7251TIP3    H143244   3.345   0.048  12.078 -0.1735 -0.5852  1.4507
 7251TIP3    H243245   3.455  -0.041  12.131  1.3106 -0.5041 -1.2746
 7252TIP3   OH243246   5.878   6.322   4.446 -0.6873  0.2009  0.4309
 7252TIP3    H143247   5.944   6.261   4.479 -0.3503  1.1542  1.6140
 7252TIP3    H243248   5.834   6.274   4.376  1.3249 -0.4303 -0.4934
 7253TIP3   OH243249   1.669   2.256   4.632 -0.3589  0.8551  0.0696
 7253TIP3    H143250   1.711   2.230   4.714 -0.7254 -0.5751 -0.1669
 7253TIP3    H243251   1.734   2.235   4.564 -1.4448 -1.6051 -0.3219
 7254TIP3   OH243252   3.682   0.413  16.003 -0.2946  0.2908 -0.0805
 7254TIP3    H143253   3.725   0.467  15.936 -1.7983  0.5042 -0.9384
 7254TIP3    H243254   3.680   0.325  15.966  1.7840 -0.3297  1.1402
 7255TIP3   OH243255   3.933   0.542   4.390  0.3936  0.3949 -0.0281
 7255TIP3    H143256   3.876   0.619   4.389 -1.4487 -0.9099  0.0584
 7255TIP3    H243257   4.017   0.574   4.357 -0.3261  2.4167 -0.0386
 7256TIP3   OH243258   0.683   6.226  16.548  0.1640  0.4909 -0.3193
 7256TIP3    H143259   0.698   6.142  16.591 -0.0513 -0.2821 -1.6829
 7256TIP3    H243260   0.771   6.257  16.524  0.2009  0.2863 -0.4547
 7257TIP3   OH243261   0.009   3.399  14.391  0.0972  0.4123  0.0406
 7257TIP3    H143262  -0.024   3.309  14.389  2.0099 -0.3184 -0.8207
 7257TIP3    H243263  -0.047   3.446  14.329 -1.2793 -0.0083  0.9092
 7258TIP3   OH243264   2.783   5.635  16.334 -0.0172  0.0335  0.4226
 7258TIP3    H143265   2.841   5.589  16.396  0.0181 -0.1001  0.2938
 7258TIP3    H243266   2.828   5.626  16.249 -0.5307 -0.6085  0.2132
 7259TIP3   OH243267   0.965   2.468   3.698  0.3269  0.3669  0.0008
 7259TIP3    H143268   0.889   2.527   3.705 -0.7941 -0.8475 -1.3745
 7259TIP3    H243269   1.032   2.520   3.654 -0.1095  1.0952  0.1850
 7260TIP3   OH243270   1.011   6.643   3.467  0.2793  0.3053  0.6622
 7260TIP3    H143271   0.999   6.734   3.495  0.4840  1.1485 -1.7667
 7260TIP3    H243272   1.095   6.618   3.505  1.1368  1.8116 -0.1212
 7261TIP3   OH243273   1.714   2.489   1.918  0.0294 -0.5445 -0.0608
 7261TIP3    H143274   1.669   2.525   1.841  0.7929  0.7461  0.0759
 7261TIP3    H243275   1.746   2.404   1.889 -0.8777 -0.6714 -0.7361
 7262TIP3   OH243276   3.508   4.791  12.873  0.8286  0.4549 -0.1578
 7262TIP3    H143277   3.423   4.818  12.837 -0.0012 -0.4732  1.0290
 7262TIP3    H243278   3.570   4.853  12.835 -0.7594  3.1303  1.2881
 7263TIP3   OH243279   1.403   0.294  13.252  0.0990  0.2671 -0.3161
 7263TIP3    H143280   1.351   0.336  13.320 -0.5803 -1.2616  0.1670
 7263TIP3    H243281   1.368   0.205  13.247  2.9092 -0.9921  0.3249
 7264TIP3   OH243282   3.803   2.978   1.340 -0.3027  0.0968 -0.0889
 7264TIP3    H143283   3.798   3.058   1.392 -0.7778 -0.0669  0.1224
 7264TIP3    H243284   3.714   2.964   1.308 -0.0230  0.1543 -0.8948
 7265TIP3   OH243285   6.559   3.147  16.139 -0.0596  0.0788 -0.5422
 7265TIP3    H143286   6.591   3.092  16.068  2.2512  0.4382  0.1400
 7265TIP3    H243287   6.581   3.236  16.112 -1.4067  0.4537 -0.4617
 7266TIP3   OH243288   2.838   1.323   1.626  1.2461  0.2950 -0.2184
 7266TIP3    H143289   2.873   1.386   1.689  1.3403  1.1517 -1.1046
 7266TIP3    H243290   2.743   1.330   1.636  1.2198 -1.6759  1.8370
 7267TIP3   OH243291   2.865   5.094  12.239  0.0249 -0.1820  0.8509
 7267TIP3    H143292   2.892   5.025  12.179 -0.6773  0.9023 -0.7648
 7267TIP3    H243293   2.935   5.160  12.234 -0.8738  0.7384 -0.2102
 7268TIP3   OH243294   5.473   6.089   5.321 -0.4193 -0.1568 -0.1894
 7268TIP3    H143295   5.474   6.142   5.401  1.0046  1.0902 -0.9857
 7268TIP3    H243296   5.507   6.004   5.349  0.7385  0.4816  0.4270
 7269TIP3   OH243297   2.602   3.899  15.655 -0.3822  0.5926 -0.3914
 7269TIP3    H143298   2.637   3.865  15.572  0.9382  0.8624  0.0288
 7269TIP3    H243299   2.534   3.961  15.629 -1.8340 -1.2403 -1.2050
 7270TIP3   OH243300   6.613   0.800  13.004  0.3447 -0.1147  0.0846
 7270TIP3    H143301   6.671   0.741  12.957 -0.0126 -0.0247 -0.4717
 7270TIP3    H243302   6.576   0.746  13.074 -0.0611 -0.5899 -0.4824
 7271TIP3   OH243303   6.517   5.519   5.470 -0.1813 -0.3458  0.5231
 7271TIP3    H143304   6.586   5.458   5.495 -0.6295 -1.5392 -0.9710
 7271TIP3    H243305   6.543   5.551   5.384 -0.8704  0.1752  0.4948
 7272TIP3   OH243306   0.703   0.289   5.825 -0.1054 -0.6051  0.6845
 7272TIP3    H143307   0.650   0.319   5.751  0.7044 -0.7332  0.0322
 7272TIP3    H243308   0.701   0.194   5.819  2.2497 -0.6580 -0.9322
 7273TIP3   OH243309   3.625   6.162  12.762  0.6582 -0.3037  0.1716
 7273TIP3    H143310   3.593   6.222  12.695 -2.3761 -1.9718 -0.0242
 7273TIP3    H243311   3.612   6.210  12.844  1.0427  0.3977 -0.1622
 7274TIP3   OH243312   5.061   5.661  15.101 -0.1925  0.2185 -0.1281
 7274TIP3    H143313   5.032   5.678  15.191  0.3996  0.3359  0.0432
 7274TIP3    H243314   4.981   5.670  15.049 -0.8127 -1.1341  0.5260
 7275TIP3   OH243315   5.351   3.861  14.986  0.6061 -0.1225 -0.2621
 7275TIP3    H143316   5.326   3.954  14.987 -1.6933 -0.6902  0.9518
 7275TIP3    H243317   5.440   3.861  14.951  0.3141  2.4431 -1.2237
 7276TIP3   OH243318   2.325   1.706  14.045 -0.3887 -0.2668 -0.1901
 7276TIP3    H143319   2.320   1.662  14.130  1.0876 -0.5690 -0.2412
 7276TIP3    H243320   2.264   1.780  14.053  0.8649  0.6395  1.7095
 7277TIP3   OH243321   6.640   3.683   0.771 -0.6140  0.1712 -0.4609
 7277TIP3    H143322   6.726   3.658   0.804 -1.0830 -0.4421  0.3544
 7277TIP3    H243323   6.647   3.680   0.676  0.1818 -0.1453 -0.3916
 7278TIP3   OH243324   3.802   0.017   3.416  0.1714  0.6944  0.7343
 7278TIP3    H143325   3.760   0.074   3.480  0.6228  0.0709  1.6062
 7278TIP3    H243326   3.886  -0.006   3.455  0.5572  0.4770 -0.1872
 7279TIP3   OH243327   1.372   6.282  10.984  0.2378  0.4376  0.4728
 7279TIP3    H143328   1.308   6.349  11.004  0.4530  2.3472 -4.0167
 7279TIP3    H243329   1.322   6.210  10.945  0.4846  0.7489 -0.4662
 7280TIP3   OH243330   3.437   6.786  13.301  0.5406 -0.2141  0.3366
 7280TIP3    H143331   3.464   6.812  13.213  1.5321 -0.8826  0.4245
 7280TIP3    H243332   3.484   6.846  13.359  0.8966 -0.5774  0.4394
 7281TIP3   OH243333   2.376   1.355  16.765  0.0955  0.8293  0.0648
 7281TIP3    H143334   2.296   1.308  16.787  0.0705  1.1957  0.7581
 7281TIP3    H243335   2.425   1.359  16.847  0.5117  1.2137 -0.1982
 7282TIP3   OH243336   4.028   3.937   6.344 -0.3853  0.4346 -0.2790
 7282TIP3    H143337   4.123   3.926   6.344 -0.2632  1.3661  0.1800
 7282TIP3    H243338   4.010   3.992   6.268 -0.4001  1.3372  0.3585
 7283TIP3   OH243339   5.145   4.133  11.023 -0.3367 -0.4896  0.6124
 7283TIP3    H143340   5.150   4.090  11.108  0.1282  0.3341  1.0135
 7283TIP3    H243341   5.171   4.224  11.040  2.4002 -0.9062 -0.8622
 7284TIP3   OH243342   5.858   2.095  12.023  0.1215 -0.5636  0.7818
 7284TIP3    H143343   5.797   2.082  11.951 -0.3048  1.0188  0.8232
 7284TIP3    H243344   5.812   2.059  12.100 -0.3514 -0.2666  0.6431
 7285TIP3   OH243345   0.590   1.082   5.541  0.2435 -0.3739 -0.2977
 7285TIP3    H143346   0.567   1.162   5.493  1.1183 -0.5330 -1.0064
 7285TIP3    H243347   0.672   1.104   5.585  0.1269 -0.6620  0.0615
 7286TIP3   OH243348   3.071   1.425   3.731 -0.2355  0.2226 -0.0043
 7286TIP3    H143349   3.133   1.376   3.786  1.1103  2.3131  0.4632
 7286TIP3    H243350   3.110   1.422   3.644  0.0962  0.8208  0.1185
 7287TIP3   OH243351   2.875   4.710  11.475 -0.2008  0.0017 -0.3306
 7287TIP3    H143352   2.823   4.648  11.424 -0.2806  1.9388 -2.8210
 7287TIP3    H243353   2.818   4.787  11.484  1.4823  1.4584 -1.4798
 7288TIP3   OH243354   5.662   0.131   5.876 -0.0123 -0.3540  0.0391
 7288TIP3    H143355   5.678   0.216   5.916 -0.3123 -1.0403  1.6764
 7288TIP3    H243356   5.661   0.149   5.782  0.9534  1.2620  0.3041
 7289TIP3   OH243357   5.803   5.381   2.122 -0.6284 -0.3698  0.2672
 7289TIP3    H143358   5.730   5.334   2.163 -0.3090 -0.0909  1.1764
 7289TIP3    H243359   5.872   5.381   2.189  0.3241 -0.9009 -0.6871
 7290TIP3   OH243360   6.055   6.561  17.197 -0.7177 -0.3219  0.0101
 7290TIP3    H143361   6.032   6.572  17.105 -0.2881 -0.0441 -0.0671
 7290TIP3    H243362   6.054   6.466  17.211 -0.8153 -0.3625 -0.2710
 7291TIP3   OH243363   1.306   2.047  12.012 -0.1946 -0.2649 -0.1543
 7291TIP3    H143364   1.387   1.996  12.003  0.2102  0.2241  0.6497
 7291TIP3    H243365   1.257   2.003  12.081 -1.1689 -1.2394 -1.3972
 7292TIP3   OH243366   3.341   1.840  16.582  0.6645  0.0709 -0.1423
 7292TIP3    H143367   3.404   1.912  16.586  1.3347 -0.4566 -0.7919
 7292TIP3    H243368   3.350   1.806  16.493 -0.7597  0.1592 -0.3415
 7293TIP3   OH243369   1.076   2.887   0.258 -0.4731 -0.5762 -0.5536
 7293TIP3    H143370   0.992   2.866   0.217 -0.7745  0.1522 -0.3386
 7293TIP3    H243371   1.105   2.966   0.213  1.1768 -1.9895 -2.1314
 7294TIP3   OH243372   5.183   0.087   5.191  0.1718 -0.3564 -0.2723
 7294TIP3    H143373   5.143   0.128   5.268 -1.4647 -0.4306 -1.0274
 7294TIP3    H243374   5.276   0.110   5.197 -0.0015  0.0640  1.4361
 7295TIP3   OH243375   5.287   2.679  13.973 -0.0046  0.2474 -0.3160
 7295TIP3    H143376   5.328   2.593  13.964 -1.0307 -0.3390  0.2680
 7295TIP3    H243377   5.199   2.659  14.005  0.2009  1.5953  1.1943
 7296TIP3   OH243378   3.435   6.622   3.369 -0.2292 -0.1627 -0.0077
 7296TIP3    H143379   3.363   6.559   3.357  0.6454 -0.8796 -1.7740
 7296TIP3    H243380   3.490   6.582   3.436  1.3441 -2.3864 -2.4112
 7297TIP3   OH243381   0.616   0.030   2.831  0.2018 -0.2779  0.5225
 7297TIP3    H143382   0.677   0.027   2.757 -1.2408 -4.4475 -0.8051
 7297TIP3    H243383   0.670   0.011   2.908  1.2290  0.7704  0.0832
 7298TIP3   OH243384   2.914   5.124  12.576 -0.1467 -0.5996  0.5098
 7298TIP3    H143385   2.877   5.149  12.491  0.4808  1.5021  0.8015
 7298TIP3    H243386   2.999   5.086  12.556 -0.9756 -2.3342  0.0780
 7299TIP3   OH243387   6.054   5.995   0.047 -0.1468 -1.2555  0.0303
 7299TIP3    H143388   5.960   6.010   0.058 -0.2807 -1.4101 -0.8333
 7299TIP3    H243389   6.095   6.051   0.114 -0.7943 -0.0119 -0.5804
 7300TIP3   OH243390   1.763   1.886  13.244 -0.9486  0.8855 -0.1904
 7300TIP3    H143391   1.726   1.959  13.294 -2.2982 -0.3125  0.6172
 7300TIP3    H243392   1.818   1.839  13.307  0.1399  1.3312 -0.7796
 7301TIP3   OH243393   4.636   4.859   0.764  0.3348 -0.4854  0.1071
 7301TIP3    H143394   4.710   4.817   0.720 -0.4237 -1.3630 -0.3759
 7301TIP3    H243395   4.620   4.805   0.842 -0.3150 -0.8104 -0.2377
 7302TIP3   OH243396   1.149   1.553  12.888  0.2917 -0.1653 -0.0218
 7302TIP3    H143397   1.146   1.549  12.984 -0.5211 -1.5603 -0.0885
 7302TIP3    H243398   1.085   1.620  12.865  0.3783  0.0663  0.3957
 7303TIP3   OH243399   2.848   3.894  16.791  0.4231  0.1130  0.4408
 7303TIP3    H143400   2.766   3.886  16.840  0.6441 -0.8959  0.6759
 7303TIP3    H243401   2.820   3.920  16.703 -0.1558 -0.1710  0.5326
 7304TIP3   OH243402   5.353   2.081  15.422  0.4956  0.3644  0.7340
 7304TIP3    H143403   5.269   2.127  15.414 -0.4399 -1.4369 -0.3171
 7304TIP3    H243404   5.392   2.116  15.502 -0.4866  2.4305  0.3694
 7305TIP3   OH243405   1.667   6.712   5.461 -0.0872 -0.4087  0.7295
 7305TIP3    H143406   1.720   6.632   5.451 -0.7066 -0.6008 -1.7375
 7305TIP3    H243407   1.586   6.681   5.501 -0.8475 -1.3416 -1.3836
 7306TIP3   OH243408   5.538   0.999   0.380  0.1327  0.0527  0.2012
 7306TIP3    H143409   5.572   0.926   0.432  0.0424 -0.7142 -0.7833
 7306TIP3    H243410   5.615   1.052   0.360  0.2187  0.1650  0.8086
 7307TIP3   OH243411   4.884   4.463   0.618  0.2926 -0.3079  0.1429
 7307TIP3    H143412   4.923   4.531   0.673  0.6777  0.2497 -0.8039
 7307TIP3    H243413   4.956   4.432   0.563  0.1896 -1.6787  0.7213
 7308TIP3   OH243414   1.257   5.689  15.675  0.0616  0.5018  0.5617
 7308TIP3    H143415   1.345   5.651  15.669 -0.1425  0.1973 -1.2554
 7308TIP3    H243416   1.198   5.614  15.670 -0.3055  0.8166  0.0393
 7309TIP3   OH243417   2.599   4.587   3.085 -0.9118 -0.1588  0.6296
 7309TIP3    H143418   2.609   4.520   3.153 -0.8781 -0.1680  0.6157
 7309TIP3    H243419   2.677   4.577   3.031 -1.1724 -0.4750  0.3071
 7310TIP3   OH243420   0.610   2.828   1.016 -0.5502 -0.0974 -0.4110
 7310TIP3    H143421   0.611   2.787   0.929  2.8136  0.7385 -0.8864
 7310TIP3    H243422   0.555   2.906   1.005 -1.0483 -0.5859 -1.4837
 7311TIP3   OH243423   6.001   0.890  11.578 -0.0514  0.0246  1.0484
 7311TIP3    H143424   5.907   0.906  11.574 -0.5134 -2.3009  1.1787
 7311TIP3    H243425   6.040   0.958  11.523 -1.8587  0.5879  0.4012
 7312TIP3   OH243426   0.877   1.294   4.835 -0.0077 -0.2640 -0.6806
 7312TIP3    H143427   0.826   1.363   4.792 -1.0448 -1.0834 -0.7876
 7312TIP3    H243428   0.901   1.234   4.766 -0.2186 -0.6950 -0.3811
 7313TIP3   OH243429   0.142   3.923   0.657  0.2966 -0.0610 -0.6121
 7313TIP3    H143430   0.204   3.874   0.602 -0.1309 -0.1418 -1.0371
 7313TIP3    H243431   0.175   3.913   0.746  0.0242 -1.4376 -0.6458
 7314TIP3   OH243432   6.084   5.808   3.318  0.1171  0.0774 -0.4219
 7314TIP3    H143433   6.041   5.824   3.402  0.3394  0.6401 -0.4084
 7314TIP3    H243434   6.147   5.879   3.310  0.7714 -0.5161 -0.6262
 7315TIP3   OH243435   0.978   2.221   2.809 -0.5482 -0.6434 -0.1514
 7315TIP3    H143436   0.911   2.206   2.876 -2.6723 -0.8140 -2.1808
 7315TIP3    H243437   0.981   2.316   2.799 -0.7650 -0.6536 -0.3184
 7316TIP3   OH243438   3.270   4.795  14.660  0.1947 -0.0571 -0.2537
 7316TIP3    H143439   3.317   4.719  14.626  0.9034  0.1385  0.2526
 7316TIP3    H243440   3.207   4.817  14.592  0.1514 -0.9420 -0.5142
 7317TIP3   OH243441   0.813   1.668   2.608 -0.2281  0.0401  0.1531
 7317TIP3    H143442   0.727   1.641   2.640  0.6291 -0.9485  1.7839
 7317TIP3    H243443   0.844   1.731   2.673  0.0531  0.8304 -0.7332
 7318TIP3   OH243444   1.634   5.293  16.662 -0.0561  0.2270  0.6314
 7318TIP3    H143445   1.668   5.287  16.751 -1.6039  0.8643  1.3002
 7318TIP3    H243446   1.683   5.365  16.623 -0.2697  0.8023  1.4004
 7319TIP3   OH243447   4.389   2.692   5.635 -0.0773 -0.0961 -0.2328
 7319TIP3    H143448   4.347   2.764   5.680 -0.9574 -0.7768  0.0611
 7319TIP3    H243449   4.318   2.647   5.589  0.5400 -0.4352 -0.8915
 7320TIP3   OH243450   1.162   2.587   4.959  0.4919 -0.9189  0.3606
 7320TIP3    H143451   1.139   2.495   4.961  3.1927 -1.6713  2.4947
 7320TIP3    H243452   1.257   2.589   4.946  0.5815  1.5284  0.8013
 7321TIP3   OH243453   4.118   3.620   3.958 -0.2601  0.2138  0.1477
 7321TIP3    H143454   4.147   3.550   4.017  1.2831  0.0433 -0.7636
 7321TIP3    H243455   4.041   3.584   3.914  1.2720 -1.5468 -1.3149
 7322TIP3   OH243456   4.687   0.313   0.746  0.2302  0.2300 -0.5804
 7322TIP3    H143457   4.657   0.231   0.784  0.4633  1.0226  1.4894
 7322TIP3    H243458   4.688   0.374   0.820 -0.1462  2.1628 -2.0900
 7323TIP3   OH243459   1.969   5.439   0.039 -0.2019 -0.1491 -0.2824
 7323TIP3    H143460   1.926   5.491   0.107 -2.0281 -0.7140 -0.9320
 7323TIP3    H243461   1.982   5.354   0.079 -4.7454 -1.7686 -1.5432
 7324TIP3   OH243462   4.715   4.907  13.258 -0.0852  0.0946  0.4220
 7324TIP3    H143463   4.803   4.940  13.269  0.1000 -0.3611  0.3425
 7324TIP3    H243464   4.722   4.840  13.190 -0.2762 -0.7310  1.1834
 7325TIP3   OH243465   0.171   6.331  11.470  0.4777 -0.0530 -0.1199
 7325TIP3    H143466   0.101   6.325  11.405 -1.1972  1.3772  1.4427
 7325TIP3    H243467   0.182   6.241  11.501 -1.5898 -0.1780  0.4391
 7326TIP3   OH243468   0.274   4.710  15.461 -0.5275 -0.0647 -0.3563
 7326TIP3    H143469   0.337   4.680  15.397 -1.4851 -0.0195 -1.3485
 7326TIP3    H243470   0.273   4.641  15.528  1.8721  0.7838  0.6573
 7327TIP3   OH243471   6.178   2.936   4.082 -0.1500  0.5217  0.5518
 7327TIP3    H143472   6.270   2.915   4.065  0.0440  1.0647  0.8925
 7327TIP3    H243473   6.129   2.882   4.020  0.4192  0.5655  0.0529
 7328TIP3   OH243474   1.091   6.684  12.720  0.6579 -0.3132 -0.2918
 7328TIP3    H143475   1.157   6.731  12.669 -1.3047  1.4322 -1.3722
 7328TIP3    H243476   1.008   6.712  12.683 -0.7696 -1.5640  1.7598
 7329TIP3   OH243477   0.240   4.382  12.679  0.2175 -0.7695  0.1317
 7329TIP3    H143478   0.287   4.389  12.762  0.6909 -1.6377 -0.0534
 7329TIP3    H243479   0.156   4.425  12.695  0.0249 -1.5448  1.2640
 7330TIP3   OH243480   1.978   2.668   5.700 -0.5924  0.3548  0.0855
 7330TIP3    H143481   1.932   2.584   5.702 -0.4080  0.2215 -0.8359
 7330TIP3    H243482   2.005   2.678   5.609  2.5553 -0.3056  0.8411
 7331TIP3   OH243483   0.867   3.184   6.039  0.8197 -0.2205  0.5664
 7331TIP3    H143484   0.830   3.145   6.118 -0.6616  1.4291  0.7659
 7331TIP3    H243485   0.845   3.122   5.969 -1.0124 -0.0620  0.9441
 7332TIP3   OH243486   0.566   2.563   2.731 -0.2887  0.3487 -0.0870
 7332TIP3    H143487   0.513   2.503   2.784 -1.0668  1.4188  0.3833
 7332TIP3    H243488   0.501   2.613   2.680  0.4074 -0.2212 -1.5989
 7333TIP3   OH243489   5.862   4.650   0.241  0.2274  0.3215  0.1819
 7333TIP3    H143490   5.951   4.672   0.216  0.6639 -0.9267  0.5342
 7333TIP3    H243491   5.865   4.556   0.260 -1.4308 -0.0028 -0.9709
 7334TIP3   OH243492   1.863   2.020   2.303 -0.0932  0.2977  0.3328
 7334TIP3    H143493   1.907   2.015   2.218 -0.0148  0.3690  0.3692
 7334TIP3    H243494   1.841   2.112   2.314  0.2700  0.3583  0.5779
 7335TIP3   OH243495   1.421   1.760  14.262 -0.1442 -0.0063  0.0050
 7335TIP3    H143496   1.430   1.840  14.314 -4.4163 -0.0592  1.2939
 7335TIP3    H243497   1.384   1.789  14.179 -1.1235 -0.5333  0.2382
 7336TIP3   OH243498   3.268   4.540  12.392  1.0893 -0.1696 -0.1857
 7336TIP3    H143499   3.176   4.520  12.406  1.1878  0.0802  0.9904
 7336TIP3    H243500   3.284   4.520  12.300 -0.2258  0.1588 -0.5047
 7337TIP3   OH243501   0.523   4.280   6.383 -0.1465 -0.7691  0.0605
 7337TIP3    H143502   0.544   4.358   6.434  1.0891 -1.0541  0.0219
 7337TIP3    H243503   0.532   4.208   6.446 -1.0744 -0.9213  0.0438
 7338TIP3   OH243504   4.627   2.344   0.394 -0.3902 -0.3984 -0.1885
 7338TIP3    H143505   4.708   2.295   0.410 -1.3075 -1.7843  0.4963
 7338TIP3    H243506   4.583   2.345   0.479 -1.3974 -0.2679 -0.6997
 7339TIP3   OH243507   0.820   5.854  15.771 -0.0982 -0.1322  0.4220
 7339TIP3    H143508   0.886   5.833  15.705 -0.4478 -0.4629  0.1728
 7339TIP3    H243509   0.741   5.871  15.720 -0.2240  0.2005  0.7227
 7340TIP3   OH243510   4.456   4.543  14.527 -0.4478  0.0585 -0.8129
 7340TIP3    H143511   4.393   4.506  14.465 -0.4639 -0.7966 -0.3068
 7340TIP3    H243512   4.471   4.472  14.590 -1.4894  1.3418  0.9694
 7341TIP3   OH243513   3.314   1.669   3.895  0.2838 -0.4700 -0.0843
 7341TIP3    H143514   3.340   1.588   3.851  2.4347 -0.1769  0.5393
 7341TIP3    H243515   3.367   1.671   3.975 -0.9096  0.7922  0.7279
 7342TIP3   OH243516   5.694   5.245   0.617  0.1935  0.1474  0.5657
 7342TIP3    H143517   5.744   5.204   0.547 -0.9644 -1.1693  0.4807
 7342TIP3    H243518   5.638   5.309   0.573 -0.5425 -0.6886  0.2586
 7343TIP3   OH243519   5.858   6.454   0.455  0.3444 -0.4158  0.4266
 7343TIP3    H143520   5.852   6.500   0.371 -1.9526 -2.7781 -0.8258
 7343TIP3    H243521   5.943   6.480   0.490  0.4273  2.3988 -1.5394
 7344TIP3   OH243522   3.460   3.720   4.761 -0.0370 -0.1471  0.2671
 7344TIP3    H143523   3.477   3.656   4.691  2.4011  0.9204 -0.2399
 7344TIP3    H243524   3.408   3.672   4.825  0.9229 -2.3901 -0.5137
 7345TIP3   OH243525   1.083   1.114   1.839  0.3137  0.2144  0.3102
 7345TIP3    H143526   1.055   1.038   1.788 -1.3673  0.5213  0.7196
 7345TIP3    H243527   1.175   1.126   1.816 -0.2565  0.0810 -2.3252
 7346TIP3   OH243528   5.468   6.681  13.933  0.2470 -0.1451  0.6068
 7346TIP3    H143529   5.504   6.770  13.939  1.6318 -0.6666  0.3709
 7346TIP3    H243530   5.513   6.633  14.003  2.1475 -1.4930 -1.4014
 7347TIP3   OH243531   1.258   1.818  12.753  0.0084  0.6831  0.4307
 7347TIP3    H143532   1.299   1.772  12.826  0.2715 -1.1405 -0.7806
 7347TIP3    H243533   1.165   1.820  12.774  0.0825  0.1501  0.8179
 7348TIP3   OH243534   0.929   1.540  17.012  0.1025 -0.1636 -0.5456
 7348TIP3    H143535   0.861   1.477  16.990  0.1844 -0.1231 -0.9271
 7348TIP3    H243536   1.003   1.517  16.956  1.3546 -1.8163  1.6377
 7349TIP3   OH243537   0.911   3.459   3.486 -0.0690 -0.3606 -0.8674
 7349TIP3    H143538   0.976   3.419   3.544 -0.3446  1.4441  0.8143
 7349TIP3    H243539   0.957   3.532   3.445 -0.4735 -0.3305 -1.2778
 7350TIP3   OH243540   1.331   2.895  16.703  0.0076  0.2828 -0.7397
 7350TIP3    H143541   1.265   2.825  16.701  0.4598 -0.3095  1.6848
 7350TIP3    H243542   1.371   2.888  16.790  0.2874  3.3988 -0.5115
 7351TIP3   OH243543   6.489   5.674  15.753  0.3764  0.0915 -0.3997
 7351TIP3    H143544   6.506   5.762  15.718 -0.4881  0.1236 -0.7582
 7351TIP3    H243545   6.502   5.616  15.678  0.4751 -0.0440 -0.2785
 7352TIP3   OH243546   2.493   4.948   2.307  0.4844 -0.1103 -0.3729
 7352TIP3    H143547   2.555   4.877   2.324 -2.0614 -1.6225  4.8474
 7352TIP3    H243548   2.413   4.903   2.278 -0.3534  0.8536  0.3701
 7353TIP3   OH243549   3.847   0.167  14.119  0.4458 -0.5877  0.4091
 7353TIP3    H143550   3.831   0.106  14.192  1.4296  0.0304  1.1784
 7353TIP3    H243551   3.896   0.239  14.159  0.3525  0.1285 -0.7285
 7354TIP3   OH243552   6.302   5.653  16.347 -0.0011  0.0940  0.3079
 7354TIP3    H143553   6.276   5.740  16.376  0.0140 -0.4820  2.2216
 7354TIP3    H243554   6.391   5.643  16.380  0.4023 -0.2578 -0.8422
 7355TIP3   OH243555   1.604   6.299   2.994 -1.0225 -0.5016 -0.3937
 7355TIP3    H143556   1.644   6.323   2.910 -0.0306  2.2772  0.7449
 7355TIP3    H243557   1.664   6.235   3.031  1.1336  1.6637  0.1154
 7356TIP3   OH243558   5.203   5.933  11.972 -0.2561 -0.4927  0.0748
 7356TIP3    H143559   5.134   5.878  11.937 -1.1193 -0.2026  1.2529
 7356TIP3    H243560   5.262   5.949  11.898 -1.8872 -0.0569 -1.1824
 7357TIP3   OH243561   2.355   4.613  13.058 -0.4799 -0.3091 -0.0829
 7357TIP3    H143562   2.394   4.526  13.065  0.1475 -0.1014 -0.9142
 7357TIP3    H243563   2.262   4.597  13.042 -0.4580 -0.8119  0.2669
 7358TIP3   OH243564   3.170   6.009   3.717 -0.0982  0.0573  0.0374
 7358TIP3    H143565   3.135   6.049   3.797  0.9211 -1.7239  1.4503
 7358TIP3    H243566   3.093   5.989   3.664 -0.9658 -0.5013  1.4566
 7359TIP3   OH243567   2.746   2.525   2.761  0.0489 -0.2781  0.2322
 7359TIP3    H143568   2.785   2.500   2.845  2.5430  1.1779 -0.3869
 7359TIP3    H243569   2.671   2.466   2.751  0.7021 -1.6653  2.6486
 7360TIP3   OH243570   2.952   4.505   5.376  0.1353 -0.1637  0.2732
 7360TIP3    H143571   2.877   4.532   5.429  0.7044  2.0639  0.0175
 7360TIP3    H243572   2.913   4.471   5.295 -0.6163  0.1766  0.4830
 7361TIP3   OH243573   2.508   2.221  12.030  0.4438  0.1005  0.1361
 7361TIP3    H143574   2.457   2.250  12.105 -1.9172 -0.7504 -1.0628
 7361TIP3    H243575   2.550   2.140  12.059 -0.0508  0.0432  0.6996
 7362TIP3   OH243576   5.354   0.926  12.479 -0.2627 -0.0168 -0.4460
 7362TIP3    H143577   5.361   0.924  12.383  1.0888  2.1512 -0.4588
 7362TIP3    H243578   5.442   0.949  12.509 -0.7515 -0.3014  1.3125
 7363TIP3   OH243579   2.519   4.838  11.984 -0.2870  0.3038 -0.2973
 7363TIP3    H143580   2.528   4.753  11.942  0.2940  0.1557  0.1214
 7363TIP3    H243581   2.514   4.900  11.911  0.8146  0.0568 -0.6008
 7364TIP3   OH243582   2.799   4.045   6.250 -0.3958 -0.3118 -0.1887
 7364TIP3    H143583   2.763   4.131   6.269  1.3865  0.1997  1.1604
 7364TIP3    H243584   2.782   3.993   6.329 -1.8489 -1.3714 -1.1549
 7365TIP3   OH243585   2.223   5.380   5.251 -0.2302 -0.0294 -0.2036
 7365TIP3    H143586   2.165   5.304   5.253  0.8819 -0.9030  0.6724
 7365TIP3    H243587   2.165   5.455   5.243 -1.4270 -0.9108 -0.0237
 7366TIP3   OH243588   6.184   4.036   3.762  0.1591 -0.3948 -0.5285
 7366TIP3    H143589   6.253   4.101   3.773 -0.3573 -0.0558  1.0628
 7366TIP3    H243590   6.217   3.958   3.806 -1.0082  0.2349  1.6299
 7367TIP3   OH243591   3.119   3.521   3.064  0.3348 -0.2008  0.1887
 7367TIP3    H143592   3.057   3.490   2.998  0.1176  0.2162  0.1947
 7367TIP3    H243593   3.204   3.489   3.033  0.2876  0.3321 -0.5064
 7368TIP3   OH243594   5.797   0.389   4.523 -0.1102  0.1605 -0.3499
 7368TIP3    H143595   5.861   0.440   4.572  0.6494  0.7896 -1.9306
 7368TIP3    H243596   5.849   0.328   4.470 -0.8418  0.0165 -0.9344
 7369TIP3   OH243597   3.985   6.327  10.598 -0.9148  0.3451 -0.3330
 7369TIP3    H143598   4.023   6.407  10.633  0.2158  0.1733 -1.1377
 7369TIP3    H243599   3.950   6.352  10.512  1.5798 -0.4966 -1.6806
 7370TIP3   OH243600   6.715   4.591   0.182  0.6020  0.5123  0.6758
 7370TIP3    H143601   6.791   4.533   0.175  0.1823  0.0793 -0.5545
 7370TIP3    H243602   6.645   4.545   0.135 -0.3839  0.9855  1.6162
 7371TIP3   OH243603   0.096   1.112  15.222  0.3702  0.1529 -0.1081
 7371TIP3    H143604   0.148   1.170  15.166 -0.5420  0.1075 -1.0284
 7371TIP3    H243605   0.005   1.138  15.206  0.1019  0.6120  1.8976
 7372TIP3   OH243606   1.078   6.786   3.218  0.4297  0.0704 -0.5075
 7372TIP3    H143607   1.089   6.741   3.301  1.1940  0.7071 -0.2527
 7372TIP3    H243608   1.085   6.879   3.239 -1.0633  0.3353 -1.0346
 7373TIP3   OH243609   5.978   2.960  13.396  0.1761  0.1348 -0.0981
 7373TIP3    H143610   6.036   2.883  13.395  1.1794  0.8621 -0.1221
 7373TIP3    H243611   5.952   2.968  13.487  0.9985  0.4230  0.1224
 7374TIP3   OH243612   4.674   4.371   5.696  0.4661  0.2377  0.0380
 7374TIP3    H143613   4.598   4.315   5.713 -0.1524  0.9458 -0.3195
 7374TIP3    H243614   4.673   4.384   5.601  2.3062 -1.4846 -0.2779
 7375TIP3   OH243615   0.184   4.494  16.750 -0.1295 -0.5476  0.2444
 7375TIP3    H143616   0.260   4.439  16.769  0.3926 -0.7822 -2.1706
 7375TIP3    H243617   0.112   4.432  16.741 -0.1132 -0.5580  0.1863
 7376TIP3   OH243618   1.251   1.638  16.751  0.0409 -0.0614  0.2596
 7376TIP3    H143619   1.257   1.676  16.663  0.2750  0.2637  0.4102
 7376TIP3    H243620   1.165   1.598  16.754 -0.9848  2.0142  0.6856
 7377TIP3   OH243621   1.759   0.681  11.907  0.2293 -0.3807 -0.1241
 7377TIP3    H143622   1.750   0.643  11.820 -1.0490 -0.9088  0.2202
 7377TIP3    H243623   1.675   0.663  11.950  0.7224  0.1537  1.1024
 7378TIP3   OH243624   1.329   2.156  16.450 -0.1804  0.2587 -0.3765
 7378TIP3    H143625   1.406   2.159  16.506  0.2617  0.5976 -0.9891
 7378TIP3    H243626   1.312   2.062  16.438  1.5622  0.1037 -2.1180
 7379TIP3   OH243627   1.862   5.112  12.744  0.2441  0.4599  0.6023
 7379TIP3    H143628   1.861   5.115  12.839 -1.0109  2.6447  0.6025
 7379TIP3    H243629   1.817   5.192  12.717 -0.5600 -0.6979 -1.8278
 7380TIP3   OH243630   0.141   2.581   2.484  0.1946  0.1775  0.0561
 7380TIP3    H143631   0.131   2.502   2.538  0.5472 -0.0511 -0.2047
 7380TIP3    H243632   0.087   2.647   2.528 -0.0223 -0.1790  0.3371
 7381TIP3   OH243633   3.648   6.343  15.391  0.0339 -0.0783  0.1844
 7381TIP3    H143634   3.662   6.332  15.485  0.9932  1.0172  0.1878
 7381TIP3    H243635   3.680   6.260  15.353  1.9906  0.4042  0.6398
 7382TIP3   OH243636   3.642   1.384   5.027  0.1768 -0.0389 -0.1613
 7382TIP3    H143637   3.647   1.416   4.936 -2.4577 -1.5569 -0.9633
 7382TIP3    H243638   3.551   1.399   5.052  0.4387 -1.1749  1.6455
 7383TIP3   OH243639   1.620   0.661  13.407  0.7889  0.0454 -0.4762
 7383TIP3    H143640   1.638   0.579  13.362  1.4428  0.4670 -1.0136
 7383TIP3    H243641   1.702   0.711  13.399  0.2976  0.8747 -0.4650
 7384TIP3   OH243642   6.412   4.654   1.848  0.2627 -0.7538 -0.0055
 7384TIP3    H143643   6.406   4.690   1.937  4.0059 -0.8159  0.4026
 7384TIP3    H243644   6.411   4.560   1.861 -0.7326 -0.7824 -0.2212
 7385TIP3   OH243645   3.486   6.411   4.152  0.0171  0.3766 -0.4092
 7385TIP3    H143646   3.477   6.389   4.245 -0.2887 -2.2794 -0.9803
 7385TIP3    H243647   3.426   6.484   4.139  0.4198  1.1185  1.5659
 7386TIP3   OH243648   3.199   4.631  15.539  0.6962 -0.0045 -0.2747
 7386TIP3    H143649   3.263   4.594  15.601 -0.7915 -1.2026  0.6293
 7386TIP3    H243650   3.154   4.699  15.589  0.5140  0.0612 -0.5263
 7387TIP3   OH243651   3.713   6.453   0.769 -0.6231 -0.0667  0.1092
 7387TIP3    H143652   3.727   6.479   0.860  0.6903 -0.5510  0.0609
 7387TIP3    H243653   3.621   6.425   0.766 -1.1293  1.4141  0.9096
 7388TIP3   OH243654   2.002   0.260   5.059  0.1084 -0.1877 -0.0030
 7388TIP3    H143655   2.013   0.285   4.967  1.8504  0.3454  0.3137
 7388TIP3    H243656   1.937   0.190   5.057  0.9063 -0.9351 -1.7675
 7389TIP3   OH243657   2.076   2.381  14.856 -0.1887 -0.6669  0.0541
 7389TIP3    H143658   2.019   2.332  14.798 -0.7852 -0.1163  0.1653
 7389TIP3    H243659   2.034   2.376  14.942 -0.0983 -0.2250  0.1293
 7390TIP3   OH243660   5.214   5.300  12.828  0.1392  0.0453 -0.0345
 7390TIP3    H143661   5.187   5.324  12.740  0.2228 -0.0020 -0.0731
 7390TIP3    H243662   5.254   5.380  12.864  0.1684  0.0438 -0.0645
 7391TIP3   OH243663   3.757   3.511  12.376  0.4937 -0.2653  0.5583
 7391TIP3    H143664   3.835   3.473  12.416 -0.8931 -0.6798  3.0508
 7391TIP3    H243665   3.733   3.449  12.308  0.4424 -1.9205  2.0319
 7392TIP3   OH243666   1.677   2.645   5.478 -0.2047  0.2420 -1.0332
 7392TIP3    H143667   1.715   2.721   5.523 -0.0642 -0.4866  0.1180
 7392TIP3    H243668   1.646   2.588   5.548  0.8236 -1.3668 -1.8077
 7393TIP3   OH243669   3.947   4.105   5.468 -0.2525  0.7486 -0.3916
 7393TIP3    H143670   3.947   4.126   5.562 -0.4102  0.2520 -0.2806
 7393TIP3    H243671   4.029   4.144   5.435  0.4020 -0.0981  0.1851
 7394TIP3   OH243672   0.574   3.609  16.830  0.0068 -0.8298 -0.4153
 7394TIP3    H143673   0.615   3.526  16.854 -1.7744 -1.5234  0.4270
 7394TIP3    H243674   0.543   3.645  16.913 -1.7677 -0.7675 -1.0578
 7395TIP3   OH243675   5.418   5.654  15.611 -0.4503  0.6875 -0.1776
 7395TIP3    H143676   5.473   5.589  15.568  0.4819  0.5561  1.1845
 7395TIP3    H243677   5.423   5.633  15.704 -2.3003  1.0677  0.0435
 7396TIP3   OH243678   5.980   4.519  13.008 -0.6260  0.0700  0.2016
 7396TIP3    H143679   6.048   4.453  13.024 -0.0912  0.6674  0.4164
 7396TIP3    H243680   6.028   4.599  12.988 -1.1480 -0.4747 -4.2378
 7397TIP3   OH243681   4.931   2.576   5.656  0.4929  1.0771 -0.7109
 7397TIP3    H143682   4.843   2.581   5.620 -0.2313  2.5297  1.0623
 7397TIP3    H243683   4.947   2.483   5.670 -1.4502  0.8555  0.3978
 7398TIP3   OH243684   3.434   4.044  13.120  0.0284  0.1986  0.2180
 7398TIP3    H143685   3.361   4.027  13.179  0.3540 -0.7189  0.3660
 7398TIP3    H243686   3.400   4.020  13.033  0.5147 -1.3992  0.4362
 7399TIP3   OH243687   6.602   2.594   5.842 -0.9021  0.5563 -0.1503
 7399TIP3    H143688   6.576   2.517   5.791 -0.4329 -1.4997  2.5199
 7399TIP3    H243689   6.564   2.667   5.794  0.0996 -1.0814 -3.8206
 7400TIP3   OH243690   3.730   0.339   5.499 -0.4508  0.1516  0.1641
 7400TIP3    H143691   3.790   0.305   5.565 -0.3313 -2.3648 -1.1482
 7400TIP3    H243692   3.643   0.324   5.537 -0.3552  0.2983  0.4475
 7401TIP3   OH243693   3.983   1.008   4.338 -0.3640 -0.0273  0.1380
 7401TIP3    H143694   3.970   0.946   4.265  2.6244  1.2358 -1.6814
 7401TIP3    H243695   3.904   1.061   4.338 -1.1576 -1.1153 -1.1008
 7402TIP3   OH243696   1.925   1.364  14.282  0.0908 -0.5141 -0.1981
 7402TIP3    H143697   1.954   1.350  14.192 -0.1205  1.2094 -0.5713
 7402TIP3    H243698   1.984   1.431  14.316  0.4645 -1.4972  1.1148
 7403TIP3   OH243699   2.868   5.203   5.169 -0.2098  0.1672 -0.2249
 7403TIP3    H143700   2.890   5.150   5.092 -1.3380 -0.8918  0.1378
 7403TIP3    H243701   2.901   5.290   5.148 -0.8145  0.0035 -2.0849
 7404TIP3   OH243702   2.690   1.898   4.078  0.4013  0.5393 -0.1675
 7404TIP3    H143703   2.727   1.984   4.100  2.1057 -0.0937 -0.4798
 7404TIP3    H243704   2.738   1.870   4.000 -1.9999  0.4711 -1.7517
 7405TIP3   OH243705   6.734   5.902   0.299 -0.1935  0.0424 -0.6890
 7405TIP3    H143706   6.691   5.840   0.241  0.3006  0.5887 -1.6807
 7405TIP3    H243707   6.682   5.982   0.292 -0.3145  0.0190 -0.1164
 7406TIP3   OH243708   2.361   4.087  15.593  0.0309 -0.2311  0.3557
 7406TIP3    H143709   2.272   4.081  15.558 -0.7756 -0.0922  2.2671
 7406TIP3    H243710   2.362   4.170  15.641  1.4831  0.1883 -0.3371
 7407TIP3   OH243711   5.900   5.389   0.304  0.1080 -0.3566 -0.1532
 7407TIP3    H143712   5.925   5.426   0.219  0.2653 -0.2458 -0.0592
 7407TIP3    H243713   5.843   5.455   0.344  0.0942 -0.3758 -0.1418
 7408TIP3   OH243714   0.813   3.361  12.242  0.3169 -0.2314  0.9301
 7408TIP3    H143715   0.777   3.314  12.317 -1.8601  0.7731  0.5858
 7408TIP3    H243716   0.785   3.310  12.166 -1.0350  0.9035  0.6241
 7409TIP3   OH243717   1.245   3.274  16.425 -0.6103  0.0066  0.0714
 7409TIP3    H143718   1.274   3.364  16.412  0.2005 -0.2618 -0.0346
 7409TIP3    H243719   1.308   3.222  16.375 -0.7750 -0.6500  0.5416
 7410TIP3   OH243720   5.895   5.968  12.732  0.3879 -0.8180 -0.6635
 7410TIP3    H143721   5.887   6.006  12.645 -1.2869  1.7636  0.5267
 7410TIP3    H243722   5.873   6.039  12.792  1.5637 -2.4786  1.9106
 7411TIP3   OH243723   5.753   5.167   1.253 -0.1075 -0.2910  0.3591
 7411TIP3    H143724   5.761   5.095   1.315  0.4436 -2.0176 -1.5946
 7411TIP3    H243725   5.722   5.126   1.172  0.1416  1.6884 -0.8112
 7412TIP3   OH243726   0.217   1.546   6.127 -0.1324  0.3340 -0.1119
 7412TIP3    H143727   0.288   1.488   6.156  0.5312  1.7730  1.3010
 7412TIP3    H243728   0.152   1.539   6.197 -1.4743 -1.0082 -1.4140
 7413TIP3   OH243729   6.260   6.426   0.842 -0.0697 -0.1425  0.2117
 7413TIP3    H143730   6.258   6.498   0.905  0.4432  0.3717 -0.3437
 7413TIP3    H243731   6.341   6.439   0.793  0.9952 -2.2001  1.3423
 7414TIP3   OH243732   2.175   2.170  16.808 -0.4435  0.3135  0.1289
 7414TIP3    H143733   2.198   2.090  16.760  0.9282 -0.1695  1.5055
 7414TIP3    H243734   2.254   2.191  16.859 -0.1897  3.4242 -1.3085
 7415TIP3   OH243735   4.606   2.817  15.082  0.1265  0.2062 -1.1338
 7415TIP3    H143736   4.560   2.769  15.013 -0.0847 -0.6535 -0.4076
 7415TIP3    H243737   4.578   2.776  15.164 -0.5482  1.9698 -0.4277
 7416TIP3   OH243738   1.053   0.816  11.913 -0.4821  0.3305 -0.6610
 7416TIP3    H143739   1.026   0.773  11.994  2.7806  0.2986  0.5643
 7416TIP3    H243740   1.039   0.909  11.930 -1.3616  0.2232 -0.7443
 7417TIP3   OH243741   1.854   4.496  12.863  0.6551 -0.1673  0.3577
 7417TIP3    H143742   1.849   4.406  12.830 -1.9666 -0.4184  1.2219
 7417TIP3    H243743   1.794   4.545  12.806 -1.0211  0.1614  2.3216
 7418TIP3   OH243744   2.084   4.759   5.145 -0.8064 -0.8166 -0.7556
 7418TIP3    H143745   2.082   4.773   5.240  2.2954  0.0685 -0.7319
 7418TIP3    H243746   2.111   4.843   5.109 -0.2539 -1.6225 -2.2898
 7419TIP3   OH243747   5.898   5.470   4.865 -0.2128  0.6016 -0.2568
 7419TIP3    H143748   5.854   5.477   4.949  0.6073 -0.8392  0.3233
 7419TIP3    H243749   5.989   5.452   4.886  0.3710  1.8985 -1.4566
 7420TIP3   OH243750   4.764   0.764  15.908 -0.2738  0.3421  0.1276
 7420TIP3    H143751   4.798   0.683  15.869 -0.6077 -0.8511  2.1984
 7420TIP3    H243752   4.735   0.739  15.995 -2.7196  2.1728 -0.0387
 7421TIP3   OH243753   5.553   4.485   1.599 -0.0397  0.7244 -0.2940
 7421TIP3    H143754   5.558   4.580   1.589 -2.1858  0.7098 -2.3074
 7421TIP3    H243755   5.460   4.465   1.593  0.3976 -1.5505 -0.4283
 7422TIP3   OH243756   2.017   0.370   1.251  0.2984 -0.0650 -0.5488
 7422TIP3    H143757   1.972   0.432   1.308 -0.0291 -2.6100  2.2018
 7422TIP3    H243758   2.086   0.333   1.307  1.1996 -1.3456 -2.4293
 7423TIP3   OH243759   6.667   3.731  16.859 -0.5729 -0.4434 -0.3965
 7423TIP3    H143760   6.639   3.646  16.893 -0.7644  0.0784  0.7948
 7423TIP3    H243761   6.586   3.772  16.829 -0.8581  0.2719  1.2485
 7424TIP3   OH243762   3.258   5.632   3.719 -0.5825  0.6113 -0.0505
 7424TIP3    H143763   3.181   5.670   3.676 -1.3027 -0.6273  0.0965
 7424TIP3    H243764   3.314   5.603   3.647 -0.4532  1.1118 -0.1556
 7425TIP3   OH243765   6.505   2.692  15.637 -0.1724 -0.5179 -0.0699
 7425TIP3    H143766   6.458   2.751  15.697 -1.4557 -1.3826 -0.1727
 7425TIP3    H243767   6.503   2.607  15.682 -1.3264 -1.2283 -1.3779
 7426TIP3   OH243768   2.168   4.839  11.058  0.2782  0.1990 -0.0961
 7426TIP3    H143769   2.202   4.809  11.142  1.3540 -1.6627 -1.1201
 7426TIP3    H243770   2.245   4.868  11.009 -0.3941  1.7660 -0.2823
 7427TIP3   OH243771   2.721   5.906  16.369 -0.0923 -0.0647 -0.0500
 7427TIP3    H143772   2.723   5.811  16.352 -0.0953 -0.3172  1.2974
 7427TIP3    H243773   2.747   5.945  16.286  0.5054 -1.2674 -0.4542
 7428TIP3   OH243774   1.638   6.565   3.950  0.2408  0.4463  0.0429
 7428TIP3    H143775   1.590   6.565   3.867  1.6846 -4.9525 -1.1941
 7428TIP3    H243776   1.572   6.587   4.016 -1.9220  1.1736 -2.2008
 7429TIP3   OH243777   1.226   0.230   0.208 -0.0534 -0.2205 -0.4252
 7429TIP3    H143778   1.232   0.321   0.240 -1.9517 -0.5885  1.2224
 7429TIP3    H243779   1.317   0.201   0.202  0.6640  2.0438 -1.9149
 7430TIP3   OH243780   0.001   3.009  15.358 -0.6015 -0.1762 -0.1541
 7430TIP3    H143781  -0.043   2.946  15.415  0.5623 -0.4969  0.4295
 7430TIP3    H243782   0.094   2.999  15.379 -0.0350 -0.8757 -2.6912
 7431TIP3   OH243783   3.346   1.805   2.155  0.1033  0.1941 -0.2051
 7431TIP3    H143784   3.332   1.889   2.111 -0.2044  0.2286 -0.0434
 7431TIP3    H243785   3.353   1.827   2.247  1.2859  0.1838 -0.2832
 7432TIP3   OH243786   2.569   5.574  15.745  0.2893  0.3297  0.2026
 7432TIP3    H143787   2.662   5.589  15.731  0.4933 -2.3366 -2.1573
 7432TIP3    H243788   2.566   5.495  15.800 -0.5834  0.5606  0.4996
 7433TIP3   OH243789   5.101   1.777  14.974 -0.6507  0.0943  0.3158
 7433TIP3    H143790   5.126   1.867  14.998  0.6792  1.2090 -4.2191
 7433TIP3    H243791   5.011   1.784  14.943 -1.2450 -0.6201  1.8114
 7434TIP3   OH243792   0.033   1.848  12.266 -0.5087  0.5947  0.5996
 7434TIP3    H143793   0.059   1.887  12.182  1.4320 -0.7764  0.4939
 7434TIP3    H243794  -0.054   1.812  12.251 -0.7856  1.6176 -0.3773
 7435TIP3   OH243795   0.362   2.985  14.522  0.1707  0.2236 -0.4343
 7435TIP3    H143796   0.321   3.019  14.443 -1.5387 -1.0745 -0.1526
 7435TIP3    H243797   0.456   2.986  14.503 -0.1196  1.1240 -1.9668
 7436TIP3   OH243798   5.485   5.640  16.443  0.1729 -0.6079 -0.0528
 7436TIP3    H143799   5.440   5.708  16.493  0.0174 -0.6067 -0.1955
 7436TIP3    H243800   5.512   5.575  16.509 -0.4543 -0.8446 -0.0218
 7437TIP3   OH243801   4.928   5.870  15.773 -0.5893 -0.2284  0.1781
 7437TIP3    H143802   4.982   5.878  15.851 -0.0645 -2.3442  0.0834
 7437TIP3    H243803   4.981   5.908  15.703 -0.9199  1.3459  0.7313
 7438TIP3   OH243804   4.656   2.319  15.739 -0.0213 -0.5217 -0.0708
 7438TIP3    H143805   4.576   2.340  15.787  0.0351 -1.1568  0.3132
 7438TIP3    H243806   4.720   2.299  15.808 -0.5578 -3.7538 -0.3695
 7439TIP3   OH243807   1.044   2.977  16.555  0.2481 -0.2844  0.7422
 7439TIP3    H143808   1.007   2.966  16.643  0.2539 -0.9304  0.6741
 7439TIP3    H243809   1.129   2.932  16.560 -0.4919 -1.8648 -0.0588
 7440TIP3   OH243810   6.806   6.599  17.004  0.3204  0.1590 -0.0780
 7440TIP3    H143811   6.740   6.610  17.073 -0.3127  0.3420 -0.6993
 7440TIP3    H243812   6.758   6.559  16.931  1.1469 -0.6922 -0.1642
 7441TIP3   OH243813   4.179   2.281   2.647  0.4628 -0.4090  0.7522
 7441TIP3    H143814   4.147   2.365   2.615  0.2438 -1.0040 -0.6883
 7441TIP3    H243815   4.159   2.219   2.576  0.8708 -1.6192  1.6572
 7442TIP3   OH243816   2.630   3.781  16.006  0.4128 -0.0153 -0.0181
 7442TIP3    H143817   2.695   3.811  15.942 -1.4577  1.8091 -1.2183
 7442TIP3    H243818   2.672   3.796  16.091  2.1405 -0.4313 -0.7507
 7443TIP3   OH243819   2.431   2.541  15.314 -0.5339 -0.0707  0.5835
 7443TIP3    H143820   2.448   2.449  15.330  1.2896  0.0454 -0.3563
 7443TIP3    H243821   2.518   2.578  15.294 -1.1449  1.9339  1.4067
 7444TIP3   OH243822   6.229   2.269  15.707  0.0259 -0.0585  0.5715
 7444TIP3    H143823   6.198   2.224  15.786 -0.6192 -0.2700  0.2026
 7444TIP3    H243824   6.299   2.213  15.674  0.5168  0.1934  1.1652
 7445TIP3   OH243825   3.102   4.251  14.705  0.1356 -0.0870  0.2086
 7445TIP3    H143826   3.025   4.289  14.663 -0.0284  0.1268  0.6952
 7445TIP3    H243827   3.094   4.157  14.689 -1.2955 -0.3091  1.9423
 7446TIP3   OH243828   0.526   6.206   3.778  0.1075 -0.1215 -0.1378
 7446TIP3    H143829   0.565   6.170   3.699 -0.7219 -1.3602 -0.0186
 7446TIP3    H243830   0.569   6.160   3.850 -1.2850 -1.2885  0.0026
 7447TIP3   OH243831   2.510   3.550   1.857  0.1109 -0.2814 -0.1494
 7447TIP3    H143832   2.556   3.504   1.787  0.9057  0.5324 -0.1792
 7447TIP3    H243833   2.556   3.633   1.866 -2.0106  1.0631 -0.8974
 7448TIP3   OH243834   5.834   5.216  13.762  0.2750  0.0334  0.0067
 7448TIP3    H143835   5.817   5.199  13.855  3.7708  1.6702  1.1088
 7448TIP3    H243836   5.907   5.158  13.740  0.6663  0.9326 -1.1683
 7449TIP3   OH243837   6.580   6.469   5.698  0.3376  0.1025  0.0869
 7449TIP3    H143838   6.613   6.419   5.773  0.0992  0.9844  0.7849
 7449TIP3    H243839   6.659   6.489   5.647  0.7204  0.9231  0.9710
 7450TIP3   OH243840   3.179   0.959   4.285 -0.9903  0.4863 -0.1449
 7450TIP3    H143841   3.111   0.892   4.290  0.8795 -1.5677 -0.5870
 7450TIP3    H243842   3.253   0.922   4.333  0.0617  2.3729 -0.1888
 7451TIP3   OH243843   5.931   6.633  11.555 -0.9034 -0.1367  1.1590
 7451TIP3    H143844   5.969   6.551  11.525  0.2231  0.5515  0.6120
 7451TIP3    H243845   5.949   6.635  11.649 -0.7914 -0.4371  1.1454
 7452TIP3   OH243846   3.416   3.855  11.968 -0.9126 -0.0255 -0.0718
 7452TIP3    H143847   3.432   3.765  11.995  0.2831 -0.2241 -1.2994
 7452TIP3    H243848   3.329   3.876  12.002 -0.2506 -0.8024  2.3058
 7453TIP3   OH243849   5.474   2.513   1.700 -0.1061  0.3655  0.4643
 7453TIP3    H143850   5.562   2.542   1.675 -0.0466  2.0122  2.2982
 7453TIP3    H243851   5.487   2.425   1.736  0.8485  0.7225  1.0216
 7454TIP3   OH243852   1.180   2.734   0.506 -0.1436 -0.1365  0.4873
 7454TIP3    H143853   1.147   2.801   0.446  1.5000 -0.6455 -1.0745
 7454TIP3    H243854   1.122   2.659   0.494  0.1999 -0.2478 -0.5265
 7455TIP3   OH243855   3.100   3.208  12.066 -0.3041  0.3469  0.3072
 7455TIP3    H143856   3.127   3.212  12.158  0.4303  0.1697  0.1071
 7455TIP3    H243857   3.115   3.117  12.041 -3.2412 -0.3725  0.8088
 7456TIP3   OH243858   5.489   3.177   5.484  0.5942  0.0065  0.1628
 7456TIP3    H143859   5.508   3.204   5.574  1.2186  0.3949 -0.0799
 7456TIP3    H243860   5.514   3.085   5.481 -0.2835 -0.2655  0.6253
 7457TIP3   OH243861   0.856   5.366  14.678 -0.3151 -0.2804 -0.0730
 7457TIP3    H143862   0.912   5.419  14.734 -0.4560 -0.8023  0.5738
 7457TIP3    H243863   0.774   5.416  14.671 -0.8326 -0.8858  1.3955
 7458TIP3   OH243864   2.356   0.338  11.491  0.2894  0.1340 -0.2856
 7458TIP3    H143865   2.303   0.371  11.419 -0.8421 -0.8879  0.0352
 7458TIP3    H243866   2.437   0.389  11.488 -0.9660  2.2130 -0.3755
 7459TIP3   OH243867   3.116   5.357  15.472  0.1423 -0.3282  0.5040
 7459TIP3    H143868   3.142   5.315  15.390 -0.8035  0.8575 -0.4456
 7459TIP3    H243869   3.181   5.328  15.536  2.5921  0.9006 -1.2745
 7460TIP3   OH243870   4.656   6.770  14.149 -0.0605 -0.1692  0.0115
 7460TIP3    H143871   4.635   6.698  14.091 -1.3443 -0.9406  1.3708
 7460TIP3    H243872   4.747   6.792  14.128 -0.9084  0.7328 -3.4004
 7461TIP3   OH243873   1.596   4.534  14.398 -0.1493 -0.5152  0.1310
 7461TIP3    H143874   1.650   4.530  14.319 -0.1866 -0.9302  0.1264
 7461TIP3    H243875   1.525   4.594  14.375 -2.3765 -3.4665 -1.5321
 7462TIP3   OH243876   0.128   5.148   4.981  0.6291  0.3355  0.0980
 7462TIP3    H143877   0.081   5.167   5.063  0.0663 -1.0426  0.1209
 7462TIP3    H243878   0.203   5.096   5.009  0.6039  0.1246 -0.2247
 7463TIP3   OH243879   6.039   6.611   2.027 -0.0755 -0.3185  0.4076
 7463TIP3    H143880   6.067   6.636   2.115  0.1233  2.5272 -0.3603
 7463TIP3    H243881   5.945   6.630   2.025  0.0416  0.2444 -0.1509
 7464TIP3   OH243882   5.721   1.374   4.808  0.0919 -0.2450 -0.3736
 7464TIP3    H143883   5.690   1.351   4.720 -0.4575 -3.0638  0.4635
 7464TIP3    H243884   5.659   1.331   4.867  2.1511 -0.9606  1.3827
 7465TIP3   OH243885   1.607   6.505  11.565 -0.1243  0.3147  0.4251
 7465TIP3    H143886   1.688   6.556  11.561 -1.0587  1.7845 -0.3367
 7465TIP3    H243887   1.634   6.422  11.604  1.3183  1.5937  2.3359
 7466TIP3   OH243888   2.788   5.406   4.691 -0.3673 -0.4130  0.5078
 7466TIP3    H143889   2.755   5.373   4.774  0.6373 -1.0176  0.6875
 7466TIP3    H243890   2.721   5.382   4.627 -0.4889 -1.2183  0.9204
 7467TIP3   OH243891   1.332   2.869   5.893  0.1540 -0.3026  0.8376
 7467TIP3    H143892   1.315   2.854   5.800 -1.1552 -0.2356  1.0502
 7467TIP3    H243893   1.426   2.852   5.903  0.3738 -0.0172 -0.5469
 7468TIP3   OH243894   6.302   0.288  15.918 -0.2417  0.1261  0.4555
 7468TIP3    H143895   6.214   0.303  15.952 -0.1560  0.3023  0.6064
 7468TIP3    H243896   6.297   0.313  15.826 -0.5119 -0.4906  0.2940
 7469TIP3   OH243897   0.735   5.339  16.926  1.0353  0.3813 -0.0150
 7469TIP3    H143898   0.816   5.331  16.876  0.4763  0.5493 -0.9531
 7469TIP3    H243899   0.667   5.302  16.870  0.2671  1.2870  0.2821
 7470TIP3   OH243900   6.718   1.426   0.226 -0.3649 -0.7601 -0.9596
 7470TIP3    H143901   6.730   1.351   0.284  1.4320  0.1811 -0.0568
 7470TIP3    H243902   6.674   1.389   0.149 -0.0505 -2.6229 -0.3028
 7471TIP3   OH243903   3.594   3.327   5.372  0.0540 -0.0991 -0.2061
 7471TIP3    H143904   3.561   3.417   5.369 -0.5737 -0.3236 -2.8905
 7471TIP3    H243905   3.549   3.283   5.300  0.7234 -2.4544  0.7287
 7472TIP3   OH243906   6.302   6.206   4.254 -0.5174 -0.3441 -0.1605
 7472TIP3    H143907   6.294   6.232   4.346 -0.2130 -0.7972 -0.0062
 7472TIP3    H243908   6.211   6.191   4.226 -0.8813  2.3508 -0.6951
 7473TIP3   OH243909   5.115   2.551   4.925 -1.1335  0.5330  0.3239
 7473TIP3    H143910   5.032   2.509   4.950 -0.7610  0.0367  0.7392
 7473TIP3    H243911   5.125   2.623   4.987 -1.9105  1.4399 -0.5591
 7474TIP3   OH243912   3.484   1.059  13.823  0.6468  0.2964  0.1776
 7474TIP3    H143913   3.524   1.074  13.908  0.6107  0.7352  0.1214
 7474TIP3    H243914   3.391   1.082  13.836  0.5367 -0.1429  0.1580
 7475TIP3   OH243915   2.795   4.787  13.088  0.1454 -0.3910  0.1081
 7475TIP3    H143916   2.701   4.778  13.106 -0.2702 -0.2381 -1.7559
 7475TIP3    H243917   2.802   4.775  12.994  2.2968 -2.4390  0.4609
 7476TIP3   OH243918   6.199   1.825  12.616 -0.1201 -0.2134  0.2972
 7476TIP3    H143919   6.185   1.905  12.566  1.1130 -0.7367 -0.9492
 7476TIP3    H243920   6.119   1.774  12.604 -1.1433  1.0035  1.5411
 7477TIP3   OH243921   0.676   6.641   1.887 -0.3640  0.1211  0.0145
 7477TIP3    H143922   0.587   6.666   1.911  0.3497  0.8849  2.0322
 7477TIP3    H243923   0.685   6.552   1.922  0.6239  1.1758  2.6347
 7478TIP3   OH243924   5.205   0.360  13.185  0.3349 -0.1369  0.3558
 7478TIP3    H143925   5.288   0.334  13.226  1.0503  0.4538 -0.6676
 7478TIP3    H243926   5.138   0.312  13.234  1.0114  1.4388  3.0054
 7479TIP3   OH243927   1.148   3.912   2.089 -0.9052  0.9936  0.6308
 7479TIP3    H143928   1.119   3.940   2.002 -2.0182 -2.6610 -0.3478
 7479TIP3    H243929   1.071   3.922   2.145 -1.0728  0.6590  0.4640
 7480TIP3   OH243930   1.576   2.316  13.607 -0.4724 -0.3776 -0.5749
 7480TIP3    H143931   1.496   2.365  13.590  0.4338  1.4604  0.2254
 7480TIP3    H243932   1.592   2.328  13.701  0.1794 -1.6458 -0.4986
 7481TIP3   OH243933   6.242   1.804   4.007 -0.5695 -0.4195 -0.4752
 7481TIP3    H143934   6.211   1.749   4.079 -0.1477 -2.3055 -1.6731
 7481TIP3    H243935   6.327   1.767   3.982  1.2821  2.6912  0.6501
 7482TIP3   OH243936   2.146   0.599   0.710 -0.3852 -0.2181  0.1677
 7482TIP3    H143937   2.222   0.627   0.760  1.4526 -3.1311 -0.7745
 7482TIP3    H243938   2.097   0.680   0.693  0.8609  1.3375  3.3360
 7483TIP3   OH243939   4.763   4.678  16.741 -0.0418 -0.1644  0.0575
 7483TIP3    H143940   4.771   4.592  16.699  0.9085  0.3830 -0.9664
 7483TIP3    H243941   4.669   4.695  16.745 -0.1963 -0.2145 -2.0057
 7484TIP3   OH243942   4.044   1.367   5.995 -0.6876  0.0089 -0.0257
 7484TIP3    H143943   4.100   1.358   5.919  0.9119 -1.6160  1.2537
 7484TIP3    H243944   4.010   1.278   6.011 -0.3898  0.1391  1.5391
 7485TIP3   OH243945   6.731   2.211   1.808  0.1445 -1.3205 -0.5104
 7485TIP3    H143946   6.703   2.120   1.794 -0.7601 -1.2188  0.5144
 7485TIP3    H243947   6.814   2.218   1.761  0.0796 -2.5971 -0.8459
 7486TIP3   OH243948   4.786   1.593   0.392 -0.4878  0.6027  0.2570
 7486TIP3    H143949   4.779   1.654   0.318 -0.5440  0.2515 -0.0297
 7486TIP3    H243950   4.880   1.589   0.411  0.0303 -1.9843 -2.0968
 7487TIP3   OH243951   5.020   1.609  14.061 -0.6428  0.2711 -0.3558
 7487TIP3    H143952   4.995   1.613  14.153 -0.1724 -0.9120 -0.1672
 7487TIP3    H243953   5.053   1.521  14.049 -1.4158  0.1525 -1.8505
 7488TIP3   OH243954   2.137   4.302  15.003  0.1020 -0.3713 -0.0467
 7488TIP3    H143955   2.218   4.352  15.012 -0.2555  0.1142  0.5438
 7488TIP3    H243956   2.161   4.213  15.028  0.9083 -0.6879 -1.7537
 7489TIP3   OH243957   5.802   4.567  15.283 -0.1696  0.3183  0.6263
 7489TIP3    H143958   5.804   4.657  15.252  1.9854  0.8219  1.9973
 7489TIP3    H243959   5.811   4.574  15.378 -0.9475 -1.3297  0.8653
 7490TIP3   OH243960   0.130   3.535   4.924 -0.1377 -0.2308 -0.2033
 7490TIP3    H143961   0.090   3.506   5.006 -1.7976 -0.3518 -0.9963
 7490TIP3    H243962   0.117   3.630   4.924 -0.0937 -0.2243 -0.2956
 7491TIP3   OH243963   2.937   5.733  17.157 -0.7596  0.2444 -0.1860
 7491TIP3    H143964   2.846   5.704  17.150 -0.6040 -0.0441 -1.2185
 7491TIP3    H243965   2.940   5.816  17.110 -1.1183  1.8278  2.4419
 7492TIP3   OH243966   0.945   2.831  11.100  0.3564  0.7740 -0.0052
 7492TIP3    H143967   0.880   2.784  11.048  0.4633 -0.5839  1.0286
 7492TIP3    H243968   0.944   2.920  11.065 -0.2693  0.1542 -1.6465
 7493TIP3   OH243969   0.777   1.514  15.444 -0.1390 -0.2314  0.4109
 7493TIP3    H143970   0.794   1.512  15.538  0.8719 -0.5189  0.2426
 7493TIP3    H243971   0.829   1.441  15.409  0.8553  0.8876 -0.5496
 7494TIP3   OH243972   2.758   4.962  15.782  0.2307  0.5900 -0.1619
 7494TIP3    H143973   2.684   5.020  15.768  0.4339  1.0398  0.5512
 7494TIP3    H243974   2.833   5.021  15.790  0.8594  0.0930 -1.9679
 7495TIP3   OH243975   1.652   6.245   3.944  0.3731 -0.2729  0.1020
 7495TIP3    H143976   1.602   6.320   3.911  0.5095 -0.4812 -0.5948
 7495TIP3    H243977   1.585   6.178   3.963  0.3842 -0.5890 -0.9289
 7496TIP3   OH243978   2.834   2.644  15.882 -0.4631 -0.0852 -0.4860
 7496TIP3    H143979   2.924   2.674  15.873 -0.3530 -0.1521  0.3015
 7496TIP3    H243980   2.841   2.549  15.893 -0.7893 -0.4040 -2.6298
 7497TIP3   OH243981   4.959   1.850  14.250 -0.8429 -0.4805  0.0380
 7497TIP3    H143982   4.881   1.842  14.195 -0.4055  0.3207 -0.7330
 7497TIP3    H243983   4.933   1.813  14.334 -2.5768  1.1621  0.2965
 7498TIP3   OH243984   1.290   4.055   3.045  0.5918 -0.4040  0.1375
 7498TIP3    H143985   1.361   4.005   3.086  0.4781  0.3664  1.3286
 7498TIP3    H243986   1.255   4.109   3.116  0.6722  1.3261 -1.0812
 7499TIP3   OH243987   2.919   1.860   1.673  0.2566 -0.1033  0.8718
 7499TIP3    H143988   2.888   1.947   1.698 -0.5948 -0.1910  0.1765
 7499TIP3    H243989   2.873   1.841   1.591 -0.2909 -1.5911  1.4938
 7500TIP3   OH243990   0.648   4.702   0.012  0.1738  0.0056  0.2617
 7500TIP3    H143991   0.742   4.708  -0.006  0.3343  0.2926  1.1219
 7500TIP3    H243992   0.638   4.746   0.097 -0.7311 -0.0723  0.1989
 7501TIP3   OH243993   6.135   3.168  16.703 -0.0662 -0.3970 -0.3300
 7501TIP3    H143994   6.083   3.123  16.636 -1.6244 -1.1718  1.3046
 7501TIP3    H243995   6.090   3.251  16.717  1.6235  0.8631 -1.8583
 7502TIP3   OH243996   6.755   0.662   1.860  0.1049  0.2355 -0.4524
 7502TIP3    H143997   6.835   0.708   1.838  1.0650 -0.1571  1.8574
 7502TIP3    H243998   6.694   0.684   1.790  1.1020  3.4484 -0.4919
 7503TIP3   OH243999   4.043   4.963  15.877 -0.2992 -0.5775  0.5459
 7503TIP3    H144000   4.065   5.025  15.947 -0.3920 -0.6998  0.6863
 7503TIP3    H244001   4.046   4.877  15.921  0.7280 -0.7607  0.1507
 7504TIP3   OH244002   1.972   2.479  14.176  0.1011  0.1333 -0.3941
 7504TIP3    H144003   2.007   2.467  14.265 -1.1821  0.2057  0.1463
 7504TIP3    H244004   1.920   2.400  14.160  1.3733 -0.4952 -1.6309
 7505TIP3   OH244005   0.747   4.095  16.837  0.0491 -0.3697  0.0565
 7505TIP3    H144006   0.802   4.088  16.914  0.0866  1.4545  0.2272
 7505TIP3    H244007   0.658   4.103  16.872  0.0543  0.3343 -0.0812
 7506TIP3   OH244008   0.798   0.277   5.354  0.6283  0.1264 -0.5086
 7506TIP3    H144009   0.725   0.312   5.303 -0.5250  0.8218  1.4788
 7506TIP3    H244010   0.769   0.190   5.381  0.4644  0.4336  0.3471
 7507TIP3   OH244011   0.714   6.514  12.083 -0.0543  0.0323  0.3908
 7507TIP3    H144012   0.788   6.495  12.025 -1.7942 -0.8471 -1.6989
 7507TIP3    H244013   0.712   6.441  12.144 -1.4244 -2.1000 -2.0234
 7508TIP3   OH244014   0.786   2.265  11.107 -0.0278 -0.0626 -0.4574
 7508TIP3    H144015   0.696   2.241  11.127 -0.1084 -0.7658 -1.5620
 7508TIP3    H244016   0.839   2.201  11.156  0.0078  1.8379  2.1893
 7509TIP3   OH244017   2.076   5.553   2.092 -0.0499  0.1404  0.2795
 7509TIP3    H144018   2.091   5.643   2.118 -2.3919  0.1262  2.0656
 7509TIP3    H244019   2.131   5.501   2.150 -0.8628  0.3400  1.2453
 7510TIP3   OH244020   4.314   4.436  12.078 -0.5416  0.3417  0.3182
 7510TIP3    H144021   4.358   4.421  12.161  3.3207  2.1288 -1.1666
 7510TIP3    H244022   4.292   4.530  12.079 -3.6526 -0.2613  0.5429
 7511TIP3   OH244023   5.960   2.757  11.877 -0.2342 -0.2499  0.7260
 7511TIP3    H144024   5.996   2.670  11.863 -0.6244 -0.4524  0.9585
 7511TIP3    H244025   6.011   2.792  11.951  0.8924  0.2896 -0.2551
 7512TIP3   OH244026   4.564   6.254  14.674 -0.4116 -0.0668  0.2762
 7512TIP3    H144027   4.584   6.338  14.633 -1.8891 -0.1134 -0.5986
 7512TIP3    H244028   4.469   6.251  14.679 -0.3675 -1.3993  0.9441
 7513TIP3   OH244029   5.316   5.269  16.921 -0.0227  0.7050  1.1994
 7513TIP3    H144030   5.408   5.280  16.945  0.0187  2.2238  0.4940
 7513TIP3    H244031   5.317   5.208  16.847  0.4186  0.7332  1.1807
 7514TIP3   OH244032   6.445   2.324  16.061 -0.1416  0.5868  0.6793
 7514TIP3    H144033   6.461   2.400  16.005  2.1142  0.6900  1.3664
 7514TIP3    H244034   6.433   2.362  16.148 -2.8160  0.3678  0.4885
 7515TIP3   OH244035   5.323   6.274  16.092  0.2250 -0.5695  0.5999
 7515TIP3    H144036   5.290   6.281  16.003  0.2259 -2.3458  0.4196
 7515TIP3    H244037   5.266   6.331  16.144 -0.0001  0.1944 -0.4633
 7516TIP3   OH244038   1.685   0.359  12.029 -0.4618  0.4286 -0.2664
 7516TIP3    H144039   1.767   0.401  12.005 -0.8487  1.3227 -0.0505
 7516TIP3    H244040   1.705   0.310  12.109 -0.2023  0.8704 -0.0587
 7517TIP3   OH244041   1.043   6.766  12.154 -0.5147 -0.1340 -0.2322
 7517TIP3    H144042   1.119   6.825  12.152 -0.4179 -0.2652 -0.7482
 7517TIP3    H244043   0.984   6.802  12.087  0.4606 -1.7981 -2.0713
 7518TIP3   OH244044   2.522   5.569  16.288 -0.4108  0.4274 -0.6017
 7518TIP3    H144045   2.615   5.584  16.305 -1.0806  3.5213  1.2995
 7518TIP3    H244046   2.493   5.649  16.245 -2.3287 -0.1560 -0.4748
 7519TIP3   OH244047   1.281   2.430  11.885  0.1031 -0.1608  0.1899
 7519TIP3    H144048   1.292   2.359  11.949  0.0855  0.4616  0.8970
 7519TIP3    H244049   1.186   2.434  11.871 -0.0819  0.8762  1.5151
 7520TIP3   OH244050   1.547   4.244  12.163  0.6931  0.0004 -0.2627
 7520TIP3    H144051   1.531   4.158  12.201 -1.9880  0.2419 -0.6030
 7520TIP3    H244052   1.548   4.304  12.237  1.2513 -0.1694 -0.1303
 7521TIP3   OH244053   2.714   1.888   5.290 -0.3631 -0.5030 -0.5794
 7521TIP3    H144054   2.686   1.929   5.208  1.2768  0.4284 -0.7239
 7521TIP3    H244055   2.711   1.794   5.273 -1.2504 -0.3613 -1.2781
 7522TIP3   OH244056   3.822   1.380   0.234  0.7330  0.1207  0.0054
 7522TIP3    H144057   3.858   1.291   0.232 -3.3121 -1.7041 -0.8563
 7522TIP3    H244058   3.765   1.381   0.310 -1.5342  0.9123 -1.6140
 7523TIP3   OH244059   3.663   3.553   0.730 -0.1330 -0.2974  0.2694
 7523TIP3    H144060   3.584   3.518   0.689 -0.6739  1.9414 -0.7027
 7523TIP3    H244061   3.730   3.549   0.662  0.7822 -2.5018  1.1865
 7524TIP3   OH244062   2.250   1.260  13.333 -0.0164 -0.2753  0.0396
 7524TIP3    H144063   2.190   1.194  13.367 -0.1249  0.1403  0.6654
 7524TIP3    H244064   2.258   1.324  13.404  0.0658  0.3970 -0.5683
 7525TIP3   OH244065   1.367   3.009   6.159 -0.3077  0.2644 -0.0244
 7525TIP3    H144066   1.290   2.960   6.187 -0.9775  1.7716  0.9195
 7525TIP3    H244067   1.384   2.979   6.070 -0.0175 -2.4138  0.8502
 7526TIP3   OH244068   5.989   4.037   3.955  0.2586 -0.0142 -0.5086
 7526TIP3    H144069   6.043   4.091   3.897 -1.2078  2.3920  0.2294
 7526TIP3    H244070   6.040   3.957   3.967  1.5599  0.2567 -3.3933
 7527TIP3   OH244071   6.390   4.600  17.119 -0.0566 -0.6404 -0.0744
 7527TIP3    H144072   6.468   4.547  17.138  0.0559 -0.7464 -0.8094
 7527TIP3    H244073   6.425   4.682  17.086 -0.2422 -0.2583  0.6494
 7528TIP3   OH244074   5.409   6.177   2.708  0.2969  0.4654  0.3288
 7528TIP3    H144075   5.452   6.214   2.785  2.7026 -3.9077  1.4348
 7528TIP3    H244076   5.475   6.181   2.639  0.4359 -1.0632  0.3343
 7529TIP3   OH244077   1.656   1.846  13.954  0.5241 -0.3118 -0.2852
 7529TIP3    H144078   1.575   1.896  13.944 -0.4082 -1.4632  1.1581
 7529TIP3    H244079   1.641   1.790  14.030  2.4784 -0.9648 -0.3169
 7530TIP3   OH244080   2.552   5.019   0.812 -0.4481 -0.4054 -0.0755
 7530TIP3    H144081   2.601   5.076   0.872 -1.3215 -1.2628  1.5440
 7530TIP3    H244082   2.620   4.972   0.763  0.3625 -0.5377  1.1017
 7531TIP3   OH244083   0.577   2.400  16.902 -0.3324 -0.1129 -0.3323
 7531TIP3    H144084   0.647   2.351  16.944  0.4943 -0.2180 -1.7702
 7531TIP3    H244085   0.620   2.448  16.832 -1.6484  0.0462 -1.0668
 7532TIP3   OH244086   5.662   1.103  13.707  0.2272 -0.3275 -0.2804
 7532TIP3    H144087   5.736   1.118  13.766 -0.0376  0.9646 -0.2410
 7532TIP3    H244088   5.620   1.024  13.741 -0.2930  0.7369  1.7025
 7533TIP3   OH244089   5.294   5.244  11.348  0.3895  0.3110  0.5510
 7533TIP3    H144090   5.326   5.333  11.332  2.1715 -0.2797  0.5636
 7533TIP3    H244091   5.354   5.188  11.299  0.2797 -0.9655  1.8135
 7534TIP3   OH244092   2.009   5.550   5.304 -0.0522  0.2452  0.4739
 7534TIP3    H144093   2.060   5.565   5.384 -0.7995  2.2951  0.6286
 7534TIP3    H244094   1.948   5.481   5.328  1.8412 -1.4845  0.6232
 7535TIP3   OH244095   6.214   3.279  15.250 -0.3968 -0.5596  0.3603
 7535TIP3    H144096   6.164   3.256  15.329 -1.6013 -1.5490 -0.6470
 7535TIP3    H244097   6.284   3.214  15.245  1.7568  1.4121  2.3223
 7536TIP3   OH244098   1.154   0.233  13.581  0.1930 -0.2757 -0.0486
 7536TIP3    H144099   1.073   0.186  13.602  0.6907 -0.9217  0.4701
 7536TIP3    H244100   1.220   0.194  13.638  1.2732 -1.0292 -1.7309
 7537TIP3   OH244101   1.302   5.344   3.854 -0.1826 -0.1002 -0.0971
 7537TIP3    H144102   1.348   5.427   3.860 -0.9242  0.3698 -0.6704
 7537TIP3    H244103   1.340   5.299   3.779 -1.5246  0.8739 -1.4174
 7538TIP3   OH244104   1.436   5.886  11.883  0.3556  0.6023 -0.2633
 7538TIP3    H144105   1.438   5.933  11.966 -2.1449  0.7913 -0.2345
 7538TIP3    H244106   1.469   5.799  11.904 -1.2095  0.3210  1.2149
 7539TIP3   OH244107   1.987   3.600  11.625 -0.3237  0.6188  0.7592
 7539TIP3    H144108   2.048   3.662  11.587  1.9368 -1.3801  0.8919
 7539TIP3    H244109   2.035   3.517  11.629 -1.6125 -0.1853  4.6358
 7540TIP3   OH244110   4.090   0.526  11.194  0.5514 -0.2097  0.3068
 7540TIP3    H144111   4.002   0.494  11.172 -0.0983  1.2425  0.7014
 7540TIP3    H244112   4.077   0.583  11.269  1.6398  1.0395 -0.4044
 7541TIP3   OH244113   0.504   4.863  13.389  0.2832  0.2064  0.7184
 7541TIP3    H144114   0.469   4.949  13.368  0.5259  0.9390  2.9948
 7541TIP3    H244115   0.432   4.819  13.435 -0.3805 -1.4609 -1.7216
 7542TIP3   OH244116   5.240   5.004  17.223 -0.3882  0.3483  0.3661
 7542TIP3    H144117   5.261   4.931  17.282  0.3087 -0.8427 -1.2808
 7542TIP3    H244118   5.176   4.968  17.162  2.2650  0.0067 -2.4574
 7543TIP3   OH244119   3.937   0.314  14.327  0.2939 -0.4985 -0.0188
 7543TIP3    H144120   3.891   0.309  14.411 -2.8021  2.5103 -1.2672
 7543TIP3    H244121   3.957   0.407  14.316  1.1813 -0.8806 -2.3325
 7544TIP3   OH244122   4.447   5.900   4.881 -0.7354 -0.0886 -0.1226
 7544TIP3    H144123   4.371   5.950   4.907 -2.0780 -2.6052  1.1643
 7544TIP3    H244124   4.413   5.831   4.824  0.5874 -1.0824  0.2107
 7545TIP3   OH244125   5.072   6.207  13.950 -0.7588 -0.5245 -0.2040
 7545TIP3    H144126   5.025   6.236  14.028 -1.2809  2.6426 -1.5563
 7545TIP3    H244127   5.165   6.221  13.972 -0.9142  0.5588 -0.1942
 7546TIP3   OH244128   6.731   2.408   3.416 -0.2440 -0.2731 -0.2110
 7546TIP3    H144129   6.809   2.434   3.465 -0.9249  2.7535 -0.5187
 7546TIP3    H244130   6.766   2.365   3.337  1.0652  0.1748  0.0934
 7547TIP3   OH244131   4.561   2.438   1.730  0.9789 -0.1483 -0.4249
 7547TIP3    H144132   4.567   2.360   1.786 -0.5825 -0.4284 -0.6111
 7547TIP3    H244133   4.499   2.414   1.661  0.4551  1.2508 -0.4765
 7548TIP3   OH244134   4.860   5.795   0.851 -0.2530  0.1969  0.2014
 7548TIP3    H144135   4.852   5.788   0.947  1.5863 -1.9821  0.2815
 7548TIP3    H244136   4.791   5.736   0.818 -0.7683  0.8093  0.1596
 7549TIP3   OH244137   5.057   3.480   1.160  0.4784  0.2027 -0.2990
 7549TIP3    H144138   5.128   3.488   1.097  0.6160 -1.8088 -0.4550
 7549TIP3    H244139   5.100   3.482   1.246  0.4689  1.1911 -0.3064
 7550TIP3   OH244140   1.424   1.521   3.267 -0.3232 -0.1249 -0.7911
 7550TIP3    H144141   1.338   1.518   3.223  0.5831 -1.1658 -2.6115
 7550TIP3    H244142   1.462   1.435   3.249  0.4672 -0.2831  1.3975
 7551TIP3   OH244143   1.334   5.618  16.938 -0.2359  0.1242 -0.3431
 7551TIP3    H144144   1.361   5.566  16.862 -0.1758 -1.3854  0.6718
 7551TIP3    H244145   1.363   5.567  17.013 -3.9939 -0.5969  0.7963
 7552TIP3   OH244146   5.057   0.105  17.077  0.1139  0.5049 -0.5455
 7552TIP3    H144147   5.119   0.032  17.075  0.2261  0.5651 -3.4568
 7552TIP3    H244148   5.110   0.182  17.094  0.0600  0.0499  2.0580
 7553TIP3   OH244149   5.679   4.039  16.730 -0.5548  0.4142 -0.2672
 7553TIP3    H144150   5.590   4.012  16.704 -1.5907  2.8434  0.4914
 7553TIP3    H244151   5.709   3.969  16.788 -2.2388 -0.1447 -0.0160
 7554TIP3   OH244152   2.241   0.961  13.954 -0.4425  0.6807 -0.2553
 7554TIP3    H144153   2.198   1.034  13.910 -1.5497  0.6348  0.7208
 7554TIP3    H244154   2.171   0.915  13.999  0.1883 -1.1362 -1.0302
 7555TIP3   OH244155   3.798   4.190  12.010 -0.0652 -0.1539  0.1284
 7555TIP3    H144156   3.736   4.215  11.942  0.3069  2.4481  0.6455
 7555TIP3    H244157   3.877   4.166  11.963 -0.2217  0.3516 -0.3949
 7556TIP3   OH244158   1.668   5.240   3.104  0.1959  0.0408  0.2021
 7556TIP3    H144159   1.673   5.144   3.100 -1.5437 -0.0827  0.5422
 7556TIP3    H244160   1.747   5.266   3.151  0.6302 -1.2300  0.2032
 7557TIP3   OH244161   2.307   2.510   1.688 -0.1871  0.4452 -0.0599
 7557TIP3    H144162   2.387   2.540   1.731 -0.7760  0.4320  1.1064
 7557TIP3    H244163   2.244   2.499   1.760 -1.4863  1.2457 -1.0226
 7558TIP3   OH244164   4.001   0.945   0.619  0.3459 -0.0481  0.0763
 7558TIP3    H144165   3.989   1.024   0.672 -0.4739 -1.5839  2.3492
 7558TIP3    H244166   4.034   0.880   0.681 -0.7353 -2.0087 -1.3068
 7559TIP3   OH244167   4.340   0.342   3.280  0.0042  0.1696 -0.2707
 7559TIP3    H144168   4.254   0.300   3.268 -0.7042  1.1121  1.2884
 7559TIP3    H244169   4.320   0.433   3.301  1.2248 -0.1151  2.6312
 7560TIP3   OH244170   1.036   5.795   0.535  0.1860  0.0622  0.2211
 7560TIP3    H144171   0.944   5.792   0.508  0.0695 -0.1777  0.6259
 7560TIP3    H244172   1.071   5.710   0.508 -0.5154 -1.1579  2.7766
 7561TIP3   OH244173   1.485   6.778   3.634  0.6515  0.3277 -0.1041
 7561TIP3    H144174   1.435   6.770   3.553  0.0873  1.5315  0.0971
 7561TIP3    H244175   1.545   6.704   3.633  0.9732  0.5798 -1.8421
 7562TIP3   OH244176   3.462   2.804  12.590 -0.9083  0.2059  0.4102
 7562TIP3    H144177   3.458   2.792  12.495  1.4326  0.7945  0.1701
 7562TIP3    H244178   3.555   2.798  12.611 -1.2424  1.3237  2.5085
 7563TIP3   OH244179   0.965   1.166  17.122 -0.2470  0.3699  0.2614
 7563TIP3    H144180   0.940   1.073  17.124  0.4940  0.0869 -1.5266
 7563TIP3    H244181   1.058   1.164  17.098  0.1986  1.5557  1.7094
 7564TIP3   OH244182   1.810   3.333   4.577 -0.6355 -0.3384  0.6161
 7564TIP3    H144183   1.872   3.343   4.504 -0.2899  0.9747  1.0575
 7564TIP3    H244184   1.740   3.279   4.541  0.6799 -1.7445  0.0597
 7565TIP3   OH244185   3.745   6.269   5.384  0.0856  0.1111 -0.5376
 7565TIP3    H144186   3.766   6.247   5.474 -0.9245  1.2019 -0.0026
 7565TIP3    H244187   3.718   6.186   5.344  1.0100 -0.4620  0.0140
 7566TIP3   OH244188   0.281   6.420   5.633 -0.1405  0.0974  0.3463
 7566TIP3    H144189   0.204   6.475   5.618  0.6175  2.3466  3.5446
 7566TIP3    H244190   0.245   6.336   5.659 -1.3836 -0.1323 -1.8410
 7567TIP3   OH244191   4.325   2.684  13.746  0.0951  0.5724 -0.0897
 7567TIP3    H144192   4.292   2.633  13.672 -0.1105 -2.6762  2.0257
 7567TIP3    H244193   4.417   2.655  13.755 -0.3862 -0.5192  1.9100
 7568TIP3   OH244194   5.450   2.617  17.023  0.3818 -0.2636 -0.3414
 7568TIP3    H144195   5.513   2.643  17.090 -0.7425  0.8931  0.3146
 7568TIP3    H244196   5.427   2.698  16.979  1.6717 -1.1073 -2.7091
 7569TIP3   OH244197   3.747   6.142   2.383 -0.1994 -0.1055  0.4682
 7569TIP3    H144198   3.839   6.128   2.360 -0.0916 -0.6612  1.1998
 7569TIP3    H244199   3.715   6.205   2.318  0.9478  0.8248  0.7815
 7570TIP3   OH244200   4.603   0.452  13.483  0.0341 -0.2739 -0.3052
 7570TIP3    H144201   4.533   0.498  13.529  0.1194 -0.7173  0.2763
 7570TIP3    H244202   4.598   0.362  13.514  0.8644 -0.3129 -0.2503
 7571TIP3   OH244203   5.280   5.837   5.503  0.3419  0.3963  0.1298
 7571TIP3    H144204   5.244   5.775   5.567 -0.0008  1.3645  0.9119
 7571TIP3    H244205   5.373   5.843   5.525  0.0131  1.5586  1.2751
 7572TIP3   OH244206   3.812   5.393  15.693  0.0446  0.4714  0.3891
 7572TIP3    H144207   3.753   5.436  15.631 -0.2474 -0.6752 -0.1577
 7572TIP3    H244208   3.899   5.403  15.655  0.0957  1.2600  0.6785
 7573TIP3   OH244209   0.810   3.858   3.943  0.3841  0.0513  0.3442
 7573TIP3    H144210   0.814   3.823   4.031  0.0125 -0.6960  0.0709
 7573TIP3    H244211   0.738   3.810   3.901 -0.0637  1.0515 -0.0717
 7574TIP3   OH244212   2.491   6.488  16.746  0.2100  0.3310  0.4677
 7574TIP3    H144213   2.465   6.526  16.829 -1.5183 -0.3545  0.2837
 7574TIP3    H244214   2.439   6.535  16.681 -0.2877 -0.7692  0.0345
 7575TIP3   OH244215   2.983   3.708   1.391 -0.1303  0.0907 -0.0045
 7575TIP3    H144216   3.073   3.700   1.359 -0.5166  0.5820 -1.3014
 7575TIP3    H244217   2.945   3.622   1.377 -0.7460  0.6892 -2.4441
 7576TIP3   OH244218   1.970   3.364  12.548  0.0722  0.3198  0.3362
 7576TIP3    H144219   2.040   3.399  12.493 -0.5269 -0.7383 -1.1659
 7576TIP3    H244220   1.981   3.269  12.543 -0.5294  0.1819  1.3523
 7577TIP3   OH244221   4.741   6.106  13.052  0.0789  0.3091 -0.3268
 7577TIP3    H144222   4.733   6.011  13.049  1.7738  0.0915  0.9721
 7577TIP3    H244223   4.653   6.137  13.076  0.4564 -1.2826  4.0011
 7578TIP3   OH244224   4.342   4.426  16.893 -0.3877  0.7538  0.1043
 7578TIP3    H144225   4.373   4.480  16.821 -0.0039  0.4391  0.0344
 7578TIP3    H244226   4.311   4.489  16.958 -2.1116  1.0314 -0.9272
 7579TIP3   OH244227   3.723   3.142  12.855  1.0473 -0.1685  0.0682
 7579TIP3    H144228   3.675   3.064  12.831  0.1018  0.5668 -0.4869
 7579TIP3    H244229   3.787   3.112  12.920  0.2638 -1.2731  0.3479
 7580TIP3   OH244230   3.028   2.765   5.173 -0.2627  0.2995 -0.1287
 7580TIP3    H144231   3.105   2.789   5.121  0.5373 -1.4187  0.1951
 7580TIP3    H244232   2.977   2.846   5.179  1.9482  1.7477  0.3975
 7581TIP3   OH244233   4.944   2.571   1.372 -0.4677  0.1553  0.0060
 7581TIP3    H144234   4.904   2.513   1.437 -1.0824  1.5209  0.8865
 7581TIP3    H244235   4.990   2.511   1.312 -1.3952 -1.2568  0.6407
 7582TIP3   OH244236   5.476   2.976  10.622 -0.0469 -0.1336 -0.0233
 7582TIP3    H144237   5.399   2.943  10.575 -0.3051  0.9887 -0.4154
 7582TIP3    H244238   5.550   2.944  10.572 -0.2153 -1.6977  0.6674
 7583TIP3   OH244239   0.101   6.067  12.962 -0.2292 -0.1608 -0.6630
 7583TIP3    H144240   0.099   5.971  12.970 -2.5214 -0.2539 -1.7325
 7583TIP3    H244241   0.147   6.083  12.880 -2.6351 -0.5559 -2.1725
 7584TIP3   OH244242   3.619   4.799  13.779 -0.0302 -0.2324 -0.6698
 7584TIP3    H144243   3.531   4.807  13.741 -1.8004 -0.6056  2.9193
 7584TIP3    H244244   3.648   4.711  13.754 -2.2134 -1.4579  0.7708
 7585TIP3   OH244245   3.318   3.112   4.863  0.3919  0.3995  0.0362
 7585TIP3    H144246   3.372   3.034   4.848  1.2480  0.6768  1.4507
 7585TIP3    H244247   3.335   3.168   4.788  3.0397  0.9855  0.9735
 7586TIP3   OH244248   2.331   3.915   0.230 -0.4092 -0.4342 -0.1613
 7586TIP3    H144249   2.405   3.961   0.189  0.0970 -1.8117 -0.8568
 7586TIP3    H244250   2.315   3.964   0.310  0.9993  0.1534 -0.1999
 7587TIP3   OH244251   2.233   2.533   2.449 -0.5900 -0.0740  0.0662
 7587TIP3    H144252   2.285   2.603   2.488 -1.2671  0.6131 -0.2355
 7587TIP3    H244253   2.292   2.491   2.387 -0.4375  0.8108 -0.3969
 7588TIP3   OH244254   2.136   6.380   5.730 -0.7954  0.0367 -0.7970
 7588TIP3    H144255   2.064   6.432   5.693 -0.4292 -0.6507 -2.6044
 7588TIP3    H244256   2.215   6.431   5.709 -0.5162 -0.7553 -1.7699
 7589TIP3   OH244257   0.241   3.233   2.109 -0.1033 -0.0608 -0.3231
 7589TIP3    H144258   0.336   3.216   2.110  0.1309  1.1041  1.1955
 7589TIP3    H244259   0.217   3.228   2.017  1.5509  0.1947 -0.8054
 7590TIP3   OH244260   5.552   1.780  13.043  0.6172 -0.0262 -0.0381
 7590TIP3    H144261   5.508   1.863  13.062  0.2377 -0.4186  0.8519
 7590TIP3    H244262   5.497   1.714  13.085  2.1616 -0.5200  1.3114
 7591TIP3   OH244263   3.452   4.935  11.414  0.5064 -0.3470 -0.2061
 7591TIP3    H144264   3.418   4.995  11.347  0.1717 -0.5872 -0.2567
 7591TIP3    H244265   3.525   4.891  11.372 -1.1029 -2.1609 -1.2315
 7592TIP3   OH244266   6.102   5.323  11.986 -0.3959 -0.2531 -0.0121
 7592TIP3    H144267   6.058   5.405  11.963 -0.1403  0.2130  1.0913
 7592TIP3    H244268   6.182   5.351  12.032 -0.1646 -1.1207  0.1356
 7593TIP3   OH244269   1.494   3.114   2.460 -0.2092  0.2549 -0.0546
 7593TIP3    H144270   1.466   3.024   2.475 -2.0491  1.1936  2.7719
 7593TIP3    H244271   1.452   3.140   2.378 -1.3763 -0.7979  0.2032
 7594TIP3   OH244272   2.802   3.543   0.260 -0.4780 -0.1541 -0.1403
 7594TIP3    H144273   2.869   3.489   0.303 -0.4121 -0.7723 -0.9825
 7594TIP3    H244274   2.773   3.604   0.328 -0.4930 -1.1898  0.8255
 7595TIP3   OH244275   0.215   2.152   3.302  0.5551  0.0569  0.2705
 7595TIP3    H144276   0.282   2.220   3.310 -1.6229  2.2802  0.8212
 7595TIP3    H244277   0.156   2.168   3.375 -1.3249 -0.9145 -0.9533
 7596TIP3   OH244278   1.818   3.072  11.615  0.5724 -0.3961 -0.3479
 7596TIP3    H144279   1.787   3.162  11.603  0.9327 -0.2720 -0.3804
 7596TIP3    H244280   1.754   3.032  11.674 -0.5163 -0.6382 -1.6678
 7597TIP3   OH244281   6.579   6.029   0.570 -0.1702  0.3619  0.1570
 7597TIP3    H144282   6.603   5.944   0.606  0.6595  0.5920  0.1655
 7597TIP3    H244283   6.510   6.061   0.629 -0.0213 -0.0130  0.5431
 7598TIP3   OH244284   5.374   5.791   2.855 -0.1875 -0.0963  0.4621
 7598TIP3    H144285   5.456   5.824   2.891 -0.9236  2.6542 -0.1741
 7598TIP3    H244286   5.312   5.863   2.865 -2.0921 -1.4773 -0.6260
 7599TIP3   OH244287   5.159   2.108   5.078 -0.1142 -0.4170  0.3103
 7599TIP3    H144288   5.077   2.138   5.118 -0.1678  1.1404 -0.8744
 7599TIP3    H244289   5.154   2.012   5.081 -1.2914 -0.3402  1.5974
 7600TIP3   OH244290   6.013   2.866   0.473 -0.7828  0.0134 -0.1172
 7600TIP3    H144291   5.946   2.812   0.432 -0.2833 -0.1462 -0.7433
 7600TIP3    H244292   6.091   2.810   0.476 -0.9015 -0.1044  1.4061
 7601TIP3   OH244293   4.448   1.914   2.838 -0.9340  0.4559  0.0680
 7601TIP3    H144294   4.463   2.006   2.817 -0.2494  0.1884 -0.6417
 7601TIP3    H244295   4.446   1.870   2.753 -0.2331 -0.3321  0.4440
 7602TIP3   OH244296   2.069   6.455  14.490 -0.2314 -0.5287  0.3786
 7602TIP3    H144297   1.978   6.484  14.491 -0.1738 -0.3289  1.8826
 7602TIP3    H244298   2.105   6.484  14.574  0.9895 -1.3200  0.1573
 7603TIP3   OH244299   4.625   4.263   0.664  0.5319  0.2210  0.1851
 7603TIP3    H144300   4.613   4.358   0.663  1.4191  0.3717  1.3733
 7603TIP3    H244301   4.705   4.250   0.715  0.1463 -1.1916  0.4603
 7604TIP3   OH244302   4.226   4.483   5.461  0.1444 -0.7475 -0.5655
 7604TIP3    H144303   4.194   4.560   5.507 -0.6275 -0.7430 -1.0752
 7604TIP3    H244304   4.321   4.494   5.456  0.1517 -0.3722  0.3140
 7605TIP3   OH244305   2.835   3.018  13.760  0.0804  0.0717 -0.0025
 7605TIP3    H144306   2.892   3.030  13.836  0.4498 -0.8678 -0.1064
 7605TIP3    H244307   2.894   3.021  13.685 -0.4844  2.5586 -0.4082
 7606TIP3   OH244308   1.416   6.805   4.577 -0.5172  0.6593 -0.5189
 7606TIP3    H144309   1.499   6.814   4.624 -0.8342  0.4435  0.0980
 7606TIP3    H244310   1.374   6.729   4.617  0.0124 -0.6926 -2.4049
 7607TIP3   OH244311   5.636   1.337  11.915 -0.2910  0.2172  0.0002
 7607TIP3    H144312   5.666   1.372  11.832  1.8480  0.1560  0.7013
 7607TIP3    H244313   5.669   1.248  11.918 -1.4035 -0.2056  0.4118
 7608TIP3   OH244314   5.832   2.687  13.604 -0.1940 -0.5173 -0.6105
 7608TIP3    H144315   5.925   2.668  13.597  0.0475 -1.1572  2.5791
 7608TIP3    H244316   5.806   2.717  13.517  3.2790  1.0298 -1.2824
 7609TIP3   OH244317   5.886   4.872   6.340 -0.0003 -0.1456  0.4659
 7609TIP3    H144318   5.826   4.835   6.404  0.7967 -0.3884  1.0924
 7609TIP3    H244319   5.973   4.846   6.371  0.5095  1.1901  0.2178
 7610TIP3   OH244320   0.263   4.333   1.005 -0.1418  0.1221  0.5153
 7610TIP3    H144321   0.343   4.351   1.055  0.3012 -1.6333  0.5066
 7610TIP3    H244322   0.202   4.402   1.031  0.8140  0.5078  1.8248
 7611TIP3   OH244323   4.973   2.285  11.157 -0.0084  0.3000 -0.0768
 7611TIP3    H144324   5.042   2.219  11.149 -1.6285 -1.3831 -0.7454
 7611TIP3    H244325   4.940   2.274  11.246 -1.1642 -0.7630 -0.6064
 7612TIP3   OH244326   2.493   3.551  16.711  0.1351 -0.2511  0.0360
 7612TIP3    H144327   2.476   3.645  16.712 -1.3294 -0.4989 -0.2072
 7612TIP3    H244328   2.542   3.537  16.629 -0.5213  0.1561 -0.4314
 7613TIP3   OH244329   0.492   3.186   2.422 -0.0681 -0.0773 -0.2645
 7613TIP3    H144330   0.463   3.276   2.432  1.7179  0.4315  0.9146
 7613TIP3    H244331   0.498   3.172   2.328  0.3048  1.2776 -0.4514
 7614TIP3   OH244332   4.656   2.938  15.417 -0.3339 -0.4312 -0.1691
 7614TIP3    H144333   4.656   2.941  15.513  0.5956 -1.9396 -0.0908
 7614TIP3    H244334   4.698   3.019  15.391 -1.3911  0.4195  0.6545
 7615TIP3   OH244335   1.355   3.265  16.685  0.4814  0.4956 -0.3662
 7615TIP3    H144336   1.328   3.239  16.597 -0.6244  0.7121 -0.1107
 7615TIP3    H244337   1.349   3.184  16.736  0.7648  0.4492 -0.4036
 7616TIP3   OH244338   5.247   3.964   0.858  0.5463  0.3110 -0.7010
 7616TIP3    H144339   5.209   3.937   0.775 -0.1409  2.6682 -1.2187
 7616TIP3    H244340   5.172   3.973   0.917  0.8350  0.3715 -0.3360
 7617TIP3   OH244341   4.502   5.901   4.416 -0.1572  0.5418  0.0740
 7617TIP3    H144342   4.531   5.958   4.344 -1.2616  2.0021  0.7380
 7617TIP3    H244343   4.574   5.903   4.478 -0.7043  2.3821  0.7157
 7618TIP3   OH244344   4.667   4.622   4.213  0.0824  0.1729  0.1227
 7618TIP3    H144345   4.692   4.533   4.190 -1.9833 -0.2297 -0.8067
 7618TIP3    H244346   4.711   4.638   4.297 -0.0404 -1.9877  0.6661
 7619TIP3   OH244347   5.220   3.286  16.088  0.1053 -0.0595 -0.0975
 7619TIP3    H144348   5.288   3.354  16.085  1.7667 -1.6328 -0.1538
 7619TIP3    H244349   5.234   3.241  16.171 -0.9448 -0.3638 -0.0673
 7620TIP3   OH244350   0.181   0.444   1.342 -0.0373  0.2158  0.3402
 7620TIP3    H144351   0.257   0.502   1.342  1.1835 -1.2666 -1.0665
 7620TIP3    H244352   0.193   0.390   1.420  2.2782 -2.2096 -1.5064
 7621TIP3   OH244353   2.422   4.663  15.187  0.1974  0.4718  0.2682
 7621TIP3    H144354   2.491   4.599  15.168 -0.6269 -0.7331  1.1713
 7621TIP3    H244355   2.369   4.665  15.108 -0.9163 -1.5193  0.8771
 7622TIP3   OH244356   2.277   0.946  16.531  0.5919 -0.1646 -0.4850
 7622TIP3    H144357   2.234   1.026  16.500 -0.8526 -0.7539 -0.1234
 7622TIP3    H244358   2.368   0.971  16.545  0.1586  1.4437 -0.3155
 7623TIP3   OH244359   5.334   2.736   1.227  0.2202 -0.5408 -0.5052
 7623TIP3    H144360   5.263   2.794   1.198  0.1128  0.2080  1.1904
 7623TIP3    H244361   5.414   2.786   1.211  0.1429  0.0044  0.7011
 7624TIP3   OH244362   4.254   4.366   1.622 -0.2958 -0.3600 -0.3421
 7624TIP3    H144363   4.282   4.286   1.577 -1.6727 -1.2785  0.3688
 7624TIP3    H244364   4.223   4.423   1.551 -1.3431 -1.3307 -0.6927
 7625TIP3   OH244365   0.478   5.904  12.183 -0.2753 -0.0635  0.2090
 7625TIP3    H144366   0.551   5.898  12.245 -0.8993  1.1256  1.1196
 7625TIP3    H244367   0.518   5.933  12.102  0.8513 -3.4854 -0.6242
 7626TIP3   OH244368   4.386   4.535   0.642 -0.2537  0.0026 -0.0403
 7626TIP3    H144369   4.400   4.530   0.547  0.4320  2.8987 -0.1942
 7626TIP3    H244370   4.464   4.579   0.675 -1.8483  1.9709  1.3714
 7627TIP3   OH244371   0.624   6.387   1.455  0.3817  0.8699  0.3640
 7627TIP3    H144372   0.629   6.302   1.410  0.9055  1.0116  0.1567
 7627TIP3    H244373   0.661   6.449   1.393  0.5351  1.1637  0.7493
 7628TIP3   OH244374   4.284   6.587   5.531  0.5756  1.1469  0.6735
 7628TIP3    H144375   4.253   6.517   5.473  1.1431  3.1494 -2.2585
 7628TIP3    H244376   4.208   6.611   5.582 -0.5002  0.4680 -0.5450
 7629TIP3   OH244377   0.736   1.519  12.342  0.0896 -0.2241 -0.0270
 7629TIP3    H144378   0.701   1.440  12.301 -0.6526  0.3988 -0.6100
 7629TIP3    H244379   0.744   1.496  12.435 -0.0961 -0.9877 -0.1936
 7630TIP3   OH244380   3.163   2.902   3.486  0.4486 -0.2116 -0.0082
 7630TIP3    H144381   3.224   2.962   3.443 -0.0787  1.7966  1.8723
 7630TIP3    H244382   3.090   2.893   3.424  1.3068 -0.3131 -1.0315
 7631TIP3   OH244383   4.054   0.211  15.897 -0.1813 -0.6436 -0.8033
 7631TIP3    H144384   4.119   0.193  15.830  0.5916  1.8437 -0.8191
 7631TIP3    H244385   4.058   0.306  15.910 -2.2266 -0.6980  0.8183
 7632TIP3   OH244386   6.429   2.763   5.701  0.3393 -0.0027  0.1826
 7632TIP3    H144387   6.374   2.830   5.741  1.3168 -0.5271  2.5676
 7632TIP3    H244388   6.368   2.703   5.659 -0.8621  0.1492  1.6343
 7633TIP3   OH244389   3.760   1.849  15.725  0.1244  0.5312  0.2674
 7633TIP3    H144390   3.679   1.838  15.676 -0.6135  1.8264  1.1369
 7633TIP3    H244391   3.797   1.931  15.693 -0.7208  1.7681  2.2737
 7634TIP3   OH244392   3.758   2.988   2.077 -0.3480 -0.0481 -0.0444
 7634TIP3    H144393   3.689   3.009   2.014 -0.0540 -0.9155 -0.6725
 7634TIP3    H244394   3.736   2.900   2.108  0.3972 -0.2891 -0.1677
 7635TIP3   OH244395   5.529   2.484   5.266 -0.1300  0.3502 -0.4858
 7635TIP3    H144396   5.563   2.434   5.191  1.2331  1.8223 -0.9090
 7635TIP3    H244397   5.587   2.561   5.271 -0.2537  0.3469  2.0255
 7636TIP3   OH244398   4.028   6.782  14.660 -0.3869 -0.2023  0.3207
 7636TIP3    H144399   3.959   6.835  14.619 -1.7135 -2.1994 -0.1534
 7636TIP3    H244400   4.097   6.777  14.593  0.9837  2.9093  1.2668
 7637TIP3   OH244401   1.950   4.363   5.411 -0.7736  0.2319  0.5370
 7637TIP3    H144402   1.976   4.446   5.452 -0.5354  1.2678 -1.5435
 7637TIP3    H244403   1.898   4.390   5.335 -0.7884 -1.5454 -0.1232
 7638TIP3   OH244404   5.475   4.023  13.059 -0.0529  0.2100 -0.3918
 7638TIP3    H144405   5.389   4.054  13.032 -0.0606  0.6361  0.1031
 7638TIP3    H244406   5.487   3.941  13.012  0.0799  1.0760 -1.9400
 7639TIP3   OH244407   4.077   2.383   3.805  0.0478 -0.8977  0.0743
 7639TIP3    H144408   4.081   2.479   3.815 -0.1123 -0.9112  0.2708
 7639TIP3    H244409   3.997   2.358   3.850  1.5806 -1.4518  2.6767
 7640TIP3   OH244410   5.882   2.265  11.666  0.1143  1.1396 -0.2206
 7640TIP3    H144411   5.927   2.194  11.712 -0.1902  0.5752 -0.7766
 7640TIP3    H244412   5.886   2.339  11.727 -1.8435 -0.0838  1.5199
 7641TIP3   OH244413   5.206   0.395   4.576 -0.7181  0.5848  0.0963
 7641TIP3    H144414   5.117   0.366   4.596 -0.9492  0.4562 -1.0188
 7641TIP3    H244415   5.193   0.477   4.527 -0.3173 -0.1937 -1.3798
 7642TIP3   OH244416   1.190   0.096  10.920 -0.4916  0.3129 -0.0393
 7642TIP3    H144417   1.258   0.108  10.854 -1.5261  1.0981 -1.0175
 7642TIP3    H244418   1.112   0.073  10.869 -0.7821 -1.4587  1.1114
 7643TIP3   OH244419   3.917   5.837  17.052  0.0261 -0.1756  0.4266
 7643TIP3    H144420   3.918   5.757  17.103  0.1353 -0.2686  0.2803
 7643TIP3    H244421   3.895   5.809  16.963 -1.3915  0.1208  0.6587
 7644TIP3   OH244422   5.443   2.057   2.873 -0.2906  0.1418  0.1011
 7644TIP3    H144423   5.470   2.118   2.805 -0.5489  0.4959  0.3176
 7644TIP3    H244424   5.522   2.043   2.926 -0.3549  0.6721  0.3456
 7645TIP3   OH244425   1.782   1.154   5.700 -0.3058 -0.2218 -0.0925
 7645TIP3    H144426   1.849   1.197   5.752 -0.8785 -0.1747  0.6332
 7645TIP3    H244427   1.738   1.095   5.762 -0.9460 -0.2312 -0.5394
 7646TIP3   OH244428   1.178   1.615  10.688 -0.1966  0.1091  0.2343
 7646TIP3    H144429   1.252   1.559  10.666 -0.1388  0.1190  0.4035
 7646TIP3    H244430   1.170   1.608  10.783  0.1798  0.8422  0.3285
 7647TIP3   OH244431   5.761   1.674   2.644 -0.3791 -0.0755 -0.1426
 7647TIP3    H144432   5.683   1.714   2.606  2.1802  3.1838 -2.5876
 7647TIP3    H244433   5.796   1.741   2.703  1.6447 -0.4959 -0.7737
 7648TIP3   OH244434   3.296   3.236  15.697 -0.3981  0.0466 -0.0825
 7648TIP3    H144435   3.321   3.326  15.677  0.6117 -0.0764  0.5832
 7648TIP3    H244436   3.313   3.226  15.791  2.0711 -1.6276 -0.6144
 7649TIP3   OH244437   6.484   4.553   3.697  0.0759  0.6958 -0.1073
 7649TIP3    H144438   6.435   4.484   3.653  0.4805  0.2390  0.1500
 7649TIP3    H244439   6.467   4.539   3.790  1.9583 -0.4708  0.1024
 7650TIP3   OH244440   1.916   5.986  14.621 -0.1335  0.4276  0.3835
 7650TIP3    H144441   1.934   5.931  14.545 -1.0778  1.7511 -0.8497
 7650TIP3    H244442   1.832   5.954  14.654  0.1965 -0.0362  0.8051
 7651TIP3   OH244443   2.629   4.585   1.060 -0.3773 -0.0578  0.4084
 7651TIP3    H144444   2.588   4.499   1.049  1.1520 -0.6743 -0.7739
 7651TIP3    H244445   2.622   4.627   0.975 -1.0092  0.9741  0.9457
 7652TIP3   OH244446   6.680   0.057  15.568 -0.0671  0.2232 -0.3086
 7652TIP3    H144447   6.729   0.077  15.648  1.1510  0.6287 -1.1184
 7652TIP3    H244448   6.591   0.086  15.586  0.4243  1.2753  0.5431
 7653TIP3   OH244449   4.543   3.332  15.592  0.2743 -0.0728 -0.2068
 7653TIP3    H144450   4.508   3.323  15.680  0.2294 -0.0851 -0.2257
 7653TIP3    H244451   4.537   3.244  15.555 -0.5802  0.1174 -0.5509
 7654TIP3   OH244452   3.756   1.874   2.026  0.1903  0.1614  0.0641
 7654TIP3    H144453   3.725   1.825   1.950  0.1430 -0.8888  0.7406
 7654TIP3    H244454   3.780   1.960   1.991 -0.6389 -0.0109 -0.9828
 7655TIP3   OH244455   1.027   2.781  13.238  0.4840  0.0929 -0.3316
 7655TIP3    H144456   1.040   2.859  13.184 -0.5707  1.1193  0.8504
 7655TIP3    H244457   0.996   2.814  13.322  0.0900 -1.6012  0.2364
 7656TIP3   OH244458   2.701   0.564   2.487  0.8125  0.7540  0.7665
 7656TIP3    H144459   2.647   0.565   2.567  0.7768  0.0350  0.7586
 7656TIP3    H244460   2.786   0.597   2.515  0.8798  0.2468  1.1631
 7657TIP3   OH244461   3.755   5.518  13.313  0.0470  0.7260  0.0187
 7657TIP3    H144462   3.681   5.470  13.350  0.4597  1.2236  1.5813
 7657TIP3    H244463   3.719   5.602  13.287 -0.6024 -0.2170 -2.3959
 7658TIP3   OH244464   1.813   5.375  12.696  0.1917  0.0538 -0.2348
 7658TIP3    H144465   1.744   5.397  12.634 -0.1294  1.7318  0.6575
 7658TIP3    H244466   1.876   5.447  12.688  0.0719  0.3835  1.4338
 7659TIP3   OH244467   5.017   4.179  11.928  0.5084  0.2800  0.1490
 7659TIP3    H144468   4.968   4.192  12.010  0.2640  2.3584 -0.2571
 7659TIP3    H244469   5.079   4.252  11.927  0.8987 -0.0581 -1.2485
 7660TIP3   OH244470   5.855   3.087  17.173 -0.5110 -0.5942  0.4780
 7660TIP3    H144471   5.943   3.092  17.209  1.0236  0.6909 -3.0546
 7660TIP3    H244472   5.812   3.018  17.224  1.8426 -0.0052  3.5359
 7661TIP3   OH244473   3.122   6.064  13.480 -0.6107  0.5587 -0.6785
 7661TIP3    H144474   3.035   6.037  13.451 -0.0795  0.1342 -1.9392
 7661TIP3    H244475   3.142   6.142  13.428 -0.3604  0.8530 -0.1568
 7662TIP3   OH244476   3.602   2.687  15.407  0.4237  0.0521  0.3088
 7662TIP3    H144477   3.508   2.672  15.395  0.5410 -1.0605  0.7259
 7662TIP3    H244478   3.644   2.610  15.370  1.1098 -0.0995  1.3642
 7663TIP3   OH244479   0.765   1.969   5.270 -0.3468 -0.6587 -0.1996
 7663TIP3    H144480   0.781   2.019   5.190 -0.8244 -1.9569 -1.1286
 7663TIP3    H244481   0.710   2.027   5.323  1.2150  0.8312 -0.1274
 7664TIP3   OH244482   6.263   2.434   4.951 -0.0789  0.1055  0.2705
 7664TIP3    H144483   6.279   2.418   4.858  3.1160 -0.0499  0.7285
 7664TIP3    H244484   6.311   2.515   4.970  0.4417 -0.5638  2.0192
 7665TIP3   OH244485   1.651   1.463  16.476  0.2913 -0.0528 -0.6054
 7665TIP3    H144486   1.652   1.548  16.433 -0.6233  0.6300  0.6764
 7665TIP3    H244487   1.698   1.476  16.557 -1.0865 -0.3694  0.2826
 7666TIP3   OH244488   0.807   3.687   1.379 -0.0348 -0.1485 -0.6719
 7666TIP3    H144489   0.807   3.592   1.367  0.1217 -0.3088  0.5005
 7666TIP3    H244490   0.897   3.713   1.364  0.5776 -0.6008  1.8524
 7667TIP3   OH244491   0.107   4.942  10.871 -0.2123 -0.4487 -0.0922
 7667TIP3    H144492   0.020   4.925  10.835 -0.3217  1.7896 -1.1220
 7667TIP3    H244493   0.155   4.980  10.797  0.6604  1.1404  1.2351
 7668TIP3   OH244494   0.499   4.437  12.133 -0.9009 -0.4429  0.2446
 7668TIP3    H144495   0.433   4.486  12.182  0.5688  0.5986  1.2584
 7668TIP3    H244496   0.501   4.479  12.047 -2.2565 -1.1590 -0.1719
 7669TIP3   OH244497   5.570   0.301   4.902  0.4143 -0.2577  0.2511
 7669TIP3    H144498   5.574   0.214   4.942  1.7933  0.4623  1.8233
 7669TIP3    H244499   5.489   0.300   4.851 -0.4238 -1.9244  1.4935
 7670TIP3   OH244500   5.984   5.109  11.803 -0.0028 -0.3355 -0.3331
 7670TIP3    H144501   6.021   5.169  11.867 -2.1911  0.4112  0.3122
 7670TIP3    H244502   6.034   5.125  11.723 -0.8171  2.8139 -0.3486
 7671TIP3   OH244503   1.417   6.003   3.238  0.3652  0.1260  0.4197
 7671TIP3    H144504   1.471   6.078   3.262 -1.5514  2.8065 -2.8081
 7671TIP3    H244505   1.460   5.966   3.161 -0.1032 -0.4983  0.4517
 7672TIP3   OH244506   0.351   2.410   6.089 -0.2640  0.3465  0.0729
 7672TIP3    H144507   0.392   2.330   6.120 -0.8979 -0.4747 -1.1464
 7672TIP3    H244508   0.376   2.416   5.997 -2.3471  0.1557 -0.5443
 7673TIP3   OH244509   1.518   5.865   4.683  0.3277 -0.2937  0.3267
 7673TIP3    H144510   1.550   5.818   4.760 -1.5293 -0.2850  1.1458
 7673TIP3    H244511   1.465   5.802   4.635 -2.8849  1.0132  1.8659
 7674TIP3   OH244512   5.923   1.509  14.511 -0.1756  0.2642  0.3721
 7674TIP3    H144513   5.905   1.440  14.574  1.8895  0.2666  1.0396
 7674TIP3    H244514   5.963   1.465  14.437  0.0510  0.6078  0.2880
 7675TIP3   OH244515   4.951   3.153  16.330  0.5521 -0.5057 -0.0333
 7675TIP3    H144516   4.938   3.245  16.308 -0.5373 -0.6808 -0.1525
 7675TIP3    H244517   4.863   3.117  16.339  0.9539 -1.1652  1.6357
 7676TIP3   OH244518   2.278   2.389   3.637 -0.7466  0.0032 -0.0627
 7676TIP3    H144519   2.204   2.429   3.684 -0.9125 -0.8068  0.3824
 7676TIP3    H244520   2.253   2.298   3.626  0.2004 -0.2916  0.1260
 7677TIP3   OH244521   4.215   2.041  14.853  0.3048  0.4761  0.7896
 7677TIP3    H144522   4.304   2.014  14.875  0.2686 -0.2193  0.0976
 7677TIP3    H244523   4.223   2.086  14.769 -0.3757 -2.4113 -0.9711
 7678TIP3   OH244524   5.908   3.233  13.825 -0.2741 -0.1176 -0.2914
 7678TIP3    H144525   5.902   3.254  13.732  1.6805  0.9294 -0.2433
 7678TIP3    H244526   5.999   3.204  13.837 -0.7867 -1.2486  1.1154
 7679TIP3   OH244527   3.276   6.124  10.697  0.3335  0.0043  0.0685
 7679TIP3    H144528   3.207   6.098  10.757  0.1101 -1.5495 -0.8167
 7679TIP3    H244529   3.230   6.156  10.619  0.6070  2.5546  0.8364
 7680TIP3   OH244530   6.484   6.085  11.771 -0.0801 -0.6868  0.0612
 7680TIP3    H144531   6.542   6.050  11.839  0.4473 -1.5199 -0.7945
 7680TIP3    H244532   6.542   6.101  11.696 -0.2825  2.1245  0.4122
 7681TIP3   OH244533   3.626   1.940  11.732 -0.5746 -0.4978 -0.7438
 7681TIP3    H144534   3.645   1.856  11.689 -1.5839 -0.3981 -1.4051
 7681TIP3    H244535   3.562   1.982  11.675  0.2204  0.9173 -0.6244
 7682TIP3   OH244536   0.475   2.797   1.553 -0.5201  0.3477  0.2413
 7682TIP3    H144537   0.429   2.715   1.567 -1.1475  0.7257  0.4294
 7682TIP3    H244538   0.522   2.785   1.471 -2.2714  0.5371 -0.8422
 7683TIP3   OH244539   6.603   5.041  15.209 -0.4975 -0.1397  0.4269
 7683TIP3    H144540   6.629   5.081  15.126  1.4687  0.4238  1.2703
 7683TIP3    H244541   6.647   5.093  15.276 -2.9103  0.1113  1.9426
 7684TIP3   OH244542   5.012   1.859   3.179  0.3554  0.3546 -0.2008
 7684TIP3    H144543   5.085   1.818   3.224  1.2870  1.0826 -0.9971
 7684TIP3    H244544   4.969   1.913   3.245 -0.1550 -0.9169  0.5479
 7685TIP3   OH244545   2.319   4.446   2.831  0.3465 -0.1760  0.1090
 7685TIP3    H144546   2.315   4.512   2.900 -0.2140  1.6011 -1.5309
 7685TIP3    H244547   2.409   4.452   2.799 -0.5812  2.6532 -2.5262
 7686TIP3   OH244548   1.264   4.556   3.521 -0.0032 -0.2621 -0.2695
 7686TIP3    H144549   1.327   4.550   3.593  1.3404  0.3593 -1.3365
 7686TIP3    H244550   1.301   4.623   3.463 -0.7651 -1.1152 -1.7966
 7687TIP3   OH244551   1.803   3.235   5.934 -0.5568 -0.1412 -0.1718
 7687TIP3    H144552   1.769   3.295   5.868 -0.3438 -1.2599 -1.3264
 7687TIP3    H244553   1.897   3.234   5.919 -0.4873 -0.2950  0.2613
 7688TIP3   OH244554   5.338   1.063  11.384  0.0593  0.0069  0.0125
 7688TIP3    H144555   5.311   0.983  11.429  0.3655  1.0560  2.1853
 7688TIP3    H244556   5.434   1.059  11.383  0.0445 -0.3595 -1.2690
 7689TIP3   OH244557   1.760   6.225  14.685 -0.0171  0.0370  0.4852
 7689TIP3    H144558   1.777   6.178  14.767  0.9367 -0.3819  0.0537
 7689TIP3    H244559   1.783   6.163  14.616 -1.5109  0.1229 -0.1362
 7690TIP3   OH244560   4.452   2.229  13.746  0.1233  0.1836  0.2071
 7690TIP3    H144561   4.501   2.147  13.740  0.7442  0.4451  1.3251
 7690TIP3    H244562   4.361   2.202  13.750  0.3145 -0.4585  0.4835
 7691TIP3   OH244563   4.571   6.334  11.789  0.0193 -0.1178  0.5517
 7691TIP3    H144564   4.634   6.283  11.737  0.0127 -0.9617  1.3551
 7691TIP3    H244565   4.521   6.268  11.837 -0.8227  0.5959  0.6768
 7692TIP3   OH244566   2.337   1.838   4.974  0.3447  0.4317 -1.0906
 7692TIP3    H144567   2.257   1.888   4.985  0.1393  0.4493 -2.4636
 7692TIP3    H244568   2.351   1.796   5.059 -0.4781  1.3355 -0.4836
 7693TIP3   OH244569   4.957   5.610  12.726 -0.6458  0.6493 -0.5464
 7693TIP3    H144570   4.918   5.563  12.652 -0.4786  0.1600 -0.3298
 7693TIP3    H244571   5.007   5.681  12.685  0.2455 -0.2027 -0.9709
 7694TIP3   OH244572   1.552   5.401   5.454  0.2545 -0.0220 -0.4522
 7694TIP3    H144573   1.479   5.443   5.408 -0.4788 -1.5042 -0.6772
 7694TIP3    H244574   1.544   5.308   5.433  2.4607 -0.1814 -0.8111
 7695TIP3   OH244575   2.147   1.292   4.574  0.3068  0.0339  0.5585
 7695TIP3    H144576   2.102   1.210   4.595 -0.6291  0.5461  0.6299
 7695TIP3    H244577   2.210   1.305   4.645  0.0191 -0.3107  0.8770
 7696TIP3   OH244578   5.066   6.764   6.706 -0.4963  0.1286  0.3977
 7696TIP3    H144579   5.043   6.824   6.636  0.2912 -0.0423 -0.0275
 7696TIP3    H244580   5.155   6.790   6.731 -0.3736 -0.4725  0.6117
 7697TIP3   OH244581   1.239   5.245  10.741 -0.4098 -0.0899 -0.0287
 7697TIP3    H144582   1.309   5.309  10.746  0.0971 -0.6848  0.5246
 7697TIP3    H244583   1.278   5.163  10.771 -1.5014 -0.2950  0.9042
 7698TIP3   OH244584   6.077   2.754   4.641 -0.1870  0.2509  0.0970
 7698TIP3    H144585   6.144   2.710   4.692  1.3326  1.9840 -0.2818
 7698TIP3    H244586   6.102   2.847   4.643 -0.4460  0.5285 -3.1311
 7699TIP3   OH244587   3.955   4.163  11.549  0.1771 -0.3900  0.0796
 7699TIP3    H144588   3.949   4.142  11.642  1.5650 -1.4496 -0.0384
 7699TIP3    H244589   4.048   4.157  11.529 -0.0068  0.6230 -1.2106
 7700TIP3   OH244590   0.625   1.967   3.347  0.1309  0.1128  0.0483
 7700TIP3    H144591   0.563   1.926   3.287  0.1135  1.4768 -0.9024
 7700TIP3    H244592   0.639   1.901   3.415 -1.2240 -0.7787 -0.4913
 7701TIP3   OH244593   4.859   4.223   2.821  0.4922 -0.0822 -0.2766
 7701TIP3    H144594   4.924   4.201   2.754  0.6040  1.7103 -0.8125
 7701TIP3    H244595   4.903   4.287   2.877 -0.4039  0.2264  0.0959
 7702TIP3   OH244596   1.391   2.844   0.637 -0.3698 -0.3639  0.9890
 7702TIP3    H144597   1.417   2.864   0.546  1.4695 -1.2341  1.2779
 7702TIP3    H244598   1.303   2.808   0.629  0.2547 -1.6865 -0.6317
 7703TIP3   OH244599   2.497   1.938   5.490  0.4978 -0.1251  0.0714
 7703TIP3    H144600   2.440   1.861   5.494 -0.5276  0.4708 -1.7680
 7703TIP3    H244601   2.554   1.922   5.415  0.5718  0.7152 -0.0604
 7704TIP3   OH244602   3.925   5.582   4.373  0.1106  0.0936  0.6136
 7704TIP3    H144603   3.930   5.532   4.291 -2.0500  1.7230 -0.5998
 7704TIP3    H244604   3.871   5.658   4.352  0.3357  1.1105  3.3216
 7705TIP3   OH244605   3.154   2.063  12.239  0.2621 -0.5597 -0.3359
 7705TIP3    H144606   3.193   2.119  12.172  0.2460  1.1363  1.0090
 7705TIP3    H244607   3.227   2.016  12.279  0.5825  0.3298  0.1385
 7706TIP3   OH244608   2.450   3.340  15.363  0.3033 -0.3492 -0.1472
 7706TIP3    H144609   2.366   3.362  15.403  0.1206 -1.0706 -0.1326
 7706TIP3    H244610   2.430   3.269  15.302  0.3365  1.4970 -2.4769
 7707TIP3   OH244611   5.478   4.576  15.902 -0.1435 -0.0071  0.3613
 7707TIP3    H144612   5.487   4.531  15.986  0.0909 -0.9838 -0.1736
 7707TIP3    H244613   5.566   4.573  15.864 -0.4217 -0.3071 -0.2767
 7708TIP3   OH244614   0.414   4.453  13.543 -0.6740  0.0950 -0.2874
 7708TIP3    H144615   0.504   4.466  13.515  0.6956  1.0226  3.7593
 7708TIP3    H244616   0.417   4.374  13.597 -2.3444 -0.0157 -0.3015
 7709TIP3   OH244617   2.389   1.698  16.067 -0.3947 -0.1250  0.0960
 7709TIP3    H144618   2.439   1.639  16.124 -0.9492 -0.3693  0.3336
 7709TIP3    H244619   2.329   1.641  16.019 -0.3795  0.1556 -0.2666
 7710TIP3   OH244620   1.386   3.902  13.755  0.2752 -0.2046 -0.4878
 7710TIP3    H144621   1.409   3.892  13.848  1.0624 -0.9752 -0.7413
 7710TIP3    H244622   1.396   3.995  13.737 -1.4595  0.2329  0.5759
 7711TIP3   OH244623   0.829   5.044   4.671 -0.1001  0.3244  1.0825
 7711TIP3    H144624   0.806   4.959   4.635  1.8158  0.3024 -0.2596
 7711TIP3    H244625   0.813   5.037   4.765 -3.2824 -0.3196  0.5805
 7712TIP3   OH244626   0.348   1.253   4.435  0.4887 -0.2413 -0.0065
 7712TIP3    H144627   0.267   1.255   4.384  0.9119  0.2956 -0.6721
 7712TIP3    H244628   0.320   1.272   4.525 -0.1076  0.0340 -0.2441
 7713TIP3   OH244629   1.289   2.692   1.193  0.0140  0.0870  0.3127
 7713TIP3    H144630   1.233   2.648   1.257 -0.2602  0.2512  0.1857
 7713TIP3    H244631   1.230   2.721   1.125  0.4441 -1.1324 -0.6234
 7714TIP3   OH244632   2.782   6.535   5.537 -0.6387  0.3298  0.5753
 7714TIP3    H144633   2.779   6.591   5.615 -0.3487 -0.6505  1.3112
 7714TIP3    H244634   2.776   6.446   5.572 -0.3028 -0.1273 -0.5134
 7715TIP3   OH244635   3.407   0.681   6.119 -0.3381 -0.2092 -0.1150
 7715TIP3    H144636   3.468   0.734   6.170 -0.9317  0.6144 -0.2483
 7715TIP3    H244637   3.321   0.707   6.150 -0.6425 -1.3903  0.0981
 7716TIP3   OH244638   5.192   6.000   1.571  0.2436 -0.3526 -0.0104
 7716TIP3    H144639   5.196   5.924   1.513  1.1337  0.2611 -0.7791
 7716TIP3    H244640   5.245   5.975   1.647 -1.6056 -1.4813  0.9824
 7717TIP3   OH244641   5.356   1.615   6.170  0.4376 -0.4362 -0.1058
 7717TIP3    H144642   5.344   1.645   6.260  0.3246 -2.1799  0.4998
 7717TIP3    H244643   5.405   1.533   6.178  2.5508  0.5392 -1.7966
 7718TIP3   OH244644   5.680   2.001  14.967  0.2762 -0.1685  0.2572
 7718TIP3    H144645   5.736   1.930  14.998  0.3744  0.0488  0.5860
 7718TIP3    H244646   5.608   2.005  15.030  0.2851  0.0408  0.2558
 7719TIP3   OH244647   3.521   6.000  12.210  0.3368 -0.0364 -0.3508
 7719TIP3    H144648   3.506   5.915  12.168 -1.2557 -0.9151  1.8164
 7719TIP3    H244649   3.501   6.063  12.141  0.4565 -1.3997 -1.7032
 7720TIP3   OH244650   6.604   2.368   2.500  0.4964  0.3054 -0.1835
 7720TIP3    H144651   6.526   2.373   2.556 -0.2848  0.4971 -1.2595
 7720TIP3    H244652   6.626   2.459   2.481  2.1322  0.3486  1.6069
 7721TIP3   OH244653   2.038   4.190  12.983  0.1772 -0.6145  0.0811
 7721TIP3    H144654   2.101   4.198  13.055  0.9595 -2.4682 -0.3573
 7721TIP3    H244655   1.965   4.142  13.021 -0.2992  0.1548  0.1564
 7722TIP3   OH244656   0.953   4.150   5.533  0.2675  0.6363  0.2811
 7722TIP3    H144657   0.876   4.096   5.516  0.7508 -0.2129  0.6871
 7722TIP3    H244658   0.977   4.186   5.448 -0.9521  1.4398  0.2644
 7723TIP3   OH244659   5.114   0.359  12.064  0.0195 -0.2863 -0.0973
 7723TIP3    H144660   5.074   0.443  12.087  0.4935 -0.3746  1.1238
 7723TIP3    H244661   5.195   0.383  12.018  0.6426 -0.0535  1.0993
 7724TIP3   OH244662   0.728   0.978  11.916 -0.0183  0.0183  1.2276
 7724TIP3    H144663   0.653   1.018  11.962  0.0116 -1.6637  2.8548
 7724TIP3    H244664   0.800   1.040  11.929 -0.3871  0.2513  2.2352
 7725TIP3   OH244665   5.280   0.595   3.736 -0.2528 -0.0374  0.0978
 7725TIP3    H144666   5.191   0.609   3.770 -0.6330  1.8476 -1.5367
 7725TIP3    H244667   5.290   0.500   3.734 -2.9716 -0.3911 -1.3918
 7726TIP3   OH244668   2.418   4.875  13.054 -0.5228 -0.0473 -0.2958
 7726TIP3    H144669   2.448   4.873  12.963  0.8376 -1.8289  0.1418
 7726TIP3    H244670   2.377   4.790  13.068  2.0892 -1.1511  1.5815
 7727TIP3   OH244671   4.234   3.630   2.584  0.0351  0.3382 -0.0551
 7727TIP3    H144672   4.269   3.576   2.513 -0.0857 -0.7134  0.6501
 7727TIP3    H244673   4.255   3.580   2.664 -0.6642  1.0247  0.5734
 7728TIP3   OH244674   5.582   6.430   3.936  1.0093 -0.3218 -0.0848
 7728TIP3    H144675   5.615   6.467   4.017  0.8260 -0.4267  0.0403
 7728TIP3    H244676   5.625   6.480   3.867 -1.1729  1.9581  0.0438
 7729TIP3   OH244677   3.207   2.019   4.526  0.4176  0.4754 -0.0158
 7729TIP3    H144678   3.153   1.968   4.586 -2.0994  0.7652 -1.8649
 7729TIP3    H244679   3.276   1.959   4.497  0.3363 -0.3408  1.4323
 7730TIP3   OH244680   0.221   0.510  14.619 -0.4610  0.2328  0.2292
 7730TIP3    H144681   0.271   0.500  14.538 -1.6740 -1.7457 -0.3517
 7730TIP3    H244682   0.287   0.524  14.687  0.7142 -0.1345 -0.7985
 7731TIP3   OH244683   2.015   4.821  15.174 -0.0408  0.2352 -0.0038
 7731TIP3    H144684   2.030   4.789  15.263 -0.6575 -0.3037 -0.0884
 7731TIP3    H244685   1.933   4.778  15.146  0.5437 -0.2104 -1.1088
 7732TIP3   OH244686   0.577   5.754   2.200  0.2985 -0.0112  0.6664
 7732TIP3    H144687   0.574   5.836   2.151 -0.3795 -0.5155 -0.1593
 7732TIP3    H244688   0.670   5.735   2.210  0.5011 -0.7800 -1.9721
 7733TIP3   OH244689   4.202   6.771   2.415 -0.0479  0.6783 -0.3801
 7733TIP3    H144690   4.244   6.754   2.330 -0.6137 -0.0036 -0.5393
 7733TIP3    H244691   4.242   6.852   2.446  0.1018  0.9869 -1.3447
 7734TIP3   OH244692   4.340   3.648  14.924  0.0011  0.4769  0.2601
 7734TIP3    H144693   4.311   3.575  14.869 -1.0904  0.3162  1.0275
 7734TIP3    H244694   4.268   3.711  14.919  0.8455  1.4247 -0.2222
 7735TIP3   OH244695   4.967   2.677   0.392  0.4607  0.1520  0.5213
 7735TIP3    H144696   5.004   2.669   0.480 -0.6423  0.6129  1.0369
 7735TIP3    H244697   4.878   2.643   0.400  0.1164  0.8446 -0.2538
 7736TIP3   OH244698   0.324   6.394   4.104  0.2320  0.2543  0.0116
 7736TIP3    H144699   0.377   6.324   4.066  0.6112  0.1107  0.7863
 7736TIP3    H244700   0.250   6.350   4.144  1.0018  0.1841  1.3991
 7737TIP3   OH244701   3.350   0.949   6.390 -0.4201  0.6017  0.3998
 7737TIP3    H144702   3.324   0.912   6.474  3.2853 -1.4963  0.8062
 7737TIP3    H244703   3.310   0.892   6.324  0.7079 -0.8408  0.9196
 7738TIP3   OH244704   5.257   4.679  13.478 -0.9283 -0.4835 -0.0050
 7738TIP3    H144705   5.312   4.743  13.524 -0.6804 -1.4153  1.0229
 7738TIP3    H244706   5.203   4.640  13.546 -1.1820 -1.2664 -0.6394
 7739TIP3   OH244707   1.922   2.379   3.529  0.4595 -0.7443  0.3383
 7739TIP3    H144708   1.985   2.431   3.479 -0.8995  0.7201  0.0719
 7739TIP3    H244709   1.898   2.307   3.470  0.2708 -0.0819 -0.4156
 7740TIP3   OH244710   3.856   2.624   5.025 -0.1487  0.0782 -0.5488
 7740TIP3    H144711   3.792   2.616   5.096  0.0149 -0.3219 -0.4431
 7740TIP3    H244712   3.924   2.560   5.047 -0.7663 -1.0384 -1.7813
 7741TIP3   OH244713   5.093   6.292  16.343 -0.4423 -0.5274 -0.4189
 7741TIP3    H144714   5.047   6.219  16.384  0.3172 -1.3732 -1.0364
 7741TIP3    H244715   5.040   6.313  16.266 -0.0009 -1.2660 -0.9350
 7742TIP3   OH244716   2.237   5.441  11.366  0.0340 -0.0781 -0.2743
 7742TIP3    H144717   2.159   5.474  11.411 -0.8778 -0.8596 -1.2486
 7742TIP3    H244718   2.272   5.518  11.320 -2.1587 -0.3867 -2.6487
 7743TIP3   OH244719   1.465   5.283   0.516  0.0222 -0.0691  0.2967
 7743TIP3    H144720   1.444   5.265   0.424  0.9554  0.1192  0.0346
 7743TIP3    H244721   1.479   5.196   0.554  2.9605 -0.0991 -0.5843
 7744TIP3   OH244722   5.741   5.518  12.110  0.2654 -0.2911 -0.9755
 7744TIP3    H144723   5.826   5.562  12.108 -0.1274  0.4586 -1.5346
 7744TIP3    H244724   5.761   5.431  12.145  0.8489  0.7355  1.4911
 7745TIP3   OH244725   1.295   2.965  13.408 -0.9397  0.0446 -0.0517
 7745TIP3    H144726   1.249   2.989  13.328 -2.9712  2.2583  1.6279
 7745TIP3    H244727   1.363   3.031  13.418 -1.2781  0.3274  0.4679
 7746TIP3   OH244728   5.911   5.401  16.907 -0.4866 -0.0002 -0.5076
 7746TIP3    H144729   5.870   5.365  16.985  1.1321  0.8016  0.7845
 7746TIP3    H244730   5.858   5.369  16.835 -3.1745  0.7459  0.9997
 7747TIP3   OH244731   6.418   0.669   1.425  0.0838 -0.0154 -0.1904
 7747TIP3    H144732   6.437   0.619   1.346  1.4602  1.4431 -0.8356
 7747TIP3    H244733   6.436   0.608   1.497  3.7294  0.0274 -0.8739
 7748TIP3   OH244734   5.149   5.873  12.507 -0.1725  0.0726 -0.0758
 7748TIP3    H144735   5.208   5.811  12.464 -0.5949  0.6281 -1.5177
 7748TIP3    H244736   5.173   5.869  12.599  0.3409 -1.6446 -0.2526
 7749TIP3   OH244737   3.141   4.812  11.782 -0.1207 -0.9937 -0.3174
 7749TIP3    H144738   3.181   4.811  11.869  0.5547  0.5281 -0.5631
 7749TIP3    H244739   3.048   4.796  11.797 -0.1125 -0.0981  0.7619
 7750TIP3   OH244740   4.516   0.301  16.864  0.0175  0.3376  0.0981
 7750TIP3    H144741   4.465   0.355  16.925 -1.7854 -1.0652 -0.0696
 7750TIP3    H244742   4.559   0.364  16.807  0.3308  1.6425  1.6885
 7751TIP3   OH244743   0.629   2.257  13.823 -0.4483  0.2638 -0.4749
 7751TIP3    H144744   0.704   2.312  13.798 -0.0808  0.3763  0.8165
 7751TIP3    H244745   0.556   2.319  13.830 -0.3962  0.3379 -0.5781
 7752TIP3   OH244746   4.399   4.697  12.322 -0.5601 -0.2874 -0.2939
 7752TIP3    H144747   4.403   4.705  12.227  0.3865  0.1941 -0.2228
 7752TIP3    H244748   4.395   4.787  12.353  0.2104 -0.4064  0.1607
 7753TIP3   OH244749   6.634   1.452   5.719  0.0034 -0.2701 -0.0961
 7753TIP3    H144750   6.564   1.388   5.736 -2.2849  1.6052 -1.7727
 7753TIP3    H244751   6.690   1.409   5.655 -1.4762 -0.6773 -1.1838
 7754TIP3   OH244752   6.446   5.423  14.626  0.0676 -0.4320  0.3771
 7754TIP3    H144753   6.369   5.477  14.610  1.0592  0.5201 -1.6196
 7754TIP3    H244754   6.412   5.335  14.638 -1.3155 -0.3078 -1.8960
 7755TIP3   OH244755   1.800   5.862   2.589 -0.1432 -0.2057  0.4791
 7755TIP3    H144756   1.810   5.842   2.683  1.7720 -3.0781 -0.1983
 7755TIP3    H244757   1.833   5.952   2.580 -1.5472  0.6108  2.6815
 7756TIP3   OH244758   0.091   3.480  15.014 -0.0213  0.3802 -0.6548
 7756TIP3    H144759   0.153   3.541  15.055 -1.5727  1.3827  0.2903
 7756TIP3    H244760   0.130   3.394  15.029  0.9664  0.9570  0.2398
 7757TIP3   OH244761   5.788   5.225  13.024  0.6116  0.4048 -0.1067
 7757TIP3    H144762   5.842   5.303  13.041  1.7635 -0.8495  2.4747
 7757TIP3    H244763   5.846   5.166  12.976  1.1510 -0.4000  1.4692
 7758TIP3   OH244764   5.680   6.551   4.165  0.4532  0.0010 -0.7972
 7758TIP3    H144765   5.772   6.554   4.188  0.5469  0.2790 -1.1921
 7758TIP3    H244766   5.637   6.511   4.241  0.7139  1.1258 -0.0376
 7759TIP3   OH244767   1.987   0.321   2.110  0.1548  0.6333  0.1985
 7759TIP3    H144768   2.052   0.259   2.144  0.2622  0.4026 -0.4048
 7759TIP3    H244769   1.988   0.394   2.172  2.4631  1.5664 -0.8193
 7760TIP3   OH244770   1.666   4.812  14.278 -0.2081 -0.1475  0.5975
 7760TIP3    H144771   1.578   4.782  14.302 -0.1999 -0.6022  0.0606
 7760TIP3    H244772   1.651   4.893  14.229 -0.4470 -1.0899 -0.9557
 7761TIP3   OH244773   3.967   3.889  15.093  0.2454 -0.0034 -0.5828
 7761TIP3    H144774   3.955   3.878  15.188  0.5157  1.6004 -0.3346
 7761TIP3    H244775   3.950   3.982  15.078  1.6374  0.0698 -1.8786
 7762TIP3   OH244776   5.141   2.059  14.619 -0.0172  0.4237  0.1055
 7762TIP3    H144777   5.093   1.989  14.574 -0.0036  0.5665 -0.1356
 7762TIP3    H244778   5.084   2.086  14.690  0.5031 -0.6918  0.9838
 7763TIP3   OH244779   6.673   5.360   2.165  0.5910 -0.6274  0.1319
 7763TIP3    H144780   6.666   5.291   2.099  0.7558  0.5225 -1.1330
 7763TIP3    H244781   6.683   5.313   2.248  0.8412 -2.1164 -0.7025
 7764TIP3   OH244782   1.498   6.023   4.041 -0.1526 -0.3819 -0.1082
 7764TIP3    H144783   1.480   6.045   4.132  0.4206 -1.7752  0.3620
 7764TIP3    H244784   1.411   6.010   4.003 -0.4468  1.1590 -0.0500
 7765TIP3   OH244785   0.307   2.755  14.666 -0.0989 -0.6763  0.1551
 7765TIP3    H144786   0.213   2.747  14.681 -0.3365 -1.1189 -1.4107
 7765TIP3    H244787   0.316   2.838  14.619  0.5234  0.2904  1.9070
 7766TIP3   OH244788   0.191   5.168  16.111  0.0955  0.0765 -0.1335
 7766TIP3    H144789   0.122   5.110  16.143  0.4510 -1.0749 -1.3299
 7766TIP3    H244790   0.258   5.166  16.179 -1.4388  2.0679  1.5535
 7767TIP3   OH244791   5.391   3.746  12.954  0.1553 -0.0717 -0.8325
 7767TIP3    H144792   5.430   3.727  13.039  1.5284 -0.2437 -1.4805
 7767TIP3    H244793   5.298   3.727  12.966  0.2208  0.4302  0.7761
 7768TIP3   OH244794   0.518   0.784  16.236  0.2499  0.2818 -0.6680
 7768TIP3    H144795   0.515   0.718  16.166 -2.5014 -0.4164 -0.0281
 7768TIP3    H244796   0.442   0.765  16.290 -0.5878  3.8502 -0.3016
 7769TIP3   OH244797   5.455   2.034   6.145 -0.2650  0.3670 -0.5181
 7769TIP3    H144798   5.474   1.942   6.160 -0.3985  0.4333  0.0757
 7769TIP3    H244799   5.364   2.035   6.113 -0.9230  0.4270  1.2543
 7770TIP3   OH244800   0.523   4.861   6.142 -0.0768 -0.1464  0.4858
 7770TIP3    H144801   0.617   4.873   6.126 -0.0081 -0.7300  0.4292
 7770TIP3    H244802   0.511   4.889   6.233  0.1215  0.0960  0.4381
 7771TIP3   OH244803   0.675   6.433   2.917  0.9869  0.6079  0.7313
 7771TIP3    H144804   0.702   6.501   2.978  1.4922  1.9540 -0.8960
 7771TIP3    H244805   0.582   6.448   2.902  0.3288 -1.0796  2.7481
 7772TIP3   OH244806   0.377   5.311  11.584 -0.0059 -0.0911 -0.2143
 7772TIP3    H144807   0.342   5.266  11.508 -0.0217 -0.5298  0.0492
 7772TIP3    H244808   0.427   5.384  11.548  1.7829 -1.5159 -0.7540
 7773TIP3   OH244809   1.949   4.667  15.421  0.1750  0.6267 -0.5397
 7773TIP3    H144810   1.871   4.718  15.442  0.3398  0.4979  0.3920
 7773TIP3    H244811   1.919   4.603  15.355 -1.0769 -0.9389  1.4359
 7774TIP3   OH244812   1.335   5.952   5.980  0.1135 -0.1264  0.4264
 7774TIP3    H144813   1.249   5.960   6.021 -0.1592 -1.6835  0.2246
 7774TIP3    H244814   1.315   5.942   5.886  0.4576 -1.1972  0.4574
 7775TIP3   OH244815   6.457   4.296   2.799  0.5999 -0.9252 -0.7545
 7775TIP3    H144816   6.433   4.205   2.815 -2.7225  0.0968  0.9971
 7775TIP3    H244817   6.536   4.310   2.851 -0.8399 -1.9712  1.8935
 7776TIP3   OH244818   4.029   6.750  15.837 -0.3322 -0.1284 -0.5489
 7776TIP3    H144819   3.969   6.676  15.834  1.2424 -1.5886  1.2411
 7776TIP3    H244820   4.055   6.756  15.929  3.8982 -1.0754 -1.4435
 7777TIP3   OH244821   0.153   5.081   2.431 -0.3017  0.5407 -0.0728
 7777TIP3    H144822   0.094   5.096   2.505  0.0702  0.2988  0.2719
 7777TIP3    H244823   0.205   5.005   2.457 -0.2225  0.4067 -0.6148
 7778TIP3   OH244824   0.931   6.496  11.922  0.2734 -0.5640 -0.3378
 7778TIP3    H144825   0.997   6.540  11.869  0.2150 -1.7870 -1.4870
 7778TIP3    H244826   0.939   6.404  11.898 -0.8889 -0.9251  0.5660
 7779TIP3   OH244827   5.693   1.405  17.098  0.3252  1.0390 -0.0023
 7779TIP3    H144828   5.785   1.428  17.090  0.4531  0.4245 -0.3404
 7779TIP3    H244829   5.683   1.324  17.048 -0.5872  1.5745 -0.7354
 7780TIP3   OH244830   5.051   2.924  11.336 -0.0105 -0.4555 -0.1766
 7780TIP3    H144831   5.111   2.948  11.406 -0.6160 -1.6644  0.7842
 7780TIP3    H244832   5.000   2.851  11.371  0.4276 -1.8623 -2.2650
 7781TIP3   OH244833   1.463   6.167  14.231 -0.5535 -0.2465 -0.1136
 7781TIP3    H144834   1.506   6.193  14.150  0.8375 -0.3392  0.5755
 7781TIP3    H244835   1.371   6.187  14.216 -0.1136  1.1321 -1.1624
 7782TIP3   OH244836   3.970   1.818  16.928 -0.0355 -0.1806  0.1025
 7782TIP3    H144837   3.918   1.878  16.874  0.1771 -0.8955 -0.9267
 7782TIP3    H244838   3.913   1.797  17.002  0.2662  2.0823  1.0660
 7783TIP3   OH244839   5.282   5.563   2.714 -0.1524  0.6366 -0.3317
 7783TIP3    H144840   5.331   5.635   2.754 -0.7596  0.9317 -0.1122
 7783TIP3    H244841   5.190   5.588   2.724 -0.3347  0.3261 -1.1908
 7784TIP3   OH244842   0.786   2.327   4.277 -0.2692  0.4181 -0.0141
 7784TIP3    H144843   0.799   2.419   4.254  0.2582  0.6926  1.2691
 7784TIP3    H244844   0.725   2.294   4.211  0.3444  1.4032 -1.1191
 7785TIP3   OH244845   2.928   2.135   2.818 -0.0126 -0.5174 -0.0920
 7785TIP3    H144846   3.024   2.134   2.816  0.1859 -1.6479  3.2964
 7785TIP3    H244847   2.902   2.051   2.781  0.1450  0.3061 -2.2263
 7786TIP3   OH244848   5.812   1.874  13.115 -0.0403 -0.2803 -0.2317
 7786TIP3    H144849   5.737   1.888  13.057 -0.9742 -1.1589  0.6809
 7786TIP3    H244850   5.784   1.911  13.199  1.0366  0.4375 -0.1753
 7787TIP3   OH244851   1.825   5.876  16.635 -0.2430  0.3914 -0.1004
 7787TIP3    H144852   1.861   5.952  16.682 -0.1214  0.1242  0.2404
 7787TIP3    H244853   1.879   5.869  16.557  1.0139 -0.4997  0.7994
 7788TIP3   OH244854   1.172   4.125   2.800 -0.2007 -0.0428  0.0975
 7788TIP3    H144855   1.206   4.108   2.888 -1.6330  0.8520  0.8757
 7788TIP3    H244856   1.167   4.220   2.795  0.2079 -0.0719 -1.1181
 7789TIP3   OH244857   6.274   4.382  15.042  0.0307  0.7044  0.1345
 7789TIP3    H144858   6.343   4.347  15.098 -1.2344 -0.0798  1.2641
 7789TIP3    H244859   6.201   4.399  15.101 -0.9472  0.9721 -1.1074
 7790TIP3   OH244860   3.142   4.701   2.044  0.1650 -0.3907  0.6372
 7790TIP3    H144861   3.213   4.638   2.052  0.5219 -0.0722  0.0014
 7790TIP3    H244862   3.183   4.779   2.008 -0.6950 -0.5698 -0.8172
 7791TIP3   OH244863   0.908   6.225  11.758 -0.2196 -0.2497  0.1903
 7791TIP3    H144864   0.968   6.171  11.809  0.4500  0.1358 -0.1683
 7791TIP3    H244865   0.840   6.165  11.729  0.2928 -0.8088  0.1355
 7792TIP3   OH244866   4.908   3.964  13.300 -0.3013  0.5519  0.1335
 7792TIP3    H144867   4.878   4.023  13.369  0.8424 -0.3491  1.4573
 7792TIP3    H244868   4.845   3.892  13.301  0.7174 -0.3594  1.5378
 7793TIP3   OH244869   4.790   0.621   4.409  0.1109  0.1581  0.0224
 7793TIP3    H144870   4.812   0.705   4.450 -0.0708 -0.6495  1.8502
 7793TIP3    H244871   4.863   0.605   4.348  1.0609  0.7930  0.9512
 7794TIP3   OH244872   2.771   4.951   0.664  0.0134  0.5359 -0.3122
 7794TIP3    H144873   2.786   5.033   0.618 -0.7294  1.0671  0.3711
 7794TIP3    H244874   2.706   4.905   0.612 -0.3758  0.8667 -0.1182
 7795TIP3   OH244875   2.294   6.207   3.872 -0.0602  0.0401  0.3437
 7795TIP3    H144876   2.233   6.252   3.930  0.1171 -0.3687  0.8629
 7795TIP3    H244877   2.376   6.204   3.922  0.4710  0.8287 -0.4563
 7796TIP3   OH244878   0.957   2.530   2.787 -0.4608 -0.1873  0.1632
 7796TIP3    H144879   0.968   2.515   2.881 -0.3245  3.0478  0.7867
 7796TIP3    H244880   1.044   2.555   2.756 -1.1916  2.7678  0.1580
 7797TIP3   OH244881   6.800   5.182  17.067  0.0121 -0.2185 -0.6498
 7797TIP3    H144882   6.813   5.099  17.021 -0.2385  0.1328 -1.3625
 7797TIP3    H244883   6.718   5.170  17.116  0.4808 -0.7278  0.0279
 7798TIP3   OH244884   2.693   1.000  15.811 -0.2163  0.0521  0.0856
 7798TIP3    H144885   2.690   1.021  15.905 -1.4799 -0.6538  0.2142
 7798TIP3    H244886   2.735   0.914  15.807  0.7906  0.5302 -0.0992
 7799TIP3   OH244887   4.679   5.457  15.116 -0.1882 -0.7401  0.1186
 7799TIP3    H144888   4.679   5.362  15.129 -1.7076 -0.8775 -0.7084
 7799TIP3    H244889   4.725   5.492  15.193  0.2502 -2.1226  0.5057
 7800TIP3   OH244890   2.424   2.972  13.555 -0.0393 -0.4541 -0.3510
 7800TIP3    H144891   2.447   3.054  13.599  1.1411 -0.8230 -0.2373
 7800TIP3    H244892   2.330   2.978  13.541 -0.1507  0.4438  0.6272
 7801TIP3   OH244893   2.036   6.260  11.803 -0.5183 -0.2314  0.3125
 7801TIP3    H144894   1.956   6.249  11.855 -0.9289 -0.9096 -0.4268
 7801TIP3    H244895   2.100   6.202  11.844 -1.0469 -1.2967 -0.3221
 7802TIP3   OH244896   6.746   6.637   3.237 -0.4961  0.1283  0.3295
 7802TIP3    H144897   6.813   6.648   3.170 -0.7879 -0.1978 -0.0168
 7802TIP3    H244898   6.719   6.726   3.260  0.4530  0.2938  0.8794
 7803TIP3   OH244899   6.471   5.620  14.154 -0.0162  0.1209 -0.0255
 7803TIP3    H144900   6.553   5.661  14.184  0.9638 -0.8362 -1.2760
 7803TIP3    H244901   6.487   5.600  14.061 -1.1555 -1.3548  0.0586
 7804TIP3   OH244902   3.699   5.422   2.460  0.4818 -0.0401  0.7839
 7804TIP3    H144903   3.614   5.445   2.496 -2.1773 -1.1702 -3.8838
 7804TIP3    H244904   3.746   5.505   2.454 -0.5466  0.7460  2.8122
 7805TIP3   OH244905   0.976   1.796  14.096  0.4997  0.3184 -0.1807
 7805TIP3    H144906   0.993   1.838  14.181 -0.4835  0.0232  0.1786
 7805TIP3    H244907   0.992   1.703  14.112  0.8038  0.3218 -0.4597
 7806TIP3   OH244908   4.321   4.638   3.539 -0.2287  0.1900  0.1852
 7806TIP3    H144909   4.322   4.631   3.634 -1.2958 -3.7360  0.0758
 7806TIP3    H244910   4.370   4.562   3.508  1.4138  2.1351 -2.5180
 7807TIP3   OH244911   3.897   3.299   5.460  0.7201  0.0012 -0.2101
 7807TIP3    H144912   3.924   3.246   5.385  1.7223  1.0528 -0.6130
 7807TIP3    H244913   3.801   3.301   5.454  0.7900  2.7538 -3.4591
 7808TIP3   OH244914   2.367   2.689   5.695  0.0331  0.0693 -0.2198
 7808TIP3    H144915   2.304   2.678   5.766  0.9646  2.5255  1.1203
 7808TIP3    H244916   2.345   2.621   5.632 -1.9971 -1.0560  1.5849
 7809TIP3   OH244917   4.766   2.045   3.660  0.1094  0.3411 -0.9319
 7809TIP3    H144918   4.683   1.997   3.655 -0.0875  0.3278  1.4573
 7809TIP3    H244919   4.834   1.979   3.648 -0.2079 -0.0855 -0.4270
 7810TIP3   OH244920   1.938   5.265   4.565 -0.3984  0.4584 -0.1390
 7810TIP3    H144921   1.964   5.174   4.579  2.2844  0.9737 -1.2114
 7810TIP3    H244922   1.842   5.263   4.568 -0.3898 -2.1620  1.0626
 7811TIP3   OH244923   3.224   0.817   0.844 -0.0985  0.1359  0.1773
 7811TIP3    H144924   3.268   0.747   0.796 -1.9518 -1.9339  1.3572
 7811TIP3    H244925   3.295   0.862   0.891  1.0214 -1.8223  0.4670
 7812TIP3   OH244926   5.015   2.419   4.262 -0.3908  0.0852  0.1314
 7812TIP3    H144927   4.975   2.381   4.340 -0.1004 -1.6718 -0.5422
 7812TIP3    H244928   5.006   2.514   4.274 -2.7664 -0.1956  1.0358
 7813TIP3   OH244929   0.543   5.373   3.095  0.0684 -0.2080 -0.1224
 7813TIP3    H144930   0.471   5.437   3.101  0.7622  0.7685 -1.6371
 7813TIP3    H244931   0.598   5.405   3.024  2.1592 -0.7926  1.1360
 7814TIP3   OH244932   3.631   0.246   6.118  0.2881  0.0978 -0.3294
 7814TIP3    H144933   3.598   0.300   6.190 -1.6877  1.4021 -2.0970
 7814TIP3    H244934   3.708   0.292   6.086  0.1778  0.4260 -0.1301
 7815TIP3   OH244935   0.337   3.290   0.125  0.4080  0.2029 -0.3787
 7815TIP3    H144936   0.336   3.304   0.030 -0.3892  2.8329 -0.0652
 7815TIP3    H244937   0.430   3.290   0.148  0.5830  1.6026 -0.9652
 7816TIP3   OH244938   1.813   2.250  15.199 -0.3134  0.0666 -0.0232
 7816TIP3    H144939   1.823   2.344  15.184 -0.9411 -0.1224 -1.9205
 7816TIP3    H244940   1.851   2.209  15.121 -2.3647 -1.1449 -0.4513
 7817TIP3   OH244941   0.497   3.812   4.791 -0.5138 -0.0802  0.8839
 7817TIP3    H144942   0.591   3.811   4.809 -0.0791  0.7606 -1.0273
 7817TIP3    H244943   0.459   3.859   4.865  0.6663  0.2402  1.3182
 7818TIP3   OH244944   1.954   6.737  12.482  0.3184 -0.1777  0.3809
 7818TIP3    H144945   2.013   6.666  12.456 -0.3698 -0.4548 -0.4977
 7818TIP3    H244946   1.870   6.713  12.442 -0.0269  0.9149  0.4305
 7819TIP3   OH244947   5.390   4.241  14.182 -0.1233  0.5948  0.5600
 7819TIP3    H144948   5.355   4.154  14.162  0.9310 -0.9487  4.5213
 7819TIP3    H244949   5.313   4.297  14.185 -1.0363 -0.5430 -0.5217
 7820TIP3   OH244950   0.175   5.873  11.820 -0.2240 -0.4021  0.6465
 7820TIP3    H144951   0.195   5.846  11.910  2.8909  1.1706  0.5806
 7820TIP3    H244952   0.144   5.963  11.829  3.1967  0.9911  0.1262
 7821TIP3   OH244953   5.558   1.898   2.584  0.4183  0.5383 -0.5010
 7821TIP3    H144954   5.591   1.948   2.509  2.2336  0.1207 -0.0132
 7821TIP3    H244955   5.609   1.928   2.658 -1.1534  0.7270  0.5537
 7822TIP3   OH244956   3.455   3.206  15.999  0.0884  0.8841 -0.2564
 7822TIP3    H144957   3.454   3.141  16.070 -1.2209  2.4439  1.2208
 7822TIP3    H244958   3.535   3.186  15.951  0.4898 -0.8953  1.0267
 7823TIP3   OH244959   3.616   1.990  15.002  0.0483  0.0769 -0.4822
 7823TIP3    H144960   3.563   2.049  14.949 -1.1451  0.3312  0.9311
 7823TIP3    H244961   3.552   1.938  15.051  1.0657 -2.2983 -1.5484
 7824TIP3   OH244962   2.522   5.966   0.910  0.0171  0.2265  0.7358
 7824TIP3    H144963   2.571   5.907   0.967 -0.5670 -1.6348 -0.5818
 7824TIP3    H244964   2.587   6.028   0.878  1.0958 -0.9405  0.6113
 7825TIP3   OH244965   3.395   5.123   5.557 -0.6478 -0.9238  0.1795
 7825TIP3    H144966   3.420   5.126   5.649 -2.6410  1.5940  0.7290
 7825TIP3    H244967   3.476   5.099   5.511  0.7512 -0.7834  2.4220
 7826TIP3   OH244968   6.549   1.101  12.071 -0.2045 -0.3161 -0.5928
 7826TIP3    H144969   6.527   1.091  12.163  3.5608 -0.2811  0.4805
 7826TIP3    H244970   6.578   1.014  12.043 -2.3535 -0.6183 -2.1920
 7827TIP3   OH244971   2.989   3.889  14.852  0.8406  0.0771 -0.2039
 7827TIP3    H144972   2.900   3.923  14.846  0.6070 -0.5279 -0.2325
 7827TIP3    H244973   3.033   3.921  14.774  0.4734 -0.1144 -0.4933
 7828TIP3   OH244974   5.280   3.210  17.294 -0.0130  0.4188 -0.5074
 7828TIP3    H144975   5.262   3.301  17.271  1.4327  0.9140  0.1920
 7828TIP3    H244976   5.214   3.187  17.359  1.5627  2.0956  1.8269
 7829TIP3   OH244977   3.792   1.514   1.236 -0.8080  0.2008 -0.5251
 7829TIP3    H144978   3.764   1.435   1.189  0.3019  0.4099 -1.5979
 7829TIP3    H244979   3.812   1.577   1.167  0.5448  0.6443  0.2234
 7830TIP3   OH244980   6.818   5.956  14.484  0.0968 -0.4226  0.2597
 7830TIP3    H144981   6.807   5.994  14.571 -0.5842  0.8549 -0.3553
 7830TIP3    H244982   6.739   5.980  14.437  1.1653  0.3648 -1.2333
 7831TIP3   OH244983   5.183   4.811   0.117 -0.3141 -0.2220  0.5657
 7831TIP3    H144984   5.160   4.862   0.194  0.2765  2.7654 -1.1099
 7831TIP3    H244985   5.110   4.826   0.056  0.0647 -1.0921 -0.1239
 7832TIP3   OH244986   1.101   2.718  12.037  0.2675  0.8623 -0.5452
 7832TIP3    H144987   1.045   2.760  11.972 -1.8968  0.1518  0.7811
 7832TIP3    H244988   1.129   2.789  12.095 -1.1377  0.9194  0.0931
 7833TIP3   OH244989   0.022   2.671   4.572 -0.5432 -0.3310 -0.0015
 7833TIP3    H144990   0.085   2.716   4.627  1.6028 -1.2597 -1.5489
 7833TIP3    H244991  -0.023   2.741   4.525 -1.9090  0.4317  2.2787
 7834TIP3   OH244992   0.813   2.343   1.269  0.3628  0.2431  0.2193
 7834TIP3    H144993   0.769   2.289   1.203 -0.1367 -0.0169  0.7552
 7834TIP3    H244994   0.833   2.425   1.224  0.5450 -0.1389 -0.4166
 7835TIP3   OH244995   4.887   0.443   3.809 -0.4962 -0.0289  0.0277
 7835TIP3    H144996   4.953   0.376   3.789  0.3076  0.7312  0.0902
 7835TIP3    H244997   4.833   0.403   3.877 -1.1843 -1.3284 -1.2241
 7836TIP3   OH244998   2.465   1.824   1.363  0.8125  0.5867  0.0510
 7836TIP3    H144999   2.400   1.862   1.421  0.8792 -3.1983  3.0987
 7836TIP3    H245000   2.415   1.773   1.300  0.8146  2.3181 -1.4137
 7837TIP3   OH245001   5.439   1.250  16.573 -0.7081  0.1967  0.1720
 7837TIP3    H145002   5.410   1.341  16.566 -2.0843 -0.2505 -0.1302
 7837TIP3    H245003   5.400   1.218  16.655 -0.2106 -0.1312  0.2904
 7838TIP3   OH245004   1.681   6.446  13.284  0.0158 -0.1215 -0.3464
 7838TIP3    H145005   1.682   6.501  13.362 -1.1685  0.7107 -0.8802
 7838TIP3    H245006   1.696   6.507  13.211 -0.5192 -0.6170 -0.8840
 7839TIP3   OH245007   1.538   4.832  17.243 -0.4166 -0.2740 -0.0558
 7839TIP3    H145008   1.568   4.786  17.166 -1.6825  0.4381 -1.0247
 7839TIP3    H245009   1.558   4.774  17.316  0.3355 -1.1858 -0.9700
 7840TIP3   OH245010   3.520   2.376  13.620 -0.3959 -0.4097 -0.1586
 7840TIP3    H145011   3.586   2.383  13.551  0.5503 -2.3058  0.4787
 7840TIP3    H245012   3.568   2.395  13.701 -0.9644 -0.4042  0.1783
 7841TIP3   OH245013   2.751   3.335  16.760 -0.4830 -0.2210 -0.0448
 7841TIP3    H145014   2.733   3.381  16.842  1.2499  1.3782 -0.4803
 7841TIP3    H245015   2.675   3.352  16.705 -1.5064 -1.0197  1.0798
 7842TIP3   OH245016   0.373   1.592   0.091  0.1382 -0.3834  0.1058
 7842TIP3    H145017   0.462   1.616   0.118  1.0146 -1.9609 -1.2195
 7842TIP3    H245018   0.349   1.521   0.151 -0.7439  0.8353  1.2435
 7843TIP3   OH245019   1.258   5.147  13.689 -0.3261 -0.4238 -0.0701
 7843TIP3    H145020   1.169   5.117  13.703 -0.7998  1.0563  0.2925
 7843TIP3    H245021   1.309   5.067  13.679 -1.6319 -1.3035  0.0352
 7844TIP3   OH245022   1.693   0.384   3.444 -0.2648  0.0660 -0.2100
 7844TIP3    H145023   1.640   0.315   3.405 -0.2988  0.5459 -1.0205
 7844TIP3    H245024   1.744   0.339   3.512  0.4522 -0.9532 -1.3876
 7845TIP3   OH245025   6.537   1.985   3.005  0.5751  0.5748  0.6010
 7845TIP3    H145026   6.445   2.004   2.990  0.6588 -0.3425 -1.3654
 7845TIP3    H245027   6.544   1.974   3.100 -1.2047  1.2230  0.8453
 7846TIP3   OH245028   0.213   1.994   2.837 -0.1859 -0.2692 -0.1002
 7846TIP3    H145029   0.125   1.975   2.869  0.4456 -1.1893  1.1609
 7846TIP3    H245030   0.214   1.961   2.747 -0.6390 -1.7437  0.4164
 7847TIP3   OH245031   1.246   6.654   2.476 -0.0676 -0.1801  0.3829
 7847TIP3    H145032   1.172   6.688   2.425  0.4727 -0.0278 -0.3122
 7847TIP3    H245033   1.314   6.720   2.465  0.1695 -0.3067  1.0460
 7848TIP3   OH245034   2.814   2.536  16.221 -0.0121 -0.5489 -0.0404
 7848TIP3    H145035   2.858   2.478  16.284 -1.4455  0.7436  2.3156
 7848TIP3    H245036   2.736   2.488  16.194 -2.0544  0.6799  3.1307
 7849TIP3   OH245037   4.390   6.533  15.857  0.7667  0.2184 -0.1203
 7849TIP3    H145038   4.385   6.517  15.952 -0.2968  0.3017 -0.1513
 7849TIP3    H245039   4.431   6.619  15.849 -0.4716  0.8703  0.3273
 7850TIP3   OH245040   4.410   1.797  12.125  0.1972 -0.9678  0.2536
 7850TIP3    H145041   4.418   1.888  12.151  1.6513 -0.6311 -1.1774
 7850TIP3    H245042   4.383   1.751  12.204  0.6461  0.5153  1.3062
 7851TIP3   OH245043   5.974   1.860   5.614  0.5216 -1.1202  0.2885
 7851TIP3    H145044   5.955   1.932   5.674  0.7998  0.3031 -1.2925
 7851TIP3    H245045   5.903   1.862   5.550  0.5380 -2.2555  0.2129
 7852TIP3   OH245046   2.622   1.847  14.761 -0.1448  0.2005  0.3773
 7852TIP3    H145047   2.658   1.760  14.741  0.5004  0.1156  1.7512
 7852TIP3    H245048   2.643   1.900  14.685 -2.4850 -1.3557 -1.4883
 7853TIP3   OH245049   4.453   6.426  14.102 -0.4493  0.7838 -0.1478
 7853TIP3    H145050   4.513   6.477  14.046 -1.2343 -1.1180 -2.9428
 7853TIP3    H245051   4.366   6.448  14.070 -0.8343 -1.7940 -1.1433
 7854TIP3   OH245052   0.760   3.867   4.869 -0.5913  0.7337  0.2384
 7854TIP3    H145053   0.792   3.846   4.781 -0.6735  0.0352  0.3698
 7854TIP3    H245054   0.836   3.906   4.913 -0.3202  0.3665  0.1038
 7855TIP3   OH245055   5.382   3.911   5.039 -0.1337 -0.2203 -0.0105
 7855TIP3    H145056   5.415   3.879   5.123 -1.7808 -0.8164  0.4490
 7855TIP3    H245057   5.455   3.962   5.003  0.9185 -0.6707  1.3658
 7856TIP3   OH245058   5.399   6.615   3.690 -0.5540 -0.0366  0.2435
 7856TIP3    H145059   5.462   6.634   3.759 -1.2695  1.8558  0.4173
 7856TIP3    H245060   5.324   6.577   3.735 -0.1370 -0.9507  0.2006
 7857TIP3   OH245061   3.456   2.035   5.875  0.2680 -0.2234  0.4308
 7857TIP3    H145062   3.422   1.946   5.878 -0.5926  0.1075  0.8688
 7857TIP3    H245063   3.424   2.075   5.956  1.2663  0.2691  0.6025
 7858TIP3   OH245064   5.399   5.054  15.204 -0.3048  0.1319  0.1474
 7858TIP3    H145065   5.304   5.065  15.197 -0.3304  0.1287  0.4775
 7858TIP3    H245066   5.415   5.042  15.298 -0.0274 -0.3373  0.0438
 7859TIP3   OH245067   3.222   5.196  10.847  0.8401  0.2034  0.1214
 7859TIP3    H145068   3.137   5.217  10.887  1.2646  0.2688  1.0096
 7859TIP3    H245069   3.201   5.175  10.756  0.0356  1.6116 -0.0465
 7860TIP3   OH245070   2.590   5.859  13.866  0.4504  0.5554  0.7390
 7860TIP3    H145071   2.609   5.782  13.919  0.2696 -0.1971 -0.2483
 7860TIP3    H245072   2.548   5.823  13.787 -0.8635  1.7700  0.8523
 7861TIP3   OH245073   3.804   2.870   2.713  0.3254 -0.1554 -0.7453
 7861TIP3    H145074   3.850   2.952   2.730 -1.6624  0.9916 -0.5895
 7861TIP3    H245075   3.810   2.858   2.618 -0.7961  1.0938 -0.9947
 7862TIP3   OH245076   6.021   6.541  13.471  0.1504 -0.0333  0.0705
 7862TIP3    H145077   5.943   6.488  13.487 -1.9197  2.4709 -1.0508
 7862TIP3    H245078   6.065   6.546  13.556 -1.3541 -0.8102  0.9326
 7863TIP3   OH245079   5.876   0.016   1.904  0.7472  0.0900  0.0055
 7863TIP3    H145080   5.938   0.071   1.953  1.3858 -0.5132 -0.1055
 7863TIP3    H245081   5.861   0.064   1.822  0.3652  0.6717  0.4069
 7864TIP3   OH245082   0.651   0.221   6.541  0.2069 -0.3406  0.3890
 7864TIP3    H145083   0.611   0.137   6.519 -1.3943 -0.4588  3.3313
 7864TIP3    H245084   0.608   0.284   6.483  0.1083 -1.2814 -0.5869
 7865TIP3   OH245085   3.634   2.525  14.655  0.0245  0.1459 -0.1718
 7865TIP3    H145086   3.696   2.489  14.718 -0.1772  1.5949  0.9253
 7865TIP3    H245087   3.568   2.569  14.709 -1.4743 -0.5764 -1.3368
 7866TIP3   OH245088   2.728   2.842  12.839  0.5806 -0.2049  0.2229
 7866TIP3    H145089   2.747   2.935  12.851 -1.9242  0.3401  0.5822
 7866TIP3    H245090   2.679   2.818  12.918 -0.9014 -1.1724 -0.9420
 7867TIP3   OH245091   4.625   3.445   2.707 -0.0291 -0.2057  0.5520
 7867TIP3    H145092   4.629   3.489   2.792  0.0295  0.4872  0.1948
 7867TIP3    H245093   4.611   3.353   2.729 -0.7506  0.0680  1.2977
 7868TIP3   OH245094   0.406   0.142   2.667 -0.0406  0.0959  0.3500
 7868TIP3    H145095   0.485   0.093   2.692  0.3314  0.2261 -0.5444
 7868TIP3    H245096   0.373   0.096   2.590 -0.2377  0.6694  0.0866
 7869TIP3   OH245097   4.007   3.056   1.064  0.8923  0.2261  0.1007
 7869TIP3    H145098   4.052   2.973   1.082  2.9204  0.6233 -2.4109
 7869TIP3    H245099   4.049   3.119   1.122  0.9769 -0.0798  0.3786
 7870TIP3   OH245100   4.502   3.058  11.936  0.0959 -0.0051  0.2202
 7870TIP3    H145101   4.546   2.999  11.998  0.1184  0.8480  1.0334
 7870TIP3    H245102   4.410   3.057  11.964  0.4304  1.9463  1.5925
 7871TIP3   OH245103   0.088   4.482  15.687  0.4412  0.4860 -0.3436
 7871TIP3    H145104   0.177   4.467  15.717  0.4850  1.1040 -0.1526
 7871TIP3    H245105   0.033   4.439  15.754  0.5755  0.6560 -0.1237
 7872TIP3   OH245106   1.487   4.984  12.276  0.2219 -0.0333  0.0481
 7872TIP3    H145107   1.557   4.944  12.328  1.4405  0.1651 -1.3649
 7872TIP3    H245108   1.439   4.909  12.240  0.1668 -0.1803  0.4224
 7873TIP3   OH245109   0.838   0.484  16.789 -0.3734  0.2789 -0.6198
 7873TIP3    H145110   0.753   0.442  16.775 -0.3358  0.2298 -0.7043
 7873TIP3    H245111   0.898   0.435  16.732 -0.3152  0.4005 -0.6635
 7874TIP3   OH245112   5.729   0.334   2.633  0.1043  0.0988  0.3586
 7874TIP3    H145113   5.660   0.369   2.690 -0.5135 -1.2163  0.4586
 7874TIP3    H245114   5.744   0.403   2.569  0.3722  1.3550  1.7244
 7875TIP3   OH245115   3.438   5.665   3.298 -0.5852  0.1802 -0.3720
 7875TIP3    H145116   3.462   5.737   3.241 -1.8157  0.5663 -0.4414
 7875TIP3    H245117   3.477   5.687   3.382  0.9690 -0.2334 -0.9626
 7876TIP3   OH245118   0.800   0.528   1.089  0.3690  0.3154  0.0158
 7876TIP3    H145119   0.869   0.489   1.035  1.2548  1.4858  0.2480
 7876TIP3    H245120   0.754   0.587   1.030 -1.0202 -1.0791 -0.3571
 7877TIP3   OH245121   2.537   5.524   5.406 -0.0178  0.0274  0.3588
 7877TIP3    H145122   2.491   5.604   5.380  2.2281  1.6290  1.0792
 7877TIP3    H245123   2.497   5.456   5.351 -0.7021  1.9422 -1.7031
 7878TIP3   OH245124   3.685   4.571  15.342  0.3733  0.6557  0.4077
 7878TIP3    H145125   3.689   4.550  15.249  3.0823 -2.0003  0.9519
 7878TIP3    H245126   3.653   4.661  15.346 -1.8428  0.1855 -2.9095
 7879TIP3   OH245127   3.219   5.014  13.869 -0.3169 -0.0433 -0.2410
 7879TIP3    H145128   3.294   5.057  13.827  0.8392 -0.8252  0.9173
 7879TIP3    H245129   3.198   5.071  13.943  0.8033 -1.0705  0.9184
 7880TIP3   OH245130   5.057   5.301  10.352 -0.3410 -0.5821  0.1298
 7880TIP3    H145131   5.038   5.362  10.281  1.6401 -0.0718 -0.0113
 7880TIP3    H245132   5.001   5.331  10.424  0.2557  1.1359 -0.0749
 7881TIP3   OH245133   1.563   0.062   6.150  0.2301 -0.0178 -1.2104
 7881TIP3    H145134   1.531   0.137   6.200 -1.4259 -0.2404 -1.8976
 7881TIP3    H245135   1.620   0.015   6.212 -0.8823  0.3261  0.1192
 7882TIP3   OH245136   6.251   2.837  13.825 -0.1174  0.5795 -0.3340
 7882TIP3    H145137   6.321   2.902  13.816 -0.9884  1.4664 -0.9909
 7882TIP3    H245138   6.229   2.839  13.918  0.4582  0.5778 -0.1920
 7883TIP3   OH245139   4.374   4.442  13.746 -0.4741  0.0590  0.4674
 7883TIP3    H145140   4.339   4.353  13.751  1.6621 -0.8410  0.8597
 7883TIP3    H245141   4.469   4.429  13.742 -0.1011  2.3490  0.8482
 7884TIP3   OH245142   5.560   0.723   1.682  0.1407  0.5159 -0.2786
 7884TIP3    H145143   5.466   0.726   1.701  0.1293 -0.1885 -0.2077
 7884TIP3    H245144   5.590   0.813   1.698  0.0690  0.1302  2.7469
 7885TIP3   OH245145   5.483   4.281  12.399 -0.2092  0.6341  0.2633
 7885TIP3    H145146   5.455   4.351  12.459 -1.4246  1.7054 -1.4567
 7885TIP3    H245147   5.401   4.242  12.368  0.3631  0.3838 -0.9952
 7886TIP3   OH245148   1.275   4.663  12.456 -0.6127  0.1950  0.5853
 7886TIP3    H145149   1.253   4.750  12.424  1.3017 -0.2525 -2.3207
 7886TIP3    H245150   1.317   4.678  12.541 -0.0500  2.1427  0.0069
 7887TIP3   OH245151   2.970   6.489   4.083  0.2371 -0.2872 -0.4319
 7887TIP3    H145152   3.033   6.558   4.100  1.2257 -1.1405 -0.5273
 7887TIP3    H245153   2.901   6.503   4.149  1.0715 -0.0002  0.4101
 7888TIP3   OH245154   3.466   6.695  16.618 -0.4740 -0.4228 -0.5755
 7888TIP3    H145155   3.547   6.743  16.633 -0.7689 -0.3014  0.7829
 7888TIP3    H245156   3.482   6.643  16.539  1.2752 -1.1903  0.2584
 7889TIP3   OH245157   2.153   0.501  12.858 -0.1629 -0.0219 -0.4442
 7889TIP3    H145158   2.174   0.586  12.897 -0.4216  0.2358 -0.8617
 7889TIP3    H245159   2.161   0.515  12.764 -0.7560 -0.3138 -0.5414
 7890TIP3   OH245160   2.696   3.967   3.648 -0.2539  0.1394  0.0604
 7890TIP3    H145161   2.747   3.928   3.719 -1.0761  1.2285  1.2870
 7890TIP3    H245162   2.629   3.902   3.628  1.3759 -1.1934 -1.3875
 7891TIP3   OH245163   4.063   3.977   5.111  0.2647  0.0912 -0.3054
 7891TIP3    H145164   4.017   4.056   5.082 -1.4020 -0.2555  1.2533
 7891TIP3    H245165   4.037   3.910   5.048  1.1329  0.5698 -1.2218
 7892TIP3   OH245166   4.087   3.234   1.242  0.0946 -0.0521 -0.0752
 7892TIP3    H145167   4.048   3.318   1.216 -0.7672  0.0021  1.2827
 7892TIP3    H245168   4.085   3.236   1.338 -1.4554 -2.2911  0.0260
 7893TIP3   OH245169   6.480   5.962  13.959 -0.2283 -0.9568 -0.2221
 7893TIP3    H145170   6.544   6.025  13.991 -1.2974 -0.7308  1.6259
 7893TIP3    H245171   6.530   5.904  13.902  1.2384  0.2167 -0.1984
 7894TIP3   OH245172   1.421   1.413  11.098  0.0881  0.5070 -0.0858
 7894TIP3    H145173   1.446   1.333  11.052 -0.7134  0.8394 -1.1367
 7894TIP3    H245174   1.373   1.383  11.175 -0.9498 -0.0214 -0.9207
 7895TIP3   OH245175   3.187   1.549  16.928 -0.4332 -0.6219 -0.5803
 7895TIP3    H145176   3.232   1.537  16.844 -0.4297  1.0999 -0.8658
 7895TIP3    H245177   3.193   1.643  16.944 -3.2506 -0.4269 -0.2312
 7896TIP3   OH245178   5.072   6.212  14.727  0.3244 -1.0538  0.0593
 7896TIP3    H145179   5.118   6.134  14.758  0.7801  0.1702  2.6763
 7896TIP3    H245180   4.979   6.192  14.741  0.4768 -0.8813  1.4547
 7897TIP3   OH245181   2.202   4.479   0.916  0.0329 -0.3291  0.2569
 7897TIP3    H145182   2.199   4.551   0.853  1.2378 -0.1192  0.4228
 7897TIP3    H245183   2.132   4.500   0.979  0.5500  0.8524  0.4634
 7898TIP3   OH245184   6.735   3.562  12.316  0.4190 -0.5503 -0.1203
 7898TIP3    H145185   6.801   3.588  12.252 -0.4776  2.1653 -0.0447
 7898TIP3    H245186   6.763   3.603  12.398 -1.6190  1.2120 -0.2303
 7899TIP3   OH245187   1.808   4.843  14.518 -0.5150  0.0681 -0.0330
 7899TIP3    H145188   1.756   4.918  14.544 -0.6494  0.0803 -0.3354
 7899TIP3    H245189   1.773   4.817  14.433 -0.8853 -0.7243  0.3524
 7900TIP3   OH245190   0.800   6.746  17.257 -0.7514 -0.0743 -0.4802
 7900TIP3    H145191   0.730   6.689  17.225  0.7511 -1.2431 -1.8532
 7900TIP3    H245192   0.856   6.688  17.310 -2.4504  1.5122  3.4321
 7901TIP3   OH245193   5.138   1.229   2.096 -0.2946 -0.6583 -1.0660
 7901TIP3    H145194   5.210   1.197   2.042  0.7717  1.4181 -0.9695
 7901TIP3    H245195   5.079   1.271   2.033  0.0336  0.1504 -0.8441
 7902TIP3   OH245196   6.286   0.102   0.128 -0.3880  0.2974 -0.4505
 7902TIP3    H145197   6.297   0.048   0.206  0.4644  0.0716 -0.7181
 7902TIP3    H245198   6.274   0.040   0.057  1.4898  0.3928 -0.8997
 7903TIP3   OH245199   5.843   4.881  12.175  0.7612 -0.0213 -0.5860
 7903TIP3    H145200   5.828   4.815  12.242  0.1687 -1.5553 -2.1535
 7903TIP3    H245201   5.914   4.935  12.210  0.7462 -1.0066  1.0737
 7904TIP3   OH245202   5.467   2.345   6.185  0.2784  0.0634  0.3366
 7904TIP3    H145203   5.448   2.411   6.252 -0.9212  0.0041  0.0845
 7904TIP3    H245204   5.387   2.293   6.179 -0.0051  0.6523 -1.7910
 7905TIP3   OH245205   6.398   6.801   5.675 -0.1569 -0.1036 -0.2163
 7905TIP3    H145206   6.381   6.816   5.768  1.3807  0.0680  0.0654
 7905TIP3    H245207   6.482   6.754   5.673  1.3186  2.3582 -1.5579
 7906TIP3   OH245208   6.420   4.452   5.445 -1.0258 -0.3373  0.4378
 7906TIP3    H145209   6.424   4.540   5.409 -1.4977 -0.1999  0.7080
 7906TIP3    H245210   6.495   4.406   5.407 -0.9184  0.1098  0.1111
 7907TIP3   OH245211   5.205   1.910  11.278 -0.0828  0.0373 -0.0341
 7907TIP3    H145212   5.116   1.940  11.295  0.1848  0.4818  0.6529
 7907TIP3    H245213   5.258   1.990  11.284  0.2679 -0.0961 -1.1933
 7908TIP3   OH245214   6.626   1.571   1.110  0.0864 -0.2809 -0.0611
 7908TIP3    H145215   6.606   1.647   1.165  0.1292  0.4414 -1.0234
 7908TIP3    H245216   6.694   1.602   1.050 -0.0009 -1.0380 -0.5616
 7909TIP3   OH245217   2.637   5.807   4.332 -0.5990 -0.1094 -0.3062
 7909TIP3    H145218   2.659   5.781   4.243  0.2322  1.0635 -0.4608
 7909TIP3    H245219   2.559   5.756   4.353 -0.9886 -0.1773 -1.8132
 7910TIP3   OH245220   0.574   1.378  11.835  0.0110 -0.1493  0.7759
 7910TIP3    H145221   0.669   1.386  11.831  0.0660 -0.7866  0.7487
 7910TIP3    H245222   0.545   1.457  11.882  0.6036 -0.2505  1.3182
 7911TIP3   OH245223   6.612   6.514  12.422  0.1054  0.3077 -0.1959
 7911TIP3    H145224   6.692   6.467  12.447 -1.8064 -4.2827 -1.6366
 7911TIP3    H245225   6.617   6.519  12.326 -0.2460  2.4148 -0.1556
 7912TIP3   OH245226   3.166   4.034   5.891 -0.1760  0.6978  0.6985
 7912TIP3    H145227   3.205   3.950   5.915 -0.5603  0.3817  0.2556
 7912TIP3    H245228   3.073   4.023   5.913 -0.8331 -0.1124 -2.0903
 7913TIP3   OH245229   6.528   1.077  13.178  0.2566 -0.2906  0.2411
 7913TIP3    H145230   6.581   1.116  13.109 -0.6706  1.6665  0.5659
 7913TIP3    H245231   6.585   1.077  13.255  0.9387 -1.5239 -0.2281
 7914TIP3   OH245232   0.831   1.375  13.983 -0.0379 -0.1811  0.3619
 7914TIP3    H145233   0.792   1.437  13.921 -0.0082 -0.8465 -0.3445
 7914TIP3    H245234   0.872   1.430  14.050  0.1880  0.5654 -0.3719
 7915TIP3   OH245235   3.472   3.282   3.270  0.0884 -0.1718  0.5265
 7915TIP3    H145236   3.458   3.377   3.269 -0.3140 -0.2332 -0.1604
 7915TIP3    H245237   3.554   3.269   3.223 -0.5883 -0.2651 -0.6678
 7916TIP3   OH245238   0.302   6.314   4.486  0.3956 -0.8369 -0.6407
 7916TIP3    H145239   0.225   6.370   4.478  0.1902 -0.9101  0.6255
 7916TIP3    H245240   0.267   6.229   4.514  0.9859 -0.6135  0.8801
 7917TIP3   OH245241   0.540   3.306  15.966  0.2062 -0.2962 -0.1153
 7917TIP3    H145242   0.604   3.360  15.920 -0.3946  0.4928 -0.0479
 7917TIP3    H245243   0.491   3.262  15.897 -0.2626  0.3805 -0.2224
 7918TIP3   OH245244   5.390   5.985  16.059  0.0678 -0.3938  0.4616
 7918TIP3    H145245   5.353   6.068  16.089 -1.0219 -0.7700  0.1889
 7918TIP3    H245246   5.342   5.918  16.108 -2.1989 -1.0649 -2.4573
 7919TIP3   OH245247   3.747   6.704  16.766  0.1096  0.1147 -0.5720
 7919TIP3    H145248   3.817   6.653  16.808 -1.4529 -1.5895  0.0833
 7919TIP3    H245249   3.752   6.790  16.807  1.7860  0.0185 -0.5045
 7920TIP3   OH245250   3.630   6.217  14.551 -0.1002 -0.1894  0.0731
 7920TIP3    H145251   3.546   6.254  14.523 -1.1135 -1.7288  0.9411
 7920TIP3    H245252   3.634   6.237  14.645  0.2223 -0.6474  0.1581
 7921TIP3   OH245253   5.736   0.809  16.434 -0.0844 -1.0913  0.5512
 7921TIP3    H145254   5.815   0.811  16.380  0.2875  0.2325  1.0972
 7921TIP3    H245255   5.742   0.888  16.488 -1.5623 -1.1984  0.9186
 7922TIP3   OH245256   2.023   4.888  13.758  0.3024  0.5596  0.2215
 7922TIP3    H145257   2.007   4.935  13.677  0.5809 -0.9289 -0.7516
 7922TIP3    H245258   2.100   4.930  13.796 -0.0814  1.5342 -0.0576
 7923TIP3   OH245259   1.574   2.353   3.935  0.1913 -0.1007 -0.4609
 7923TIP3    H145260   1.528   2.270   3.928  0.2273 -0.5045  2.6178
 7923TIP3    H245261   1.666   2.331   3.916 -0.0428 -0.4064 -1.2664
 7924TIP3   OH245262   0.331   1.000   2.720  0.7202  0.8332  0.2951
 7924TIP3    H145263   0.276   0.942   2.668 -0.9473 -0.3010  3.1191
 7924TIP3    H245264   0.421   0.976   2.697  0.0622 -1.9601  0.3828
 7925TIP3   OH245265   6.076   4.180  10.423 -0.3416 -0.3197 -0.4384
 7925TIP3    H145266   6.164   4.179  10.461 -0.4563 -0.0503 -0.1581
 7925TIP3    H245267   6.083   4.241  10.349 -0.8445  1.5866  0.9886
 7926TIP3   OH245268   4.424   0.038   4.289  0.3557 -0.2586 -0.2167
 7926TIP3    H145269   4.456   0.038   4.199 -1.0921  1.0841 -0.7815
 7926TIP3    H245270   4.492   0.083   4.339  1.2419 -1.1527 -0.5724
 7927TIP3   OH245271   0.521   0.785   5.011 -1.0594  0.3651  0.0729
 7927TIP3    H145272   0.548   0.738   4.932 -0.6774 -0.0971  0.4755
 7927TIP3    H245273   0.552   0.874   4.997  1.7326 -0.3599  0.9820
 7928TIP3   OH245274   5.490   0.466  14.263  0.1710 -0.5237  0.3224
 7928TIP3    H145275   5.423   0.478  14.195 -0.2952 -0.0913  0.8395
 7928TIP3    H245276   5.526   0.554  14.277  1.4391 -0.8852 -0.5215
 7929TIP3   OH245277   1.625   4.576   1.563  0.7445  0.4341 -0.1395
 7929TIP3    H145278   1.609   4.495   1.514  0.7272  0.7010 -0.5760
 7929TIP3    H245279   1.539   4.616   1.571  0.4115 -0.5370  1.7800
 7930TIP3   OH245280   6.073   0.243  16.951  0.0599  0.1293  0.6946
 7930TIP3    H145281   6.152   0.279  16.991 -0.9684  1.3247  1.7589
 7930TIP3    H245282   6.045   0.310  16.888 -1.7348  1.2296  2.5149
 7931TIP3   OH245283   2.390   1.666  16.571 -0.0562 -0.0307 -0.7009
 7931TIP3    H145284   2.349   1.738  16.619 -1.9319 -0.9574 -0.7894
 7931TIP3    H245285   2.412   1.602  16.639 -0.0724 -0.1387 -0.7976
 7932TIP3   OH245286   0.272   1.697   1.398  0.7158  0.5290 -0.8409
 7932TIP3    H145287   0.206   1.657   1.341 -0.0182  1.1953 -0.4623
 7932TIP3    H245288   0.341   1.630   1.404 -1.0605 -1.2677  0.8619
 7933TIP3   OH245289   0.607   4.184   4.596 -0.5026 -0.0806 -0.0362
 7933TIP3    H145290   0.603   4.279   4.583 -1.2951 -0.0043  0.6854
 7933TIP3    H245291   0.682   4.171   4.653 -1.0421  0.2232  0.7514
 7934TIP3   OH245292   5.344   1.386  15.259  0.1700 -0.0408  0.2612
 7934TIP3    H145293   5.305   1.464  15.217  0.7356  0.0654 -0.0775
 7934TIP3    H245294   5.339   1.404  15.352  1.4600  0.9933  0.1598
 7935TIP3   OH245295   2.889   3.225  16.232 -0.0315 -0.6983 -0.0738
 7935TIP3    H145296   2.833   3.251  16.305 -0.1915 -3.8911  1.0634
 7935TIP3    H245297   2.974   3.264  16.252 -0.3572 -0.6181  1.2510
 7936TIP3   OH245298   3.042   4.363   4.714 -0.1783 -0.4989  0.3395
 7936TIP3    H145299   2.969   4.419   4.741 -1.4088 -1.6417 -0.4785
 7936TIP3    H245300   3.091   4.347   4.794 -0.7498  0.3869  0.8896
 7937TIP3   OH245301   6.649   4.412   1.907  0.3189 -0.1534  0.2462
 7937TIP3    H145302   6.654   4.490   1.851 -0.2379  0.4856  1.0544
 7937TIP3    H245303   6.646   4.339   1.846  1.0420  0.4381 -0.5324
 7938TIP3   OH245304   0.500   1.655   2.178  0.0243 -0.1170 -0.8715
 7938TIP3    H145305   0.413   1.652   2.218 -0.4948  0.0601 -1.9588
 7938TIP3    H245306   0.532   1.743   2.197 -0.4924  0.1913 -1.3939
 7939TIP3   OH245307   5.284   6.008   0.668  0.0585  0.4956  0.2766
 7939TIP3    H145308   5.364   6.036   0.710 -0.5237  2.5367  0.1123
 7939TIP3    H245309   5.267   6.074   0.601  0.1103 -1.7931 -2.1480
 7940TIP3   OH245310   2.373   4.504  12.176  0.4557  0.2294  0.4606
 7940TIP3    H145311   2.455   4.550  12.194  1.3943 -0.5927 -1.3582
 7940TIP3    H245312   2.305   4.570  12.188  1.6916  1.9428 -1.3323
 7941TIP3   OH245313   3.521   3.442   4.848 -0.6474  0.3011 -0.6723
 7941TIP3    H145314   3.485   3.506   4.909 -0.1437 -1.0847  1.1658
 7941TIP3    H245315   3.612   3.468   4.837 -0.7371  0.5492 -0.8517
 7942TIP3   OH245316   3.644   4.441   3.010  0.0923  0.0696  0.1843
 7942TIP3    H145317   3.610   4.478   2.929  0.9368  0.5177  0.0275
 7942TIP3    H245318   3.574   4.384   3.042 -0.5088  0.4149 -0.5045
 7943TIP3   OH245319   3.112   5.755   6.117  0.4405  0.1879  0.3823
 7943TIP3    H145320   3.177   5.720   6.056 -1.2501 -0.1412 -1.3250
 7943TIP3    H245321   3.111   5.849   6.099  0.9639  0.3042  0.9433
 7944TIP3   OH245322   4.984   4.765   0.888  0.4076  0.0356  0.0206
 7944TIP3    H145323   4.979   4.792   0.796 -1.7224  2.5204  0.7575
 7944TIP3    H245324   4.987   4.847   0.937  2.8702 -1.2139  2.2148
 7945TIP3   OH245325   2.590   3.328   4.275 -0.5323 -0.3496 -0.4762
 7945TIP3    H145326   2.523   3.271   4.313  0.2680  0.1673  1.8898
 7945TIP3    H245327   2.578   3.412   4.319  0.9612  0.0730 -0.8170
 7946TIP3   OH245328   1.414   1.666  15.357 -0.3128  0.3801 -0.1078
 7946TIP3    H145329   1.321   1.649  15.373  0.1475 -1.3689  0.9821
 7946TIP3    H245330   1.430   1.631  15.270 -0.4461 -0.4140  0.1737
 7947TIP3   OH245331   5.887   4.458  16.326 -0.1585  0.3644  0.1654
 7947TIP3    H145332   5.858   4.542  16.362 -2.0857 -0.5036  0.7328
 7947TIP3    H245333   5.807   4.409  16.311  0.8579 -0.9232 -1.3581
 7948TIP3   OH245334   0.575   0.486   2.997 -0.4774 -0.1381 -0.6025
 7948TIP3    H145335   0.552   0.402   2.958  0.9179 -1.4116  1.1432
 7948TIP3    H245336   0.506   0.503   3.060  1.8240 -2.8521  3.0353
 7949TIP3   OH245337   1.652   2.449   5.729 -0.3029  0.3519  0.9371
 7949TIP3    H145338   1.576   2.421   5.679  0.2052  1.6527 -0.6579
 7949TIP3    H245339   1.619   2.462   5.818 -1.4013 -1.3069  0.8059
 7950TIP3   OH245340   1.201   4.977  15.994  0.2721 -0.2406  0.1964
 7950TIP3    H145341   1.239   4.901  15.949  1.3071  0.2588  0.2101
 7950TIP3    H245342   1.121   4.996  15.944  0.8090 -0.3892 -0.7471
 7951TIP3   OH245343   6.502   5.946   3.778  0.3975 -0.0721  0.1427
 7951TIP3    H145344   6.541   5.875   3.828  0.9422 -0.6471 -1.0569
 7951TIP3    H245345   6.447   5.993   3.841  1.4087 -0.4904  1.3639
 7952TIP3   OH245346   1.493   6.069   5.529 -0.2476 -0.3877 -0.0317
 7952TIP3    H145347   1.573   6.086   5.578 -0.2106 -2.0033  0.5393
 7952TIP3    H245348   1.450   6.154   5.522  0.4007  0.1162  1.6460
 7953TIP3   OH245349   5.519   4.156   4.225  0.3700  0.3651  0.0613
 7953TIP3    H145350   5.442   4.208   4.202 -0.7470 -1.4458 -0.4795
 7953TIP3    H245351   5.491   4.065   4.216  2.4110 -0.3662  0.4162
 7954TIP3   OH245352   5.749   4.619  14.015  0.2041 -0.2570 -0.4355
 7954TIP3    H145353   5.776   4.665  14.094  0.9694  0.3511 -1.0288
 7954TIP3    H245354   5.736   4.528  14.042  0.3383 -0.0291  0.4053
 7955TIP3   OH245355   6.156   0.203  13.955 -0.2697  0.2665 -0.4094
 7955TIP3    H145356   6.233   0.240  13.999 -1.3818 -1.1874  3.1182
 7955TIP3    H245357   6.089   0.271  13.963 -0.2099  0.3810 -0.8268
 7956TIP3   OH245358   5.097   6.522   6.593  0.3568  0.0797 -0.0784
 7956TIP3    H145359   5.083   6.614   6.617 -0.1510  0.2657 -1.0495
 7956TIP3    H245360   5.176   6.523   6.539 -0.1456  0.0846 -0.8309
 7957TIP3   OH245361   1.596   0.515   1.313  0.1664  0.1068  0.0625
 7957TIP3    H145362   1.504   0.523   1.287  0.3492  1.1751 -0.2641
 7957TIP3    H245363   1.629   0.440   1.263 -0.2060  0.4668 -0.7359
 7958TIP3   OH245364   6.656   0.549  16.102 -0.0498  0.3950 -0.4220
 7958TIP3    H145365   6.732   0.501  16.069 -0.0715  0.0478  0.0155
 7958TIP3    H245366   6.598   0.558  16.026 -0.0814 -0.3544 -0.4947
 7959TIP3   OH245367   1.638   5.607  17.255 -0.0505  0.2520  0.2161
 7959TIP3    H145368   1.637   5.696  17.220 -2.5958  0.7775  1.3756
 7959TIP3    H245369   1.676   5.616  17.342  1.8575 -0.2414 -0.5279
 7960TIP3   OH245370   2.072   0.743  11.204  0.0885 -0.3685  0.1702
 7960TIP3    H145371   2.078   0.732  11.109  2.0215 -1.5609  0.3582
 7960TIP3    H245372   2.114   0.828  11.221 -1.8136  0.6747 -0.1409
 7961TIP3   OH245373   5.416   6.488   2.359  0.8770 -0.6275 -0.2857
 7961TIP3    H145374   5.347   6.542   2.320  1.2632 -1.3725 -2.1098
 7961TIP3    H245375   5.498   6.530   2.332  1.1847 -0.0935  1.3587
 7962TIP3   OH245376   1.913   2.160  15.509 -0.0608 -0.1046  0.0258
 7962TIP3    H145377   1.889   2.188  15.420  1.5938  1.5523  0.0391
 7962TIP3    H245378   1.983   2.097  15.496  0.8323  0.8425  0.1507
 7963TIP3   OH245379   5.145   0.184   0.449 -0.1294  0.0915  0.0622
 7963TIP3    H145380   5.159   0.270   0.408  0.5079  0.5546  1.2038
 7963TIP3    H245381   5.233   0.153   0.469 -0.2598 -1.5130 -1.6274
 7964TIP3   OH245382   6.686   5.910   5.510  0.5122  0.3607 -1.1916
 7964TIP3    H145383   6.623   5.910   5.438  0.7724 -0.3998 -1.4281
 7964TIP3    H245384   6.631   5.904   5.589  0.2836 -0.9240 -1.4206
 7965TIP3   OH245385   5.575   3.673   1.808  0.2355  0.9645 -0.2695
 7965TIP3    H145386   5.479   3.671   1.812  0.2669 -1.1430  2.2028
 7965TIP3    H245387   5.597   3.606   1.743 -0.0229 -0.5072  1.0904
 7966TIP3   OH245388   6.625   3.397   1.497  0.0387  0.2154 -0.1479
 7966TIP3    H145389   6.700   3.374   1.441 -0.7566 -0.9844 -0.7807
 7966TIP3    H245390   6.555   3.338   1.468 -0.9628  0.8630  0.8662
 7967TIP3   OH245391   0.297   0.502  13.493 -0.1957 -0.4442 -0.3761
 7967TIP3    H145392   0.341   0.418  13.478  0.3701 -0.0542 -0.9223
 7967TIP3    H245393   0.206   0.478  13.511  0.0492 -1.2017 -0.1074
 7968TIP3   OH245394   1.392   1.166  10.931 -0.4576 -0.1622  0.2022
 7968TIP3    H145395   1.462   1.140  10.871 -1.0081  2.3492 -1.7279
 7968TIP3    H245396   1.319   1.109  10.907 -0.1687 -0.3014 -0.3895
 7969TIP3   OH245397   5.875   1.918   3.919 -0.2537 -0.5340  0.6676
 7969TIP3    H145398   5.849   1.988   3.858  0.0447 -1.5081 -0.6166
 7969TIP3    H245399   5.896   1.964   4.000 -0.5323  0.8229  0.0026
 7970TIP3   OH245400   2.827   3.975  12.104  0.1474  0.3000  0.1419
 7970TIP3    H145401   2.886   3.905  12.076  1.8041  1.1557  1.2843
 7970TIP3    H245402   2.837   4.044  12.038 -0.1844  0.1377 -0.0794
 7971TIP3   OH245403   1.113   0.742   4.192  0.0547  0.4631 -0.3749
 7971TIP3    H145404   1.125   0.657   4.150 -0.4181  0.3053 -0.1961
 7971TIP3    H245405   1.084   0.721   4.281 -0.8375  0.8208 -0.5795
 7972TIP3   OH245406   5.764   1.507   2.916 -0.0271 -0.2352 -0.1960
 7972TIP3    H145407   5.756   1.533   2.824  2.2865  0.9180 -0.1224
 7972TIP3    H245408   5.842   1.452   2.918 -0.4237 -0.7751  1.0115
 7973TIP3   OH245409   1.069   2.783   5.136  0.7429  0.4333 -0.5358
 7973TIP3    H145410   1.117   2.719   5.083 -0.4946  0.2893 -1.5258
 7973TIP3    H245411   1.058   2.858   5.077 -0.6352  0.2792 -0.4944
 7974TIP3   OH245412   0.484   0.745  13.262  0.4018 -0.3728  0.0947
 7974TIP3    H145413   0.399   0.738  13.218 -0.1949  0.9209  0.9545
 7974TIP3    H245414   0.470   0.811  13.330  1.3901 -2.0140  1.9939
 7975TIP3   OH245415   5.688   1.375  12.786  0.0128  0.0400 -0.1241
 7975TIP3    H145416   5.698   1.354  12.693  0.6373  1.6110 -0.4363
 7975TIP3    H245417   5.657   1.465  12.787  2.8403  1.1253  1.1945
 7976TIP3   OH245418   3.692   2.363   4.513  0.3263  0.6508  0.6335
 7976TIP3    H145419   3.716   2.445   4.469  0.7439  0.5218  0.6217
 7976TIP3    H245420   3.766   2.304   4.497 -0.6899 -0.2966 -0.7709
 7977TIP3   OH245421   5.714   2.801   2.192 -0.6590  0.7012  0.0507
 7977TIP3    H145422   5.805   2.786   2.218 -0.6375  1.3325  0.3588
 7977TIP3    H245423   5.674   2.715   2.194 -0.5632  0.6713  1.8454
 7978TIP3   OH245424   0.019   5.921  16.448  0.2663  0.3034 -0.3051
 7978TIP3    H145425   0.043   5.978  16.521  1.8792 -1.2122  0.4361
 7978TIP3    H245426  -0.065   5.883  16.473  0.4238  0.4055  0.3815
 7979TIP3   OH245427   3.072   4.731  16.148 -0.5202  0.3940  0.0588
 7979TIP3    H145428   3.110   4.702  16.065 -3.7861 -1.0062 -1.1441
 7979TIP3    H245429   3.032   4.816  16.128 -0.8993  0.2775  0.3016
 7980TIP3   OH245430   2.992   4.479  12.440  0.0739 -0.2430 -0.0512
 7980TIP3    H145431   2.987   4.437  12.354 -1.7925  2.3828 -1.3599
 7980TIP3    H245432   2.901   4.484  12.470  0.1388  2.6464  0.0123
 7981TIP3   OH245433   6.666   4.309   0.600 -0.0593  0.0190  0.7049
 7981TIP3    H145434   6.578   4.277   0.578 -0.0919  0.9633 -0.6551
 7981TIP3    H245435   6.709   4.234   0.641 -1.2144 -0.7280  0.6114
 7982TIP3   OH245436   2.214   0.513   1.110  0.0454 -0.2525  0.0746
 7982TIP3    H145437   2.123   0.506   1.138  0.6106  0.6585  2.2834
 7982TIP3    H245438   2.250   0.425   1.122 -0.5733 -0.6946 -1.1024
 7983TIP3   OH245439   0.412   2.187   3.710 -0.4696 -0.3267 -0.7291
 7983TIP3    H145440   0.503   2.204   3.685 -0.4639  0.5302 -0.1729
 7983TIP3    H245441   0.388   2.107   3.663  1.2193 -1.7246  0.6755
 7984TIP3   OH245442   0.409   2.012   3.049  0.0061 -0.0982  0.0105
 7984TIP3    H145443   0.344   2.007   2.980  0.9780  0.4322 -0.9710
 7984TIP3    H245444   0.382   1.946   3.113  1.0759 -3.2923 -2.5868
 7985TIP3   OH245445   5.597   6.326  12.506 -0.5366 -1.0264  0.2595
 7985TIP3    H145446   5.553   6.358  12.428  0.5851 -1.5385 -0.6232
 7985TIP3    H245447   5.663   6.393  12.526 -0.7506 -0.9457  0.7154
 7986TIP3   OH245448   3.815   6.477   2.760  0.4938  0.4166  0.0908
 7986TIP3    H145449   3.870   6.431   2.824 -0.2100  0.3898  0.6847
 7986TIP3    H245450   3.760   6.409   2.722  0.0671  0.6233  0.3321
 7987TIP3   OH245451   5.441   1.349   4.876  0.1161  0.2586  0.3315
 7987TIP3    H145452   5.410   1.262   4.851 -1.3234  1.5583 -2.9910
 7987TIP3    H245453   5.378   1.379   4.942 -1.5462  0.1028 -1.1240
 7988TIP3   OH245454   5.254   2.207  17.225  0.3444  0.3540 -0.2460
 7988TIP3    H145455   5.192   2.275  17.199 -1.0965 -1.4575 -1.8539
 7988TIP3    H245456   5.200   2.141  17.268  0.8790 -1.7028 -2.4976
 7989TIP3   OH245457   4.797   0.539  11.010  0.7993 -0.4458  0.5583
 7989TIP3    H145458   4.843   0.526  10.927 -1.7056 -2.3071 -0.6761
 7989TIP3    H245459   4.737   0.611  10.992  0.4961 -0.6219  0.8650
 7990TIP3   OH245460   2.830   1.831   3.857  0.4760 -0.2425  0.0200
 7990TIP3    H145461   2.888   1.757   3.874  0.4046 -0.1315  0.7639
 7990TIP3    H245462   2.850   1.857   3.767 -0.3636 -1.9332 -0.6844
 7991TIP3   OH245463   6.578   5.643   2.501  0.5489 -0.2589 -0.0449
 7991TIP3    H145464   6.614   5.626   2.588  1.5706  1.1845 -0.1672
 7991TIP3    H245465   6.495   5.688   2.518  1.6356  1.7552  0.2163
 7992TIP3   OH245466   1.089   2.728   4.705  0.0699 -0.1821  0.1640
 7992TIP3    H145467   1.128   2.724   4.793  0.6566 -1.2327 -0.1206
 7992TIP3    H245468   1.040   2.810   4.704 -0.7520 -0.6118  1.8001
 7993TIP3   OH245469   6.179   2.604   1.771 -0.6753  0.5066  0.7055
 7993TIP3    H145470   6.211   2.514   1.780 -0.7366  0.2174 -1.4151
 7993TIP3    H245471   6.258   2.656   1.754 -0.4954  1.1025  3.0107
 7994TIP3   OH245472   0.631   4.119   5.697 -0.2410 -0.1440  0.1112
 7994TIP3    H145473   0.604   4.158   5.781 -0.7392  0.3530 -0.2666
 7994TIP3    H245474   0.726   4.132   5.694 -0.5210  2.1817 -0.5328
 7995TIP3   OH245475   5.307   5.558  13.998 -0.0906 -0.6610 -0.3439
 7995TIP3    H145476   5.256   5.557  14.079  0.1743  1.9977 -0.0540
 7995TIP3    H245477   5.398   5.563  14.027 -0.0512  2.1719 -0.6624
 7996TIP3   OH245478   0.710   5.159  11.700  0.1548  0.1141 -0.2456
 7996TIP3    H145479   0.697   5.090  11.764 -2.2620  0.4204 -0.3240
 7996TIP3    H245480   0.682   5.120  11.617 -2.7668  1.5292 -0.0575
 7997TIP3   OH245481   4.295   0.888   5.778 -0.0673 -0.3522 -0.2047
 7997TIP3    H145482   4.263   0.804   5.813  0.5450 -1.2731 -1.7639
 7997TIP3    H245483   4.352   0.863   5.705  0.1978  1.4395 -0.6400
 7998TIP3   OH245484   1.608   2.209   5.044  0.1341 -0.1792  0.2525
 7998TIP3    H145485   1.540   2.146   5.068 -0.2664  0.1751  0.0555
 7998TIP3    H245486   1.645   2.237   5.127 -0.4697  0.1861  0.4018
 7999TIP3   OH245487   2.744   5.537   1.947 -0.3209 -0.2383  0.4000
 7999TIP3    H145488   2.671   5.595   1.968 -0.6475  0.4061 -2.1637
 7999TIP3    H245489   2.704   5.464   1.900  0.4109 -1.2533  1.2964
 8000TIP3   OH245490   3.244   4.452   1.841  0.1774  0.6742  0.0176
 8000TIP3    H145491   3.172   4.390   1.839  0.9869 -0.4649  2.4539
 8000TIP3    H245492   3.302   4.424   1.770 -1.6728  1.5825 -1.9425
 8001TIP3   OH245493   2.010   1.921   0.854 -0.2402  0.3307  0.2396
 8001TIP3    H145494   1.957   1.851   0.813  0.2257 -0.4640  0.9598
 8001TIP3    H245495   2.037   1.884   0.938 -0.3424  1.5593  0.8376
 8002TIP3   OH245496   6.303   5.509   1.548  0.7320  0.2357 -0.2500
 8002TIP3    H145497   6.263   5.489   1.463  1.0243  0.5827 -0.4724
 8002TIP3    H245498   6.324   5.602   1.543  0.0774  0.4274  0.4878
 8003TIP3   OH245499   3.686   5.271   2.218 -0.4643  0.0162 -0.0905
 8003TIP3    H145500   3.656   5.318   2.296 -1.1810 -0.3361 -0.1433
 8003TIP3    H245501   3.677   5.178   2.242  0.9559 -0.1216  0.0280
 8004TIP3   OH245502   6.073   4.463   5.998 -0.1268  0.2820 -0.3787
 8004TIP3    H145503   5.987   4.433   5.971 -0.7213  1.1320  0.4925
 8004TIP3    H245504   6.073   4.557   5.980  0.5738  0.3123 -0.2673
 8005TIP3   OH245505   5.721   1.410  14.714  0.2693  0.4123 -0.0861
 8005TIP3    H145506   5.736   1.423  14.807 -2.3712 -2.3722  0.9178
 8005TIP3    H245507   5.648   1.468  14.693 -0.6641 -0.6302  0.2118
 8006TIP3   OH245508   0.119   0.528   3.032  0.2154 -0.5520  0.4461
 8006TIP3    H145509   0.036   0.544   3.077 -0.7239 -0.8045 -1.1306
 8006TIP3    H245510   0.113   0.577   2.950  1.4647 -0.8819  0.1197
 8007TIP3   OH245511   5.911   0.585   3.843  0.3523  0.3563  0.4075
 8007TIP3    H145512   5.894   0.500   3.802  2.2247  1.4730 -3.1048
 8007TIP3    H245513   5.823   0.622   3.857 -0.4462 -1.3069  0.0944
 8008TIP3   OH245514   0.930   1.299  12.157  0.1484 -0.1218  0.0759
 8008TIP3    H145515   0.960   1.386  12.184 -0.1661 -0.0497  0.1990
 8008TIP3    H245516   0.928   1.248  12.238 -1.8647  0.4070  0.4178
 8009TIP3   OH245517   0.043   0.087   3.902  0.0831 -0.6132 -0.4240
 8009TIP3    H145518   0.068   0.119   3.815  2.2401 -2.8177 -0.7181
 8009TIP3    H245519  -0.023   0.020   3.885  0.2430 -0.7910 -0.3455
 8010TIP3   OH245520   4.896   5.953   2.175  0.7792 -0.5154 -0.7559
 8010TIP3    H145521   4.953   6.013   2.127  0.7764 -0.6721 -0.9574
 8010TIP3    H245522   4.955   5.891   2.217  0.9635  1.1483  1.6109
 8011TIP3   OH245523   0.301   2.139   0.158 -0.7296 -0.4563 -0.6707
 8011TIP3    H145524   0.310   2.131   0.253 -2.7826  0.2276 -0.3597
 8011TIP3    H245525   0.351   2.218   0.136  0.9573 -1.4101 -0.4138
 8012TIP3   OH245526   2.075   3.450   0.405  0.1328 -0.2634 -0.1426
 8012TIP3    H145527   2.107   3.540   0.393 -0.6164 -0.0545 -0.6917
 8012TIP3    H245528   2.058   3.443   0.499  1.0522 -0.1316  0.0373
 8013TIP3   OH245529   5.570   4.413  15.196  0.3234  0.3123  0.0740
 8013TIP3    H145530   5.641   4.453  15.246  1.2644 -0.7875 -0.3290
 8013TIP3    H245531   5.506   4.483  15.185  0.6793  0.9320  1.6926
 8014TIP3   OH245532   3.531   1.950   3.539 -0.6669 -0.4005 -0.5335
 8014TIP3    H145533   3.610   2.004   3.535 -1.1590  0.3704 -0.1643
 8014TIP3    H245534   3.519   1.918   3.450 -0.5247  0.3327 -0.8247
 8015TIP3   OH245535   6.084   3.277   0.726 -0.2704  0.2223 -0.3930
 8015TIP3    H145536   6.054   3.194   0.689  3.3671 -0.7272 -1.6614
 8015TIP3    H245537   6.099   3.258   0.818 -1.7201  0.2323 -0.1336
 8016TIP3   OH245538   1.718   0.247  15.133 -0.0477  0.1844  0.2125
 8016TIP3    H145539   1.731   0.285  15.046  1.3975 -1.8130 -0.4979
 8016TIP3    H245540   1.787   0.287  15.187  0.9893 -0.8169 -0.3434
 8017TIP3   OH245541   3.739   3.641   5.588  0.1693 -0.2927 -0.1683
 8017TIP3    H145542   3.824   3.598   5.581 -0.1621 -1.0740  0.4519
 8017TIP3    H245543   3.759   3.726   5.628  0.4644 -1.3289  2.0779
 8018TIP3   OH245544   1.934   0.194   1.028  0.6010  0.5015 -0.6296
 8018TIP3    H145545   1.911   0.130   0.961 -1.2617 -2.0695  2.2367
 8018TIP3    H245546   2.029   0.191   1.033  0.5923 -1.6297 -1.0013
 8019TIP3   OH245547   0.151   5.170  12.445 -0.4189  0.2627  0.0086
 8019TIP3    H145548   0.127   5.173  12.352 -1.5709  1.7142  0.3045
 8019TIP3    H245549   0.088   5.228  12.488  0.8060  0.5444  1.5446
 8020TIP3   OH245550   1.531   3.827  13.023 -0.3475 -0.1430 -0.5955
 8020TIP3    H145551   1.621   3.826  12.991 -0.4686  0.3120 -0.9631
 8020TIP3    H245552   1.524   3.749  13.079 -0.4866 -1.7094 -2.6780
 8021TIP3   OH245553   2.978   1.445   4.241 -0.4403 -0.0524  0.0038
 8021TIP3    H145554   3.027   1.526   4.228 -0.4917 -0.1151 -0.6366
 8021TIP3    H245555   2.890   1.475   4.264 -0.8338  0.1088 -1.6181
 8022TIP3   OH245556   6.297   3.642  11.051  0.0799 -0.5791 -0.5428
 8022TIP3    H145557   6.339   3.703  10.989  0.3810 -0.6993 -0.4583
 8022TIP3    H245558   6.348   3.561  11.043 -2.1687 -1.8942 -2.9380
 8023TIP3   OH245559   5.723   1.408  11.673 -0.3472  0.2185 -0.7845
 8023TIP3    H145560   5.794   1.465  11.644 -1.1319  1.0132 -1.1862
 8023TIP3    H245561   5.656   1.415  11.604 -0.2804 -1.5614 -1.0923
 8024TIP3   OH245562   1.221   5.419   0.082 -0.3621 -0.2977  0.0820
 8024TIP3    H145563   1.156   5.367   0.034  0.5828 -1.0555 -0.4117
 8024TIP3    H245564   1.240   5.367   0.160 -0.2623 -0.1303  0.1691
 8025TIP3   OH245565   1.392   0.292   3.443  0.2963  1.0562  0.0270
 8025TIP3    H145566   1.387   0.386   3.427  1.6579  1.1096 -0.2542
 8025TIP3    H245567   1.438   0.285   3.528 -1.1337  0.6595  0.8015
 8026TIP3   OH245568   0.381   6.485   0.228 -0.3917 -0.1698  0.1124
 8026TIP3    H145569   0.322   6.497   0.302 -0.3146  0.3128  0.0952
 8026TIP3    H245570   0.410   6.573   0.205  0.8065 -0.4367  0.5146
 8027TIP3   OH245571   1.057   1.146   3.929 -0.4052 -0.3677 -0.2039
 8027TIP3    H145572   1.017   1.216   3.877  1.8544  2.5574  1.6444
 8027TIP3    H245573   0.989   1.119   3.990 -1.0156  1.0621 -0.2071
 8028TIP3   OH245574   2.934   5.237   3.101  0.4463 -0.0088  0.2067
 8028TIP3    H145575   2.994   5.173   3.140 -0.4365  0.0969  1.8475
 8028TIP3    H245576   2.859   5.185   3.072  1.1707 -0.1088 -1.6077
 8029TIP3   OH245577   4.852   3.664   4.650  0.5788  0.2932 -0.3122
 8029TIP3    H145578   4.914   3.680   4.579  1.2016  1.6947  0.4981
 8029TIP3    H245579   4.889   3.588   4.697  0.3904 -0.3672 -1.1997
 8030TIP3   OH245580   1.381   6.501   0.494  0.3869 -0.9285  0.1212
 8030TIP3    H145581   1.405   6.490   0.402  0.1355 -0.0308 -0.0578
 8030TIP3    H245582   1.360   6.412   0.524  0.4972 -1.2300 -0.6737
 8031TIP3   OH245583   5.390   5.919   4.707  0.9127  0.6065 -0.3516
 8031TIP3    H145584   5.306   5.918   4.753  1.1013 -0.0002 -0.0022
 8031TIP3    H245585   5.455   5.937   4.775  1.0019  1.8522 -0.7504
 8032TIP3   OH245586   5.997   6.809  15.972 -0.3421  0.2120  0.3215
 8032TIP3    H145587   5.990   6.755  15.893  0.4253 -0.0299  0.4109
 8032TIP3    H245588   6.027   6.894  15.939  0.0147  0.1002  0.3434
 8033TIP3   OH245589   3.724   0.009  15.028  0.0470 -0.3852  0.3169
 8033TIP3    H145590   3.751  -0.018  15.116  2.2748 -0.3362 -0.2870
 8033TIP3    H245591   3.804   0.047  14.990 -1.0076  0.0511 -1.5473
 8034TIP3   OH245592   1.915   6.025  16.423 -0.4078 -0.3220  0.3087
 8034TIP3    H145593   1.896   6.030  16.329  1.2553 -0.7233 -0.0830
 8034TIP3    H245594   1.938   6.115  16.447  3.7732 -0.8689 -0.8132
 8035TIP3   OH245595   6.640   1.740   1.320 -0.4465 -0.2889 -0.2451
 8035TIP3    H145596   6.701   1.717   1.391  0.1748 -1.9059 -1.2507
 8035TIP3    H245597   6.685   1.809   1.271  1.2847 -2.3829 -1.7735
 8036TIP3   OH245598   2.746   1.974  15.157  0.4185  0.7436 -0.0733
 8036TIP3    H145599   2.751   1.921  15.236  1.7442 -0.3076 -0.8080
 8036TIP3    H245600   2.800   1.927  15.093 -3.1261 -0.2275 -2.6520
 8037TIP3   OH245601   0.100   3.164  13.292 -0.0012 -0.5742  0.0359
 8037TIP3    H145602   0.103   3.231  13.223  1.3757  0.7853  1.3345
 8037TIP3    H245603   0.135   3.085  13.250  0.2293  0.0496 -0.9974
 8038TIP3   OH245604   0.424   2.180   4.599 -0.4814 -0.1203  0.5118
 8038TIP3    H145605   0.467   2.163   4.515  0.3277 -2.2331  1.3046
 8038TIP3    H245606   0.341   2.133   4.594  0.0596 -1.1796  1.2939
 8039TIP3   OH245607   0.300   2.155  11.432 -0.2807  0.4986 -0.0393
 8039TIP3    H145608   0.385   2.150  11.388  0.0356 -0.7573  0.6520
 8039TIP3    H245609   0.310   2.098  11.508 -2.0549 -0.4455 -0.4655
 8040TIP3   OH245610   2.017   2.168   1.346 -0.0221  0.1702 -0.2822
 8040TIP3    H145611   1.928   2.189   1.320  0.4458  2.0653 -0.5471
 8040TIP3    H245612   2.071   2.233   1.300  1.6430 -1.7617 -1.2225
 8041TIP3   OH245613   0.134   3.282  12.264 -0.5299 -0.3603 -0.0502
 8041TIP3    H145614   0.123   3.323  12.178  0.4716 -2.6287 -1.3857
 8041TIP3    H245615   0.183   3.346  12.315  0.8901  0.1884 -1.9755
 8042TIP3   OH245616   5.226   3.815   3.889  0.8562 -0.4396 -0.0358
 8042TIP3    H145617   5.141   3.772   3.878 -0.0824  1.3406 -0.1029
 8042TIP3    H245618   5.272   3.798   3.807 -0.4294  0.6313 -1.0136
 8043TIP3   OH245619   3.273   1.320  11.734  0.4830 -0.0135  0.4784
 8043TIP3    H145620   3.324   1.333  11.654  0.0407 -2.0202 -0.2014
 8043TIP3    H245621   3.333   1.273  11.792  0.5119  0.6626  1.0106
 8044TIP3   OH245622   1.657   1.647  11.675  0.3966  0.5445 -0.5163
 8044TIP3    H145623   1.689   1.582  11.737 -1.4756 -0.3164 -0.3922
 8044TIP3    H245624   1.721   1.648  11.604  1.7241  0.3844  0.6619
 8045TIP3   OH245625   3.983   1.688  13.259 -0.3879 -0.7386 -0.3378
 8045TIP3    H145626   3.987   1.783  13.274  0.6542 -0.9383  0.7482
 8045TIP3    H245627   4.005   1.678  13.167  0.4729  0.0159 -0.2314
 8046TIP3   OH245628   6.633   6.555  11.469 -0.1861 -0.2317  0.0760
 8046TIP3    H145629   6.642   6.631  11.411  1.0027  0.1166  0.6759
 8046TIP3    H245630   6.679   6.581  11.549  0.8638 -1.8348  0.0294
 8047TIP3   OH245631   4.323   1.443   4.804  0.1583 -0.1100 -0.2097
 8047TIP3    H145632   4.340   1.352   4.826  0.0675  0.1255  0.8641
 8047TIP3    H245633   4.395   1.492   4.844 -0.4528  0.4095  0.2778
 8048TIP3   OH245634   5.207   4.806   1.531  0.5992  0.2668  0.0170
 8048TIP3    H145635   5.251   4.822   1.615  1.0770  2.1407 -0.5364
 8048TIP3    H245636   5.258   4.856   1.468 -1.8393  1.9247 -0.7996
 8049TIP3   OH245637   0.070   0.664   3.671  0.0575 -0.1253  0.0773
 8049TIP3    H145638   0.058   0.751   3.710 -2.2360 -0.2214 -0.2898
 8049TIP3    H245639   0.068   0.604   3.745 -0.9666 -0.0526  0.1161
 8050TIP3   OH245640   4.579   6.354   5.460  0.4253  0.6518 -0.1062
 8050TIP3    H145641   4.529   6.273   5.471  0.3462  0.8106  0.7490
 8050TIP3    H245642   4.546   6.392   5.378  1.9566 -1.2380 -1.7104
 8051TIP3   OH245643   5.631   0.307  16.955 -0.3379 -0.1408 -0.5257
 8051TIP3    H145644   5.605   0.384  16.904  0.6529  1.4081  1.1509
 8051TIP3    H245645   5.613   0.233  16.898  0.5019  1.4432 -3.0426
 8052TIP3   OH245646   4.879   3.262  14.896 -0.1959  0.0271 -0.0135
 8052TIP3    H145647   4.880   3.272  14.801  1.7336 -0.9068 -0.1385
 8052TIP3    H245648   4.891   3.168  14.910  1.3025  0.3601  1.1567
 8053TIP3   OH245649   2.768   3.689  11.157  0.1473  0.2957 -0.1775
 8053TIP3    H145650   2.819   3.770  11.145 -1.7569  1.1738 -3.9625
 8053TIP3    H245651   2.677   3.718  11.156 -0.5569 -1.7623  0.3536
 8054TIP3   OH245652   4.695   1.287   0.342 -0.6554 -0.5219 -0.6669
 8054TIP3    H145653   4.706   1.352   0.411  0.3641  0.2599 -1.5231
 8054TIP3    H245654   4.603   1.293   0.317 -0.8690 -0.3397  0.1458
 8055TIP3   OH245655   0.140   6.648  13.224 -0.6813 -0.5860  0.4701
 8055TIP3    H145656   0.083   6.575  13.201  0.1326 -1.3256  0.7189
 8055TIP3    H245657   0.155   6.638  13.318 -0.5164 -0.1364  0.4916
 8056TIP3   OH245658   0.104   1.253   5.060  0.1723 -0.4684  0.3715
 8056TIP3    H145659   0.035   1.186   5.061 -0.0146 -0.2698  1.4304
 8056TIP3    H245660   0.181   1.209   5.095  0.3487 -0.4351  0.0298
 8057TIP3   OH245661   0.275   5.671   1.917  0.2235  0.0119 -0.0102
 8057TIP3    H145662   0.228   5.740   1.964  1.8210  0.6847  0.6618
 8057TIP3    H245663   0.256   5.688   1.824 -1.6965 -0.3931  0.2661
 8058TIP3   OH245664   4.410   4.157  14.649  0.1905  0.4340  0.0142
 8058TIP3    H145665   4.423   4.064  14.633 -1.3563  0.1790  0.0857
 8058TIP3    H245666   4.405   4.165  14.744 -0.2354  0.4928 -0.0087
 8059TIP3   OH245667   3.443   0.675  13.763 -0.3723  0.2289  0.0673
 8059TIP3    H145668   3.474   0.693  13.851 -1.8472  2.0734  0.2685
 8059TIP3    H245669   3.347   0.683  13.769 -0.4805  0.8192 -1.7705
 8060TIP3   OH245670   0.694   0.538  13.802 -0.5200  0.2590 -0.2839
 8060TIP3    H145671   0.780   0.534  13.761 -0.7041 -1.6438 -0.5687
 8060TIP3    H245672   0.632   0.529  13.730 -0.8753 -1.5278  0.1921
 8061TIP3   OH245673   6.654   2.344   5.266 -0.4204  0.0524 -0.4147
 8061TIP3    H145674   6.681   2.374   5.352  1.4438  1.2547 -1.3468
 8061TIP3    H245675   6.598   2.269   5.283 -1.8316  1.4931  1.9024
 8062TIP3   OH245676   0.597   6.425  12.831  0.1526 -0.2404 -0.3254
 8062TIP3    H145677   0.638   6.339  12.843  1.1049  0.2191 -0.1574
 8062TIP3    H245678   0.563   6.423  12.742  0.9973 -0.4702 -0.6583
 8063TIP3   OH245679   1.162   4.936   0.570 -0.4543 -0.3635 -0.4051
 8063TIP3    H145680   1.145   5.023   0.606  3.2530 -0.6564  2.6166
 8063TIP3    H245681   1.196   4.885   0.643  0.9754 -3.2874 -2.8425
 8064TIP3   OH245682   0.570   5.412  15.296 -0.1753  0.1891 -0.2577
 8064TIP3    H145683   0.638   5.353  15.264 -0.8238 -0.6761 -0.0997
 8064TIP3    H245684   0.496   5.354  15.315 -0.1099  0.7329  2.0195
 8065TIP3   OH245685   3.869   3.776   2.743  0.1352 -0.4440  0.1510
 8065TIP3    H145686   3.846   3.822   2.824 -0.8669  0.1768 -0.4661
 8065TIP3    H245687   3.963   3.794   2.731  0.3114 -0.6155  1.2109
 8066TIP3   OH245688   1.187   0.814  12.655  0.5445  0.1209 -0.0928
 8066TIP3    H145689   1.201   0.732  12.608 -2.5729 -1.1256  0.9088
 8066TIP3    H245690   1.098   0.841  12.632  0.3556  1.5461  2.0130
 8067TIP3   OH245691   1.830   5.867   1.275  0.3066  0.1437  0.2888
 8067TIP3    H145692   1.801   5.826   1.357  0.2225 -1.0178 -0.3067
 8067TIP3    H245693   1.759   5.850   1.213  0.7466  0.2760 -0.2587
 8068TIP3   OH245694   3.373   6.711   6.588 -0.1355 -0.1020 -0.1285
 8068TIP3    H145695   3.371   6.753   6.674  0.6643  0.6878 -0.4763
 8068TIP3    H245696   3.339   6.623   6.603  1.1634 -0.4132  1.2386
 8069TIP3   OH245697   3.738   5.595   3.232 -0.2765  0.1264  0.1819
 8069TIP3    H145698   3.765   5.553   3.314 -0.8133 -1.7193 -0.5295
 8069TIP3    H245699   3.642   5.599   3.237 -0.3183 -0.0790 -0.3833
 8070TIP3   OH245700   2.203   1.246  15.860 -0.2765 -0.1720  0.4502
 8070TIP3    H145701   2.280   1.190  15.855  0.2117  0.5583 -0.4610
 8070TIP3    H245702   2.151   1.222  15.783  0.1602  0.9215 -0.2095
 8071TIP3   OH245703   2.092   4.712  11.911 -0.2047  0.4974 -0.2766
 8071TIP3    H145704   2.033   4.656  11.963 -0.4942 -0.7860 -1.9256
 8071TIP3    H245705   2.034   4.772  11.864 -0.0232  0.8155 -0.1023
 8072TIP3   OH245706   4.789   3.377  16.201  0.6363 -0.0562  0.6578
 8072TIP3    H145707   4.839   3.370  16.120  1.1509 -1.5364  1.0733
 8072TIP3    H245708   4.705   3.335  16.182  1.0156 -1.0295  1.0720
 8073TIP3   OH245709   1.307   0.912  15.887 -0.4137  0.1630 -0.3538
 8073TIP3    H145710   1.326   0.947  15.800  0.6523  0.4326 -0.0263
 8073TIP3    H245711   1.328   0.818  15.880 -1.1961  0.0070 -0.6336
 8074TIP3   OH245712   4.086   6.278   4.675  0.1330  0.1877  0.2757
 8074TIP3    H145713   4.141   6.201   4.688 -0.8087 -0.5771 -0.1176
 8074TIP3    H245714   4.134   6.349   4.716  0.5918 -0.7833  1.5012
 8075TIP3   OH245715   5.478   4.345  16.786 -0.4095  0.1009  0.2618
 8075TIP3    H145716   5.506   4.332  16.877 -0.6977 -0.8774  0.2273
 8075TIP3    H245717   5.388   4.374  16.793 -0.7116 -0.7934  0.2892
 8076TIP3   OH245718   2.497   0.632   3.893  0.1340 -0.6918  0.6184
 8076TIP3    H145719   2.480   0.558   3.835 -0.4782 -0.0048 -0.1016
 8076TIP3    H245720   2.574   0.675   3.856  1.0860 -1.4889  1.5844
 8077TIP3   OH245721   5.783   3.026  10.571 -0.4687 -0.2209 -0.0171
 8077TIP3    H145722   5.761   2.936  10.548  0.4533 -0.3203 -0.5655
 8077TIP3    H245723   5.878   3.028  10.575 -0.4699 -0.1465  3.6458
 8078TIP3   OH245724   5.667   0.725  14.583  0.6106  0.2933  0.2993
 8078TIP3    H145725   5.723   0.679  14.645  1.3958  1.4769  0.5015
 8078TIP3    H245726   5.653   0.811  14.622  1.4192  1.1982 -1.2762
 8079TIP3   OH245727   4.762   5.036   0.488  0.0842  0.5588 -0.5007
 8079TIP3    H145728   4.823   4.963   0.497  1.4329  1.4634 -1.9051
 8079TIP3    H245729   4.794   5.101   0.550 -0.9403  0.1043  0.5337
 8080TIP3   OH245730   3.779   0.274   2.803  0.6970 -0.2921 -0.4159
 8080TIP3    H145731   3.870   0.262   2.828  0.7351 -2.2302 -1.3173
 8080TIP3    H245732   3.782   0.303   2.712  0.4319  0.8387 -0.0702
 8081TIP3   OH245733   4.096   6.550   0.890 -0.0979 -0.0135 -0.3865
 8081TIP3    H145734   4.056   6.574   0.806  0.5045  2.8586  0.0501
 8081TIP3    H245735   4.035   6.582   0.956  1.2343  1.2807  0.2595
 8082TIP3   OH245736   3.423   5.681  12.655  0.1977  0.0753  0.3044
 8082TIP3    H145737   3.404   5.594  12.692 -1.8548  0.8707  1.2859
 8082TIP3    H245738   3.412   5.741  12.729 -2.0419  1.5281 -1.0889
 8083TIP3   OH245739   1.450   1.268   3.184 -0.0401  0.4860 -0.0606
 8083TIP3    H145740   1.516   1.212   3.227 -0.2145  1.5738  1.7485
 8083TIP3    H245741   1.437   1.228   3.098  1.3801 -1.0166  0.3612
 8084TIP3   OH245742   1.200   1.446  14.332 -0.5920  0.4352  0.0961
 8084TIP3    H145743   1.285   1.402  14.328  0.6447  2.7192 -0.4101
 8084TIP3    H245744   1.139   1.384  14.292  0.6676 -1.5641  1.1176
 8085TIP3   OH245745   4.517   0.005  11.931 -0.8062 -0.2185 -0.4039
 8085TIP3    H145746   4.486   0.092  11.905 -0.4043 -0.5240 -1.9500
 8085TIP3    H245747   4.486  -0.054  11.863 -0.5157 -1.2082  0.2922
 8086TIP3   OH245748   2.704   6.521  12.375  0.8827 -0.4151 -0.2844
 8086TIP3    H145749   2.767   6.455  12.346  0.5276 -1.4833  1.2561
 8086TIP3    H245750   2.649   6.476  12.439  0.0369  1.1302  0.1357
 8087TIP3   OH245751   5.858   5.746   5.895  0.3468  0.3874  0.5385
 8087TIP3    H145752   5.950   5.757   5.870  0.3435 -1.8731 -0.7640
 8087TIP3    H245753   5.862   5.694   5.976  0.2422 -0.8440 -0.2213
 8088TIP3   OH245754   1.264   0.995   1.359 -0.1676  0.5343  0.4560
 8088TIP3    H145755   1.270   1.085   1.390  2.6412  0.6887 -0.2707
 8088TIP3    H245756   1.349   0.978   1.318 -1.7603 -1.3717 -2.4049
 8089TIP3   OH245757   3.722   5.280   3.618 -0.7205  0.2932  0.0158
 8089TIP3    H145758   3.702   5.187   3.621  0.0741  0.0395 -1.6986
 8089TIP3    H245759   3.653   5.321   3.671  0.9196 -1.4912  3.8873
 8090TIP3   OH245760   2.712   5.943  15.768  0.1326  0.1741  0.8506
 8090TIP3    H145761   2.701   5.882  15.695 -0.9216 -0.2233  1.3191
 8090TIP3    H245762   2.707   6.030  15.728  1.2654 -0.0272  0.2316
 8091TIP3   OH245763   3.392   3.959   4.012 -0.4265  0.0110  0.2570
 8091TIP3    H145764   3.332   3.924   4.078 -2.2178  1.6048 -0.4624
 8091TIP3    H245765   3.395   4.053   4.028  0.2666  0.2367 -1.0069
 8092TIP3   OH245766   2.426   2.496   5.219 -0.5987 -0.0701  0.6384
 8092TIP3    H145767   2.361   2.500   5.148  1.8119 -0.7889 -1.7635
 8092TIP3    H245768   2.504   2.460   5.178  1.3517  0.6828  3.4120
 8093TIP3   OH245769   6.523   4.036  14.072 -0.1715  0.1552  0.8321
 8093TIP3    H145770   6.486   4.027  13.984 -0.1238 -0.8261  0.8976
 8093TIP3    H245771   6.474   4.108  14.111  0.4885  1.2745 -0.3390
 8094TIP3   OH245772   0.051   5.380   3.803  0.5564 -0.3428  0.0243
 8094TIP3    H145773   0.092   5.303   3.843  0.0169  0.1816  1.6998
 8094TIP3    H245774  -0.043   5.369   3.821  0.3323  0.1106 -0.8085
 8095TIP3   OH245775   6.811   5.898   5.947  0.0725  0.1418 -0.4607
 8095TIP3    H145776   6.787   5.805   5.939 -0.7191  0.4040 -1.2884
 8095TIP3    H245777   6.786   5.922   6.036 -0.9885 -0.0918 -0.6888
 8096TIP3   OH245778   2.699   5.709   0.700 -0.0678 -0.4569  0.2450
 8096TIP3    H145779   2.758   5.728   0.627 -0.4200 -1.7319 -0.4038
 8096TIP3    H245780   2.616   5.686   0.658  0.1202 -2.5837  0.9610
 8097TIP3   OH245781   1.370   0.819  14.810 -0.6262  0.0248 -0.4595
 8097TIP3    H145782   1.443   0.799  14.752  1.0596  2.1275  0.8130
 8097TIP3    H245783   1.363   0.914  14.808 -0.3225  0.2384  2.9046
 8098TIP3   OH245784   0.796   2.611  13.269  0.6123  0.3353  0.0879
 8098TIP3    H145785   0.799   2.608  13.364 -0.9223  2.4809  0.2967
 8098TIP3    H245786   0.842   2.692  13.246  0.8423 -0.0850 -0.9873
 8099TIP3   OH245787   5.904   3.193  11.966 -0.3587  0.2169  0.5793
 8099TIP3    H145788   5.950   3.188  11.882  0.0585  0.6994  0.7726
 8099TIP3    H245789   5.824   3.243  11.947  0.4327  1.6139  0.7472
 8100TIP3   OH245790   5.279   4.703   3.036 -0.0604  0.2651 -0.0714
 8100TIP3    H145791   5.199   4.742   2.999  0.3201  2.2529  1.0805
 8100TIP3    H245792   5.334   4.777   3.059  1.5526 -1.0369  0.4758
 8101TIP3   OH245793   3.627   1.045   3.445 -0.1091 -0.0492 -0.2312
 8101TIP3    H145794   3.571   1.103   3.394 -0.7872  1.0175  1.6295
 8101TIP3    H245795   3.694   1.016   3.384 -0.9986  0.9894 -1.7575
 8102TIP3   OH245796   1.059   2.991  14.850  0.0651 -0.8179 -0.0914
 8102TIP3    H145797   1.108   2.977  14.769 -0.0991  0.1284 -0.3636
 8102TIP3    H245798   1.126   3.004  14.917  0.4780  4.2279 -1.0388
 8103TIP3   OH245799   0.638   6.470  11.544  0.3097 -0.7182 -0.3636
 8103TIP3    H145800   0.641   6.560  11.513  0.5277 -0.7825 -0.5251
 8103TIP3    H245801   0.559   6.433  11.504  1.2291 -1.1660 -1.8386
 8104TIP3   OH245802   5.395   4.975  11.136 -0.3106  0.2794  0.4355
 8104TIP3    H145803   5.343   4.916  11.081 -0.9829 -0.1020  1.4561
 8104TIP3    H245804   5.385   5.061  11.095 -1.0019  0.0496  0.1090
 8105TIP3   OH245805   5.938   3.152  11.685  0.3126  0.0654 -0.0279
 8105TIP3    H145806   6.019   3.181  11.643  0.6168 -2.2202 -1.1811
 8105TIP3    H245807   5.949   3.058  11.696 -1.3870 -0.0007  1.6789
 8106TIP3   OH245808   0.379   4.539  15.672  0.1155  0.1680  0.0997
 8106TIP3    H145809   0.432   4.473  15.717 -1.1802 -0.3907  0.8484
 8106TIP3    H245810   0.377   4.613  15.734 -1.2668 -0.4177  0.7958
 8107TIP3   OH245811   5.802   5.127   6.844  0.0084 -0.2790 -0.6481
 8107TIP3    H145812   5.795   5.051   6.786  0.8667 -2.8642  2.3949
 8107TIP3    H245813   5.712   5.159   6.851 -0.5875 -1.7679 -1.0397
 8108TIP3   OH245814   1.410   4.853  11.642  0.1683  0.1066  0.0995
 8108TIP3    H145815   1.368   4.777  11.683 -1.5694  0.1837 -1.3905
 8108TIP3    H245816   1.491   4.818  11.605 -0.5272 -1.0143 -0.4247
 8109TIP3   OH245817   0.181   4.993  15.338  0.0463 -0.0220  0.2218
 8109TIP3    H145818   0.189   4.989  15.243  0.7313  0.1232  0.2681
 8109TIP3    H245819   0.131   4.915  15.361  1.8089 -1.2953 -0.0602
 8110TIP3   OH245820   6.088   3.821  11.883 -0.1238 -0.3146  0.3482
 8110TIP3    H145821   6.038   3.762  11.939  1.6695 -0.7274  1.6041
 8110TIP3    H245822   6.161   3.851  11.938  1.1157  0.1160 -1.4183
 8111TIP3   OH245823   3.440   2.383  14.882 -0.0539  0.5751  0.0879
 8111TIP3    H145824   3.399   2.329  14.950  1.0739 -0.0796  0.2782
 8111TIP3    H245825   3.450   2.469  14.923  0.2477  0.2950  0.6223
 8112TIP3   OH245826   3.122   5.435   2.634  0.7285  0.1708  0.4754
 8112TIP3    H145827   3.039   5.430   2.681  0.1675  2.4198 -0.1560
 8112TIP3    H245828   3.147   5.527   2.639  2.1736 -0.0912 -1.0437
 8113TIP3   OH245829   6.214   2.909   0.848  0.2752  0.3014  0.1124
 8113TIP3    H145830   6.256   2.988   0.883 -1.5442  2.5958 -2.4151
 8113TIP3    H245831   6.135   2.942   0.805 -1.1141 -3.1004 -0.2196
 8114TIP3   OH245832   3.910   2.097  14.367 -0.1299 -0.3845 -0.4032
 8114TIP3    H145833   3.865   2.052  14.439 -2.0141  0.3771 -1.0474
 8114TIP3    H245834   3.873   2.059  14.288 -0.6976  1.2533 -0.9627
 8115TIP3   OH245835   4.644   0.954   4.072 -0.2913  0.1000  0.2531
 8115TIP3    H145836   4.593   0.973   4.151 -1.2687 -1.5764  0.0608
 8115TIP3    H245837   4.609   1.015   4.006 -1.7736 -0.7069  0.2462
 8116TIP3   OH245838   2.913   5.443   5.017  0.2798 -0.4132 -0.4702
 8116TIP3    H145839   2.989   5.487   4.978 -0.2605 -0.4323 -1.5875
 8116TIP3    H245840   2.904   5.484   5.103  1.3212 -0.1392 -0.4757
 8117TIP3   OH245841   0.006   0.920   5.784 -0.4913  0.2165 -0.2760
 8117TIP3    H145842   0.012   0.906   5.878 -0.0267 -0.6677 -0.4344
 8117TIP3    H245843  -0.087   0.937   5.768 -0.3425  2.0140  0.5522
 8118TIP3   OH245844   4.300   3.590  12.580 -0.2821 -0.1368 -0.0584
 8118TIP3    H145845   4.339   3.503  12.573 -0.2311 -0.2916  1.5846
 8118TIP3    H245846   4.366   3.649  12.545  1.1248 -0.4761  1.8194
 8119TIP3   OH245847   4.681   6.361   0.409 -0.6833 -0.2753  0.1201
 8119TIP3    H145848   4.769   6.398   0.415 -0.4596 -0.9728  1.2644
 8119TIP3    H245849   4.655   6.377   0.318  0.6988 -0.2384 -0.2895
 8120TIP3   OH245850   2.055   3.877   5.118 -0.8104 -0.3720 -0.1479
 8120TIP3    H145851   2.007   3.933   5.179 -1.8895  0.2906 -1.5415
 8120TIP3    H245852   2.007   3.886   5.035  2.1747  0.9309 -1.8638
 8121TIP3   OH245853   0.308   6.334  14.205  0.2623  0.2554  0.0500
 8121TIP3    H145854   0.232   6.283  14.232  0.7254 -0.1581  0.5816
 8121TIP3    H245855   0.383   6.282  14.233  0.7536  1.3985  0.9322
 8122TIP3   OH245856   4.079   2.224  13.530 -0.1310 -0.1102 -0.2365
 8122TIP3    H145857   4.026   2.144  13.537 -0.1038 -0.0188  1.4141
 8122TIP3    H245858   4.058   2.259  13.444 -1.5709 -0.9032 -0.2424
 8123TIP3   OH245859   1.835   6.712   4.707 -0.0173 -0.1179 -0.3676
 8123TIP3    H145860   1.886   6.652   4.653  0.6839  0.9145 -0.8975
 8123TIP3    H245861   1.875   6.707   4.794  0.1480 -0.2832 -0.4521
 8124TIP3   OH245862   1.907   1.440  16.222 -0.2061 -0.1343 -0.2346
 8124TIP3    H145863   1.827   1.468  16.267  0.8103 -0.4159  1.8866
 8124TIP3    H245864   1.879   1.373  16.161 -1.5726 -0.4239  0.6789
 8125TIP3   OH245865   2.351   5.817   6.194  0.1587 -0.3100 -0.4804
 8125TIP3    H145866   2.378   5.800   6.104 -0.0900 -0.4090 -0.5392
 8125TIP3    H245867   2.345   5.912   6.200  0.4685 -0.2892 -0.4793
 8126TIP3   OH245868   1.454   4.649   3.091  0.0965  0.2105  0.8439
 8126TIP3    H145869   1.435   4.556   3.085 -0.8086  0.3682  1.0921
 8126TIP3    H245870   1.423   4.674   3.178  0.4796  0.7063  0.8388
 8127TIP3   OH245871   0.455   3.449   4.418 -0.2460  0.1531  0.3914
 8127TIP3    H145872   0.401   3.509   4.469 -1.0275 -0.9527  0.9213
 8127TIP3    H245873   0.475   3.377   4.479  0.7301 -0.0895 -0.1919
 8128TIP3   OH245874   0.699   3.289  15.649  0.1845  0.1884 -0.3736
 8128TIP3    H145875   0.626   3.340  15.684 -1.1214 -1.1235 -1.1030
 8128TIP3    H245876   0.659   3.208  15.617  1.8028 -0.0777 -1.8395
 8129TIP3   OH245877   5.276   2.507   5.809  0.4118 -0.1409  0.4625
 8129TIP3    H145878   5.270   2.413   5.829 -1.2967 -0.1487  0.0437
 8129TIP3    H245879   5.326   2.543   5.882 -0.1948 -1.1632  1.4289
 8130TIP3   OH245880   4.138   6.539   5.948  0.4044 -0.2751  0.3601
 8130TIP3    H145881   4.203   6.581   6.003  0.6118 -1.8196  1.3349
 8130TIP3    H245882   4.187   6.507   5.872  0.6359 -0.6920  0.6846
 8131TIP3   OH245883   5.864   5.013  17.059 -0.3025 -0.1825  0.2741
 8131TIP3    H145884   5.855   5.088  16.999 -0.8385 -0.0931  0.4579
 8131TIP3    H245885   5.939   4.965  17.025 -0.4253  0.0195 -0.3112
 8132TIP3   OH245886   6.328   0.129   0.558 -0.0965 -0.2959  0.0989
 8132TIP3    H145887   6.409   0.152   0.512 -1.3793  1.4458 -1.4583
 8132TIP3    H245888   6.338   0.037   0.579  1.6891 -0.5001 -1.3629
 8133TIP3   OH245889   6.409   6.608  11.607 -0.1101  0.5571  0.2930
 8133TIP3    H145890   6.470   6.580  11.539 -0.4404 -0.0223  0.2355
 8133TIP3    H245891   6.382   6.696  11.579  0.6871  0.8188  0.3180
 8134TIP3   OH245892   1.899   2.989  11.915 -0.2446  0.3638 -0.4339
 8134TIP3    H145893   1.955   3.038  11.854  0.8694 -2.0126 -1.4434
 8134TIP3    H245894   1.959   2.937  11.967 -1.3863 -0.0761  0.5029
 8135TIP3   OH245895   1.558   6.395  13.826 -0.1360  0.1758 -0.1514
 8135TIP3    H145896   1.564   6.345  13.744 -0.6835  0.7882 -0.5727
 8135TIP3    H245897   1.498   6.467  13.806  0.2693  0.7344  0.5864
 8136TIP3   OH245898   3.572   6.028   4.740  0.0679 -0.0966  0.1755
 8136TIP3    H145899   3.535   6.005   4.655  0.5543  2.0272 -0.6838
 8136TIP3    H245900   3.558   6.123   4.747 -0.3603 -0.2770  2.6818
 8137TIP3   OH245901   3.562   1.443  15.172 -0.1497 -0.2059 -0.1487
 8137TIP3    H145902   3.477   1.418  15.135  0.0608  0.5465 -1.1874
 8137TIP3    H245903   3.542   1.470  15.261 -0.8510 -0.9551 -0.0593
 8138TIP3   OH245904   4.443   3.112  11.671  0.1701 -0.5743 -0.1218
 8138TIP3    H145905   4.468   3.105  11.764 -0.5385 -0.5287  0.0799
 8138TIP3    H245906   4.526   3.117  11.624  0.5426  0.6208  0.6057
 8139TIP3   OH245907   1.107   4.697  16.825 -0.1262 -0.0846 -0.6080
 8139TIP3    H145908   1.075   4.610  16.803  0.8248 -0.6406  0.1326
 8139TIP3    H245909   1.037   4.735  16.879  0.5135 -1.4089  1.2641
 8140TIP3   OH245910   0.251   0.753   1.179 -0.3364  0.1902 -0.5005
 8140TIP3    H145911   0.345   0.771   1.188 -0.0886 -0.1765 -2.0219
 8140TIP3    H245912   0.208   0.826   1.224  0.6759  1.2791 -1.2296
 8141TIP3   OH245913   0.930   1.639   0.667  0.3915 -0.0107  0.2697
 8141TIP3    H145914   0.865   1.671   0.728  1.0205  1.9885 -0.0261
 8141TIP3    H245915   0.962   1.718   0.622  1.8309 -1.1069 -0.7445
 8142TIP3   OH245916   4.513   5.549   4.412 -0.0856 -0.0165 -0.3267
 8142TIP3    H145917   4.479   5.639   4.414 -1.1145 -0.3836  1.5445
 8142TIP3    H245918   4.455   5.501   4.471  1.7628 -1.4212  0.4326
 8143TIP3   OH245919   5.749   5.777  13.193  0.0796 -0.5552 -0.0220
 8143TIP3    H145920   5.729   5.808  13.281  0.1006  1.5552 -0.6951
 8143TIP3    H245921   5.844   5.771  13.190  0.0218 -2.2886  0.5777
 8144TIP3   OH245922   0.606   0.237   3.602  0.0456  0.2694 -0.1862
 8144TIP3    H145923   0.623   0.153   3.645 -0.9160 -0.1702 -0.6394
 8144TIP3    H245924   0.625   0.303   3.669 -0.3411 -0.3563  0.5522
 8145TIP3   OH245925   5.645   5.010  10.593  0.3418 -0.4346  0.3635
 8145TIP3    H145926   5.603   4.937  10.548  0.4379  0.2003 -0.7731
 8145TIP3    H245927   5.596   5.087  10.567 -0.0834 -0.1235  1.9706
 8146TIP3   OH245928   0.879   1.874  12.508 -0.2720  0.0517 -0.0326
 8146TIP3    H145929   0.920   1.890  12.423  0.5890 -2.3793 -0.1553
 8146TIP3    H245930   0.876   1.960  12.550  1.5404  0.9172 -1.5371
 8147TIP3   OH245931   4.202   5.373   3.021 -0.6176  0.5148  0.1040
 8147TIP3    H145932   4.111   5.351   3.041 -0.8302  0.9740 -0.3430
 8147TIP3    H245933   4.242   5.290   2.996 -1.3635  0.5737 -1.3872
 8148TIP3   OH245934   0.132   3.816   2.338  0.0473 -0.0764  0.1568
 8148TIP3    H145935   0.219   3.853   2.325  0.5514 -0.8381  1.2264
 8148TIP3    H245936   0.086   3.881   2.392  0.1146  0.0928  0.0118
 8149TIP3   OH245937   0.188   2.316  14.979 -0.3285 -0.1846 -0.1264
 8149TIP3    H145938   0.149   2.355  14.901  2.4101 -0.6953 -1.9054
 8149TIP3    H245939   0.214   2.391  15.033 -0.2386  0.2554 -0.7798
 8150TIP3   OH245940   5.272   2.020   2.447 -0.3665  0.6497  0.2506
 8150TIP3    H145941   5.271   2.075   2.369  2.7047  0.4510 -0.0593
 8150TIP3    H245942   5.282   1.931   2.414  1.0944  0.5738  0.8065
 8151TIP3   OH245943   0.999   4.762  12.509 -0.1998 -0.0007  0.5499
 8151TIP3    H145944   0.977   4.757  12.602 -0.1971 -1.3456  0.4890
 8151TIP3    H245945   1.089   4.730  12.503  0.5126  1.9174  0.3077
 8152TIP3   OH245946   4.976   1.454   3.192  0.0106  0.6376 -0.0041
 8152TIP3    H145947   4.944   1.495   3.272  0.0180  1.0116 -0.1931
 8152TIP3    H245948   5.066   1.428   3.213 -0.1862  0.1878  0.3056
 8153TIP3   OH245949   6.529   2.351  13.820  0.6232 -0.1503 -0.9329
 8153TIP3    H145950   6.555   2.259  13.828 -3.5229 -1.6826 -2.3914
 8153TIP3    H245951   6.565   2.378  13.735  0.0668 -1.1815 -1.5178
 8154TIP3   OH245952   5.242   3.010  11.579 -0.9463 -0.1613  0.1313
 8154TIP3    H145953   5.293   3.054  11.510 -1.5016 -0.9594 -0.8141
 8154TIP3    H245954   5.244   3.071  11.653  0.3697  0.3483 -0.2943
 8155TIP3   OH245955   2.370   3.889  13.093 -0.2996  0.6127 -0.0647
 8155TIP3    H145956   2.377   3.857  13.003  2.6927  2.1713 -0.5165
 8155TIP3    H245957   2.334   3.977  13.085 -1.4935  0.1955  0.4607
 8156TIP3   OH245958   1.051   0.646  13.209 -0.0303 -0.1825  0.2140
 8156TIP3    H145959   0.986   0.591  13.253 -0.2223 -0.2318 -0.1278
 8156TIP3    H245960   1.024   0.735  13.231  2.1372 -0.1718  3.5105
 8157TIP3   OH245961   0.046   1.180  16.296  0.0441  0.3526  0.3251
 8157TIP3    H145962  -0.015   1.233  16.347 -0.0716 -0.0597  0.6239
 8157TIP3    H245963   0.026   1.089  16.321  0.5756  0.1980  0.2074
 8158TIP3   OH245964   1.902   1.944  11.818 -0.0512 -0.2943  0.5792
 8158TIP3    H145965   1.812   1.930  11.790  0.0709 -0.2930  0.1899
 8158TIP3    H245966   1.929   1.859  11.853 -0.4030 -0.1336  1.2743
 8159TIP3   OH245967   6.480   1.962   4.910  0.2071  0.1163 -0.0519
 8159TIP3    H145968   6.416   1.893   4.896 -0.8253  1.4348 -2.3955
 8159TIP3    H245969   6.430   2.035   4.946  1.0234  0.1474  1.0739
 8160TIP3   OH245970   4.050   0.791   1.867  0.7029  0.3684  0.3382
 8160TIP3    H145971   4.037   0.740   1.947 -0.8343  0.1796  0.0031
 8160TIP3    H245972   3.965   0.788   1.823  1.0888  1.7545 -0.5524
 8161TIP3   OH245973   0.873   4.974  17.228 -0.3604  0.1951  0.0116
 8161TIP3    H145974   0.787   5.017  17.218 -0.5954 -0.2259  0.2115
 8161TIP3    H245975   0.899   4.952  17.139 -1.0776 -0.8678  0.0431
 8162TIP3   OH245976   5.035   3.550  10.793 -0.5274  0.4017  0.1387
 8162TIP3    H145977   5.113   3.562  10.739  0.5874  2.1787  2.0093
 8162TIP3    H245978   4.973   3.615  10.760  0.2885  1.7421  1.1500
 8163TIP3   OH245979   4.602   0.976  16.889  0.0055 -0.1048 -0.5015
 8163TIP3    H145980   4.552   0.904  16.851 -0.5354 -0.2845  0.5334
 8163TIP3    H245981   4.579   0.975  16.982 -0.4909  1.7916 -0.5763
 8164TIP3   OH245982   3.288   4.000  15.608  0.5845  0.0107  0.8888
 8164TIP3    H145983   3.276   3.909  15.635 -2.5461 -0.0219 -0.2460
 8164TIP3    H245984   3.231   4.050  15.666 -0.9240  0.6928 -1.0697
 8165TIP3   OH245985   1.199   2.012   1.830  0.7487  1.3478 -0.1788
 8165TIP3    H145986   1.186   2.050   1.743 -3.7816  0.6631 -0.0464
 8165TIP3    H245987   1.160   1.925   1.824  1.3604  0.8453  2.2760
 8166TIP3   OH245988   5.013   4.581  14.481 -0.0160  0.6429  0.5415
 8166TIP3    H145989   4.986   4.620  14.398  0.7189  0.1456  0.0511
 8166TIP3    H245990   5.043   4.493  14.457 -0.4764  0.2241  1.4422
 8167TIP3   OH245991   3.152   2.275   2.746  0.0162 -0.5986 -0.5122
 8167TIP3    H145992   3.131   2.366   2.766 -0.1640 -0.4346 -1.4429
 8167TIP3    H245993   3.245   2.267   2.770 -0.0590 -0.2737 -0.0936
 8168TIP3   OH245994   6.135   2.165  13.193  0.1019 -0.0004  0.3273
 8168TIP3    H145995   6.156   2.071  13.192  2.3191  0.4347 -0.1780
 8168TIP3    H245996   6.193   2.201  13.260 -0.8686  0.9979  0.6502
 8169TIP3   OH245997   4.339   1.774  15.483 -0.1354 -0.1740  0.3841
 8169TIP3    H145998   4.261   1.822  15.455  0.4246  0.9857  0.7590
 8169TIP3    H245999   4.312   1.730  15.564 -0.4480  0.0811  0.4205
 8170TIP3   OH246000   6.557   4.975   5.752 -0.0183 -0.1200  0.0802
 8170TIP3    H146001   6.543   5.029   5.829  0.1217  0.7286 -0.4768
 8170TIP3    H246002   6.596   4.894   5.786  0.0613  0.2461  0.8880
 8171TIP3   OH246003   5.392   2.835  14.572  1.2085 -0.0761 -0.3049
 8171TIP3    H146004   5.335   2.831  14.495  2.3008  0.3205 -1.1579
 8171TIP3    H246005   5.406   2.929  14.587  3.4183 -0.1599 -1.4941
 8172TIP3   OH246006   0.909   1.185   5.437 -0.5293 -0.1089  0.0357
 8172TIP3    H146007   0.987   1.237   5.461  0.5647 -0.2674 -2.7740
 8172TIP3    H246008   0.929   1.097   5.468  0.2788 -0.0711 -0.3409
 8173TIP3   OH246009   1.913   3.654   2.267 -0.0818 -0.7006 -0.2597
 8173TIP3    H146010   1.822   3.670   2.294  0.0314 -0.6161  0.0798
 8173TIP3    H246011   1.915   3.562   2.243  0.1597 -1.1732  1.4501
 8174TIP3   OH246012   5.269   0.380   3.000 -0.4426 -0.6621 -0.1021
 8174TIP3    H146013   5.215   0.361   3.076 -0.1809 -0.6804  0.0812
 8174TIP3    H246014   5.325   0.302   2.991 -2.9066 -2.3208 -2.4729
 8175TIP3   OH246015   2.860   4.850   3.289  0.1568  0.3184  0.1350
 8175TIP3    H146016   2.907   4.923   3.328 -3.9962  2.4483  1.8573
 8175TIP3    H246017   2.864   4.781   3.354 -0.1014  0.9464  0.8365
 8176TIP3   OH246018   1.629   2.886   6.302 -0.6113  0.1765 -0.2685
 8176TIP3    H146019   1.628   2.815   6.366  1.4621  0.6571  0.3969
 8176TIP3    H246020   1.577   2.854   6.228 -1.2115 -1.2850  0.7467
 8177TIP3   OH246021   4.702   6.664   2.979 -0.7788  0.1644 -0.4140
 8177TIP3    H146022   4.756   6.695   2.906  0.4088  1.6041  1.0013
 8177TIP3    H246023   4.735   6.576   2.997  0.6310  0.7207 -0.0889
 8178TIP3   OH246024   1.070   2.079  10.703 -0.3637  0.5356 -0.1925
 8178TIP3    H146025   0.993   2.080  10.760 -0.7173 -1.6430 -0.5092
 8178TIP3    H246026   1.127   2.012  10.741  1.8060  2.6334  0.4875
 8179TIP3   OH246027   0.674   0.207   1.039  0.0843  0.7345  0.1044
 8179TIP3    H146028   0.648   0.132   0.986  0.0232 -0.6438  1.9974
 8179TIP3    H246029   0.769   0.208   1.035  0.0444  1.8443 -1.5631
 8180TIP3   OH246030   6.759   1.052   1.760  0.0658 -0.3464 -0.7696
 8180TIP3    H146031   6.806   0.969   1.775  1.4072  0.8400  2.4413
 8180TIP3    H246032   6.821   1.105   1.709  0.8240 -0.0245  0.4494
 8181TIP3   OH246033   3.320   1.826   1.330 -0.0480 -0.2144  0.0354
 8181TIP3    H146034   3.318   1.760   1.400  0.6517 -0.8414 -0.5106
 8181TIP3    H246035   3.282   1.904   1.369 -1.0837 -1.0002  0.6490
 8182TIP3   OH246036   0.412   5.295  13.706 -0.5633 -0.4392  0.3252
 8182TIP3    H146037   0.353   5.249  13.647 -0.9810  0.6879 -0.1724
 8182TIP3    H246038   0.355   5.353  13.757  0.1221  1.2010 -0.6615
 8183TIP3   OH246039   0.730   5.372  14.943 -0.0108 -0.4761  0.1545
 8183TIP3    H146040   0.725   5.318  15.022  1.8909  2.8018  2.7806
 8183TIP3    H246041   0.824   5.378  14.924 -0.3222  0.2622 -1.3373
 8184TIP3   OH246042   3.108   0.238  11.809 -0.0032  0.0368  0.4495
 8184TIP3    H146043   3.113   0.160  11.754  0.8943  1.1515 -1.1389
 8184TIP3    H246044   3.018   0.240  11.840  0.2183 -2.1832  1.4077
 8185TIP3   OH246045   4.255   6.009  15.369  0.0349 -0.2874 -0.1615
 8185TIP3    H146046   4.197   5.939  15.339  0.7094 -1.5471  1.3214
 8185TIP3    H246047   4.247   6.007  15.464  1.8650  0.0651  0.0258
 8186TIP3   OH246048   4.469   3.688  13.177  0.1827 -0.0519 -0.3161
 8186TIP3    H146049   4.547   3.719  13.223  0.1362 -0.6767  0.2019
 8186TIP3    H246050   4.477   3.593  13.179 -1.7239 -0.2508  1.8033
 8187TIP3   OH246051   6.057   0.158   4.165  0.2546  0.2378 -0.1536
 8187TIP3    H146052   6.085   0.076   4.206  0.0971  0.0817 -0.3565
 8187TIP3    H246053   6.138   0.207   4.151  0.3033  0.3532  0.4706
 8188TIP3   OH246054   6.545   3.952   0.487 -0.3119 -0.1779  0.2248
 8188TIP3    H146055   6.509   4.029   0.533 -0.2969  0.2174 -0.4135
 8188TIP3    H246056   6.471   3.891   0.482  0.0935 -0.8848  2.1458
 8189TIP3   OH246057   3.433   2.641  14.982  0.1560 -0.0546  0.3856
 8189TIP3    H146058   3.476   2.684  15.056  2.6516  0.7337 -1.4117
 8189TIP3    H246059   3.377   2.709  14.945 -1.6104 -0.6371  1.8241
 8190TIP3   OH246060   4.953   2.201   2.379 -0.5098  0.0871 -0.3668
 8190TIP3    H146061   5.038   2.173   2.344  1.2924  3.1524  1.1269
 8190TIP3    H246062   4.922   2.266   2.316 -0.1888  1.2475  0.6570
 8191TIP3   OH246063   0.507   1.505   4.487  0.1151  0.3711  0.0588
 8191TIP3    H146064   0.450   1.431   4.504  0.7504 -0.0958  0.1820
 8191TIP3    H246065   0.492   1.526   4.394  1.4890 -1.2774 -0.5875
 8192TIP3   OH246066   3.100   5.493  14.547 -0.4695 -0.5334  0.6971
 8192TIP3    H146067   3.181   5.455  14.582 -0.9431 -1.9378  0.3341
 8192TIP3    H246068   3.095   5.460  14.457 -1.5043 -0.5877  0.7639
 8193TIP3   OH246069   1.056   0.529   5.056 -0.1282  0.0472  0.0665
 8193TIP3    H146070   1.024   0.443   5.083 -1.0753  0.6327  0.9064
 8193TIP3    H246071   1.035   0.534   4.963  0.1390 -0.7080 -0.0425
 8194TIP3   OH246072   3.788   6.111  12.167  0.1834  0.1071  0.2854
 8194TIP3    H146073   3.701   6.106  12.207  0.4708 -1.9675  0.8067
 8194TIP3    H246074   3.792   6.198  12.127 -0.8971  1.5263  3.0069
 8195TIP3   OH246075   5.084   3.113   0.979 -0.2010  0.0687  0.5120
 8195TIP3    H146076   4.995   3.094   0.952 -0.1376  0.1711  0.2228
 8195TIP3    H246077   5.137   3.046   0.936 -0.1715 -0.1876  0.9419
 8196TIP3   OH246078   3.245   6.161   5.450 -0.1962  0.2571  0.0328
 8196TIP3    H146079   3.156   6.191   5.466  0.4963  2.1031  0.7614
 8196TIP3    H246080   3.283   6.228   5.393 -0.1438 -2.0793 -2.9263
 8197TIP3   OH246081   0.059   1.257   4.280 -0.0142 -0.3294 -0.2529
 8197TIP3    H146082   0.008   1.257   4.361  1.3149 -0.9397  0.6215
 8197TIP3    H246083   0.024   1.331   4.230  0.5286  1.4163  1.7883
 8198TIP3   OH246084   2.774   6.370   2.682  0.2363  0.2904  0.4760
 8198TIP3    H146085   2.857   6.324   2.676 -0.3714 -0.7932  0.1889
 8198TIP3    H246086   2.791   6.455   2.641  0.5401 -0.8832 -2.0300
 8199TIP3   OH246087   6.240   0.946  11.302 -0.2980 -0.4361  0.0921
 8199TIP3    H146088   6.189   0.886  11.248 -3.6568  1.4157  0.9259
 8199TIP3    H246089   6.220   1.033  11.266  1.5236  0.4730  1.1392
 8200TIP3   OH246090   1.772   3.099   3.260 -0.4743  0.3813  0.1039
 8200TIP3    H146091   1.846   3.048   3.295 -0.2881  1.0333  0.6846
 8200TIP3    H246092   1.705   3.034   3.242  0.7049 -0.4125 -1.6995
 8201TIP3   OH246093   1.943   1.948  10.591 -0.3440 -0.4142 -0.1359
 8201TIP3    H146094   2.036   1.958  10.570 -0.4742 -1.8263 -1.5524
 8201TIP3    H246095   1.929   1.854  10.592 -1.9663 -0.2167 -0.9963
 8202TIP3   OH246096   0.717   3.288   3.337 -0.0459  0.1842  0.6880
 8202TIP3    H146097   0.792   3.305   3.394  0.1166  0.9971  0.2463
 8202TIP3    H246098   0.684   3.375   3.315  0.0972 -0.0965 -0.7193
 8203TIP3   OH246099   4.320   4.819   2.602 -0.4055 -0.5786  0.3288
 8203TIP3    H146100   4.245   4.786   2.652 -0.0827  1.3896  2.3082
 8203TIP3    H246101   4.389   4.754   2.615 -0.9139 -1.0201  0.9018
 8204TIP3   OH246102   1.509   4.631   4.705 -0.5030 -0.4250  0.3977
 8204TIP3    H146103   1.587   4.581   4.729 -0.4416  0.1910  1.5273
 8204TIP3    H246104   1.440   4.565   4.698 -0.3124 -0.7515  1.3897
 8205TIP3   OH246105   2.273   6.642  13.411 -0.5205  0.3046 -0.3918
 8205TIP3    H146106   2.331   6.588  13.357 -0.5016 -1.2887  1.1298
 8205TIP3    H246107   2.263   6.723  13.361  0.2998 -0.6846 -2.2827
 8206TIP3   OH246108   1.228   5.587  11.794  0.1100 -0.5175  0.9071
 8206TIP3    H146109   1.313   5.592  11.838 -0.4739  1.6670  1.9762
 8206TIP3    H246110   1.245   5.618  11.705  0.6344 -1.2460  0.7503
 8207TIP3   OH246111   1.264   2.987   3.835 -0.6280  0.0069 -0.4767
 8207TIP3    H146112   1.189   3.045   3.819 -0.2293  0.4776 -0.6773
 8207TIP3    H246113   1.233   2.900   3.810 -0.7335  0.3836 -1.7223
 8208TIP3   OH246114   0.201   5.855  16.766 -0.3017 -0.1473  0.6096
 8208TIP3    H146115   0.131   5.909  16.729 -0.3994 -0.2073  0.7044
 8208TIP3    H246116   0.212   5.888  16.855 -0.4087 -0.3283  0.6902
 8209TIP3   OH246117   3.770   0.830  12.492  0.0836 -0.0967 -0.1828
 8209TIP3    H146118   3.693   0.886  12.502  0.5684  0.6693 -0.6281
 8209TIP3    H246119   3.772   0.777  12.572  1.0543  2.3466  1.5341
 8210TIP3   OH246120   3.110   3.212   4.610 -0.0715  0.1013  0.4659
 8210TIP3    H146121   3.075   3.297   4.584  0.2904 -0.1958 -1.0859
 8210TIP3    H246122   3.203   3.228   4.624  0.0515 -0.1008 -0.1194
 8211TIP3   OH246123   0.578   5.901   1.440  0.2080 -0.2606 -0.1552
 8211TIP3    H146124   0.518   5.846   1.491 -0.1619  0.9772  0.8136
 8211TIP3    H246125   0.664   5.884   1.477  0.0486  0.0460  0.3635
 8212TIP3   OH246126   3.858   1.037  12.111 -0.0677 -0.2625 -0.2979
 8212TIP3    H146127   3.813   0.955  12.092 -0.4471 -0.1926  0.2876
 8212TIP3    H246128   3.860   1.042  12.206  0.1471  0.3015 -0.3276
 8213TIP3   OH246129   3.735   4.091   3.235 -0.9864  0.0357  0.1464
 8213TIP3    H146130   3.773   4.155   3.175 -1.9786  0.8038  0.3037
 8213TIP3    H246131   3.662   4.053   3.186 -0.5796 -0.7905  0.1598
 8214TIP3   OH246132   5.897   6.464  14.410 -0.3259  0.1050 -0.1511
 8214TIP3    H146133   5.939   6.502  14.333 -0.6683  0.2397 -0.2723
 8214TIP3    H246134   5.920   6.523  14.482  0.9378 -0.6163  0.0827
 8215TIP3   OH246135   4.411   3.823  12.148  0.1341  0.0913 -0.2579
 8215TIP3    H146136   4.417   3.772  12.067  0.8140  0.3005 -0.3429
 8215TIP3    H246137   4.467   3.899  12.132 -0.7073  0.7609 -0.0521
 8216TIP3   OH246138   1.144   1.721  13.384 -0.1659 -0.2624 -0.1908
 8216TIP3    H146139   1.119   1.651  13.325 -0.4102 -1.4545  1.2815
 8216TIP3    H246140   1.240   1.714  13.391 -0.2619 -1.0231  0.5980
 8217TIP3   OH246141   4.369   1.786   1.435 -0.2515  0.1216 -0.4355
 8217TIP3    H146142   4.431   1.745   1.374  1.2824  1.6083  0.0539
 8217TIP3    H246143   4.424   1.822   1.505 -1.3428  3.4966 -1.1100
 8218TIP3   OH246144   4.417   6.663  13.336 -0.1737 -0.4574  0.2246
 8218TIP3    H146145   4.361   6.650  13.412 -1.3961  0.3793 -0.4970
 8218TIP3    H246146   4.489   6.717  13.367 -0.2678 -0.7469  0.9517
 8219TIP3   OH246147   5.985   0.802  15.216 -0.5748 -0.5601 -0.4337
 8219TIP3    H146148   5.968   0.817  15.310 -1.0511 -0.7906 -0.4774
 8219TIP3    H246149   6.072   0.762  15.213  0.2321  1.1096 -0.2288
 8220TIP3   OH246150   1.690   4.029   0.812  0.4431 -0.1136  0.7144
 8220TIP3    H146151   1.750   4.033   0.886 -0.0811 -0.1875  1.1567
 8220TIP3    H246152   1.607   4.061   0.848  0.1908 -0.1243  0.1490
 8221TIP3   OH246153   5.082   1.377  13.789  0.2154  0.2188  0.0164
 8221TIP3    H146154   5.154   1.408  13.735  0.4713  0.9580  0.7617
 8221TIP3    H246155   5.121   1.307  13.843 -0.0456 -0.5343 -0.7490
 8222TIP3   OH246156   4.105   3.893   4.037 -0.2611  0.4833  0.0946
 8222TIP3    H146157   4.104   3.801   4.013  1.4269  0.1472  1.1235
 8222TIP3    H246158   4.176   3.931   3.986 -0.4884  1.0601  0.1974
 8223TIP3   OH246159   1.295   3.455   2.479 -0.1765  0.0424  0.5321
 8223TIP3    H146160   1.214   3.407   2.460 -0.4283  0.6071  0.1524
 8223TIP3    H246161   1.273   3.546   2.461  1.1413 -0.0062 -1.6024
 8224TIP3   OH246162   6.220   3.663  12.538  0.1004 -0.9212  0.6582
 8224TIP3    H146163   6.239   3.689  12.448  0.4645  3.0665  1.7194
 8224TIP3    H246164   6.129   3.634  12.536 -0.0924 -0.3154 -0.8896
 8225TIP3   OH246165   3.376   0.730   2.844 -0.5355  0.3876 -0.7506
 8225TIP3    H146166   3.387   0.808   2.898 -3.1829  0.8657 -0.7701
 8225TIP3    H246167   3.329   0.668   2.900  1.6278 -1.3073 -0.6891
 8226TIP3   OH246168   4.723   1.677  12.410  0.4278 -0.5708  0.3158
 8226TIP3    H146169   4.659   1.721  12.467 -1.3598 -0.0784 -1.8811
 8226TIP3    H246170   4.690   1.587  12.402 -0.7326 -0.0352 -1.6809
 8227TIP3   OH246171   2.454   2.752  16.688  0.3680  0.5536  0.1727
 8227TIP3    H146172   2.458   2.823  16.624  0.1034 -1.5665 -2.3954
 8227TIP3    H246173   2.505   2.681  16.648 -1.0211 -1.3914  1.6311
 8228TIP3   OH246174   1.179   3.151  15.445 -0.4200 -0.6011  0.5938
 8228TIP3    H146175   1.218   3.224  15.493 -1.4626  1.3360 -1.3147
 8228TIP3    H246176   1.104   3.124  15.499 -0.4777  0.2694  0.9694
 8229TIP3   OH246177   5.558   3.531   5.281 -0.7845 -0.4704 -0.5128
 8229TIP3    H146178   5.583   3.440   5.300 -0.3190 -0.0201  1.1767
 8229TIP3    H246179   5.467   3.526   5.254 -0.4869 -1.5391 -1.4009
 8230TIP3   OH246180   2.652   0.096  15.834 -0.0034 -0.1980  0.2930
 8230TIP3    H146181   2.748   0.099  15.833 -0.0233  1.3288  1.1431
 8230TIP3    H246182   2.631   0.019  15.781  1.6985 -0.9138  0.5588
 8231TIP3   OH246183   4.306   3.711  16.187  0.1719 -0.1892  0.8142
 8231TIP3    H146184   4.350   3.655  16.250  0.2843 -1.2243 -0.1559
 8231TIP3    H246185   4.217   3.677  16.182 -0.4681  1.2140  1.9532
 8232TIP3   OH246186   1.814   0.909   3.916 -0.6635  0.4249  0.0583
 8232TIP3    H146187   1.808   0.850   3.992  0.0765 -0.9073 -0.8863
 8232TIP3    H246188   1.791   0.854   3.841  1.7935  0.8188 -1.0803
 8233TIP3   OH246189   3.716   5.233  12.309  0.1340  0.3768  0.4042
 8233TIP3    H146190   3.761   5.184  12.378  2.4436  1.1280 -0.4649
 8233TIP3    H246191   3.628   5.246  12.342  0.2629 -1.9173  1.8644
 8234TIP3   OH246192   1.153   3.827  13.652 -0.0328  0.2135 -0.5148
 8234TIP3    H146193   1.234   3.843  13.699 -0.0586  0.5295 -0.5764
 8234TIP3    H246194   1.140   3.905  13.598 -0.3067  0.1083 -0.6065
 8235TIP3   OH246195   3.559   1.030  15.316 -0.5424  0.1701  0.1472
 8235TIP3    H146196   3.482   1.049  15.262  0.2463  1.9694 -0.4471
 8235TIP3    H246197   3.630   1.078  15.273  0.4930  0.1749  1.7884
 8236TIP3   OH246198   6.385   3.822  17.148 -0.7470 -0.2904 -0.0712
 8236TIP3    H146199   6.379   3.884  17.076 -0.9758  0.8061  0.8507
 8236TIP3    H246200   6.295   3.812  17.179 -0.3850  1.4492  1.7924
 8237TIP3   OH246201   5.550   1.088   2.973 -0.4984 -0.0450 -0.6596
 8237TIP3    H146202   5.490   1.018   2.948  0.4230 -0.7865 -0.8465
 8237TIP3    H246203   5.578   1.127   2.890  0.3509 -0.6305 -0.6655
 8238TIP3   OH246204   5.134   2.540  13.417  0.4195 -0.2441  0.4965
 8238TIP3    H146205   5.113   2.449  13.396  0.6656 -0.3044  0.5077
 8238TIP3    H246206   5.222   2.554  13.381  0.4982 -0.0976  0.7374
 8239TIP3   OH246207   3.355   2.251  10.912 -0.2100 -0.3489 -0.0837
 8239TIP3    H146208   3.264   2.280  10.918 -0.9083 -2.0127 -1.6622
 8239TIP3    H246209   3.380   2.270  10.822  1.1362  0.3556  0.4127
 8240TIP3   OH246210   5.325   0.858   1.032  0.1114  0.4531  0.1898
 8240TIP3    H146211   5.371   0.785   0.992  0.3800  1.0582 -0.6349
 8240TIP3    H246212   5.251   0.874   0.973 -0.3670  0.3707  0.7644
 8241TIP3   OH246213   1.053   5.677  12.016  0.4668  0.4588 -0.2383
 8241TIP3    H146214   0.963   5.704  12.002 -0.1232 -1.9892 -1.6116
 8241TIP3    H246215   1.086   5.655  11.928  1.1146 -2.3791  0.6352
 8242TIP3   OH246216   1.058   4.622   1.435 -0.8011 -0.3677 -0.1950
 8242TIP3    H146217   1.007   4.681   1.378 -1.7751  0.0229  1.0494
 8242TIP3    H246218   1.146   4.660   1.434 -1.0340  0.1915 -0.6694
 8243TIP3   OH246219   0.151   2.064  17.221  0.5238  0.5126  0.5799
 8243TIP3    H146220   0.138   2.155  17.196 -1.4108  0.6954  2.0764
 8243TIP3    H246221   0.185   2.068  17.310  0.1922 -0.2348  0.7478
 8244TIP3   OH246222   5.394   3.134   0.696 -0.1085  0.1394 -0.2237
 8244TIP3    H146223   5.343   3.056   0.717 -0.6107  0.2364 -1.0466
 8244TIP3    H246224   5.484   3.102   0.688 -0.1596 -0.1779  0.4159
 8245TIP3   OH246225   3.336   2.333  13.396  0.1170 -0.0761 -0.5742
 8245TIP3    H146226   3.407   2.342  13.459 -0.6148  1.6352  0.0602
 8245TIP3    H246227   3.266   2.389  13.429 -1.1662 -0.9173 -1.7157
 8246TIP3   OH246228   5.726   0.788   1.221 -0.1050 -0.3491 -0.3537
 8246TIP3    H146229   5.782   0.718   1.255 -0.7622 -0.5396  0.3698
 8246TIP3    H246230   5.785   0.863   1.213  0.5642 -0.9213 -0.9561
 8247TIP3   OH246231   2.621   1.610  11.785 -0.5052  0.3990 -0.0424
 8247TIP3    H146232   2.559   1.556  11.834 -0.6029  0.3716 -0.1962
 8247TIP3    H246233   2.705   1.597  11.830 -0.9186  1.7651  1.2240
 8248TIP3   OH246234   0.119   4.252  13.414 -0.5011 -0.2162 -0.2812
 8248TIP3    H146235   0.213   4.263  13.428 -0.1260 -1.6149 -1.4261
 8248TIP3    H246236   0.089   4.339  13.386  0.4323  0.2619  0.1492
 8249TIP3   OH246237   4.333   3.833  11.393  0.1344  0.4840  0.5231
 8249TIP3    H146238   4.342   3.910  11.337  2.9973 -0.1012  0.0105
 8249TIP3    H246239   4.421   3.797  11.399 -1.1229 -3.1906  0.1305
 8250TIP3   OH246240   2.940   0.027  16.914  0.3099  0.0493 -0.2744
 8250TIP3    H146241   2.943   0.118  16.884  0.5038  0.3004  0.4872
 8250TIP3    H246242   2.847   0.007  16.922  0.2716  0.6063  0.7939
 8251TIP3   OH246243   3.515   2.480  14.154 -0.7445  0.3981  0.2714
 8251TIP3    H146244   3.465   2.491  14.074  1.0765 -1.1202 -1.1607
 8251TIP3    H246245   3.558   2.395  14.145  0.4815  0.7252  2.3057
 8252TIP3   OH246246   4.865   2.102  14.294  0.3215  0.4998 -0.4358
 8252TIP3    H146247   4.925   2.034  14.263  1.2006  0.4727  1.1694
 8252TIP3    H246248   4.918   2.154  14.355 -1.3142  0.4101  1.1463
 8253TIP3   OH246249   6.652   3.800   4.669  0.0069  0.2248  0.4012
 8253TIP3    H146250   6.646   3.854   4.748  0.7312  2.8589 -1.2094
 8253TIP3    H246251   6.664   3.711   4.702  4.3198  1.5588  3.4220
 8254TIP3   OH246252   1.954   4.963  10.645  0.2597  0.5084 -0.5546
 8254TIP3    H146253   1.946   4.875  10.607  2.0744 -0.4580  1.0815
 8254TIP3    H246254   1.970   4.947  10.738 -0.7059  2.6564  0.0335
 8255TIP3   OH246255   0.004   0.678  14.652 -0.3584  0.2615 -0.3877
 8255TIP3    H146256   0.071   0.613  14.629 -0.5818 -0.6063  1.2876
 8255TIP3    H246257  -0.021   0.717  14.568  1.7187  0.0984 -1.1392
 8256TIP3   OH246258   2.845   3.050  12.263  0.2951  0.1656  0.7368
 8256TIP3    H146259   2.844   3.091  12.176 -0.8631  1.1442  1.1865
 8256TIP3    H246260   2.771   2.990  12.262  0.0368  0.4702  1.1701
 8257TIP3   OH246261   4.662   3.324  13.745  0.1383  0.0387  0.4094
 8257TIP3    H146262   4.599   3.384  13.785  0.9236  3.3214 -2.8312
 8257TIP3    H246263   4.608   3.267  13.689 -0.2327  0.6125  0.1795
 8258TIP3   OH246264   6.393   3.346   0.495 -0.0890 -0.0761  0.7410
 8258TIP3    H146265   6.454   3.393   0.553 -0.1264  0.7742  0.1100
 8258TIP3    H246266   6.326   3.411   0.474 -1.2957 -1.0332  1.5063
 8259TIP3   OH246267   1.321   5.333  13.869 -0.1318  0.5886 -0.2873
 8259TIP3    H146268   1.244   5.381  13.900  0.3053  0.9150  0.3202
 8259TIP3    H246269   1.290   5.285  13.793 -0.8248  1.0799 -0.3274
 8260TIP3   OH246270   5.017   5.745   2.283 -0.1628  0.7953 -0.8316
 8260TIP3    H146271   4.986   5.790   2.361 -0.8475  0.2014 -0.7477
 8260TIP3    H246272   5.069   5.672   2.317  0.7589  1.3778 -0.9624
 8261TIP3   OH246273   5.681   4.958  11.097 -0.0421 -0.2751  0.3562
 8261TIP3    H146274   5.592   4.928  11.114  0.2024 -0.8906  0.5602
 8261TIP3    H246275   5.680   5.051  11.122 -1.5273  0.7058 -2.8144
 8262TIP3   OH246276   1.812   3.319   0.405 -0.4587 -0.6699 -0.2164
 8262TIP3    H146277   1.898   3.360   0.403 -0.2664 -0.9318  1.5176
 8262TIP3    H246278   1.793   3.299   0.313  1.4955 -0.9711 -0.6015
 8263TIP3   OH246279   3.804   0.243  12.567  0.0013  0.4806  0.3378
 8263TIP3    H146280   3.879   0.235  12.626  0.9406 -1.6781 -1.0321
 8263TIP3    H246281   3.792   0.338  12.557  1.4684  0.8799  1.9119
 8264TIP3   OH246282   0.407   1.936  16.712 -0.3643 -0.7022  0.0173
 8264TIP3    H146283   0.496   1.916  16.741 -0.0199  1.3373  0.5702
 8264TIP3    H246284   0.410   2.029  16.688 -2.8304  0.0924  2.2390
 8265TIP3   OH246285   0.107   6.701   0.110  0.3497 -0.1778  0.5505
 8265TIP3    H146286   0.186   6.729   0.157  0.3668 -0.7187  0.8510
 8265TIP3    H246287   0.137   6.632   0.052  0.6156  1.4667 -1.3834
 8266TIP3   OH246288   2.882   1.524  11.248  0.8844  0.1411  0.5695
 8266TIP3    H146289   2.871   1.435  11.215  1.0262  0.2699  0.1730
 8266TIP3    H246290   2.828   1.578  11.192  2.1115  0.5328 -0.2758
 8267TIP3   OH246291   4.389   5.085  17.110 -0.4241  0.0508 -0.0476
 8267TIP3    H146292   4.319   5.093  17.045  1.2817  2.2117 -1.7792
 8267TIP3    H246293   4.344   5.093  17.195 -2.4109 -0.1382 -1.0205
 8268TIP3   OH246294   1.642   4.941  15.151  0.1279 -0.2477 -0.8617
 8268TIP3    H146295   1.650   4.850  15.121  0.7728 -0.6120  0.3611
 8268TIP3    H246296   1.730   4.964  15.181 -0.2043  0.5345 -0.4578
 8269TIP3   OH246297   6.494   2.115   5.290  0.1717  0.0953 -0.9755
 8269TIP3    H146298   6.514   2.036   5.239 -1.5028 -1.4503  0.6146
 8269TIP3    H246299   6.399   2.120   5.290  0.2433  2.1426 -0.9899
 8270TIP3   OH246300   6.790   2.455   6.018  0.0280 -0.0537 -1.0491
 8270TIP3    H146301   6.715   2.488   5.969 -0.9306 -1.7073 -0.7535
 8270TIP3    H246302   6.865   2.467   5.959 -0.3495  1.9771 -1.1978
 8271TIP3   OH246303   4.999   4.895  13.965 -0.1810 -0.4693 -0.0004
 8271TIP3    H146304   5.063   4.918  13.897 -0.2752 -2.0554 -0.6726
 8271TIP3    H246305   5.003   4.968  14.027 -0.1354  1.0826 -1.7278
 8272TIP3   OH246306   0.149   5.402  13.481  0.4160 -0.2603 -0.3177
 8272TIP3    H146307   0.117   5.493  13.477  1.6574  0.1540 -2.6270
 8272TIP3    H246308   0.109   5.360  13.405 -0.6875 -1.9184  1.0947
 8273TIP3   OH246309   3.258   5.147  13.383  0.4423 -0.2000 -0.2820
 8273TIP3    H146310   3.324   5.216  13.390  1.3169 -1.0158 -0.4179
 8273TIP3    H246311   3.307   5.066  13.377 -0.5471 -0.7631 -1.2515
 8274TIP3   OH246312   0.555   6.612  16.618 -0.6322 -0.1546  0.1629
 8274TIP3    H146313   0.495   6.549  16.657 -1.6439  0.1544 -0.8553
 8274TIP3    H246314   0.620   6.559  16.573  0.7523 -0.5371  2.4180
 8275TIP3   OH246315   1.563   0.965  12.282 -0.0808  0.3058  0.6630
 8275TIP3    H146316   1.599   1.054  12.289 -1.1801  0.7665  0.7814
 8275TIP3    H246317   1.585   0.923  12.365  1.3572  0.0892  0.2049
 8276TIP3   OH246318   2.076   2.284  11.422 -0.2115  0.1661  0.3274
 8276TIP3    H146319   2.159   2.255  11.384  0.2837  0.2538  1.3125
 8276TIP3    H246320   2.097   2.367  11.464 -1.6577  2.2074 -2.6420
 8277TIP3   OH246321   2.155   3.261   0.007  0.3016  0.0321 -0.3557
 8277TIP3    H146322   2.158   3.355   0.024  0.0407 -0.1958  1.1042
 8277TIP3    H246323   2.121   3.223   0.088 -1.2718 -1.1728 -1.5171
 8278TIP3   OH246324   0.695   4.628   3.524  0.2454  0.3726  0.5927
 8278TIP3    H146325   0.634   4.636   3.451 -0.5815 -0.1750  1.2120
 8278TIP3    H246326   0.709   4.534   3.533  0.3661  0.4407  1.1227
 8279TIP3   OH246327   4.530   3.931   2.995  0.3378  0.3354  0.4947
 8279TIP3    H146328   4.503   3.932   3.087 -0.9727  1.6256  0.1362
 8279TIP3    H246329   4.579   4.012   2.984 -1.0777  1.1121 -0.3471
 8280TIP3   OH246330   1.389   0.319  11.167  0.1121  0.0569 -0.0239
 8280TIP3    H146331   1.395   0.326  11.071 -1.6861 -0.2488 -0.1961
 8280TIP3    H246332   1.318   0.257  11.182 -0.1987  0.7285  1.5118
 8281TIP3   OH246333   4.231   0.244  11.231  0.2969  0.3545 -0.5254
 8281TIP3    H146334   4.309   0.281  11.272 -1.6044  0.0154  4.0025
 8281TIP3    H246335   4.179   0.320  11.206  0.2511  0.6703  0.4827
 8282TIP3   OH246336   2.906   0.209   4.590  0.2257  0.0821 -0.1463
 8282TIP3    H146337   2.970   0.270   4.627 -1.4007  1.7259  0.0487
 8282TIP3    H246338   2.897   0.236   4.499 -0.3623  0.0162 -0.1104
 8283TIP3   OH246339   4.344   2.331  16.749 -0.3866 -0.4453 -0.5509
 8283TIP3    H146340   4.307   2.318  16.836 -1.2897 -0.7419 -0.9742
 8283TIP3    H246341   4.372   2.244  16.721  1.6952 -0.0751  0.2105
 8284TIP3   OH246342   0.709   3.250  14.284 -0.2723 -0.3361 -0.0453
 8284TIP3    H146343   0.784   3.242  14.343 -0.7415  0.0441  0.6037
 8284TIP3    H246344   0.634   3.266  14.341 -0.7471 -0.0513 -0.7333
 8285TIP3   OH246345   6.531   2.786  16.738  0.1594  0.4975  0.3967
 8285TIP3    H146346   6.517   2.877  16.765  0.4850  1.1301 -1.4536
 8285TIP3    H246347   6.584   2.792  16.659 -0.9067 -1.2503 -0.5121
 8286TIP3   OH246348   6.496   3.679  16.221  0.5817 -0.4528  0.0526
 8286TIP3    H146349   6.562   3.649  16.158  0.4410  0.2138 -0.4299
 8286TIP3    H246350   6.471   3.600  16.269  1.0018 -0.8989 -0.4414
 8287TIP3   OH246351   0.904   6.658   4.706 -0.4896 -0.2127  0.1841
 8287TIP3    H146352   0.812   6.683   4.712 -0.1540  1.3827 -0.7112
 8287TIP3    H246353   0.908   6.598   4.631 -0.8420 -0.5902  0.4628
 8288TIP3   OH246354   1.535   5.057  16.874  0.2649 -0.4627  0.4297
 8288TIP3    H146355   1.483   4.996  16.824  0.2646  1.2050 -1.7550
 8288TIP3    H246356   1.472   5.120  16.909  0.5882  0.5616 -0.7575
 8289TIP3   OH246357   0.868   2.508  15.330  0.1675  0.3216  0.3813
 8289TIP3    H146358   0.961   2.531  15.343  0.2723 -0.8315  1.9215
 8289TIP3    H246359   0.862   2.486  15.237  1.9274 -1.5546  0.6359
 8290TIP3   OH246360   1.165   1.657  11.234  0.5649 -0.1452  0.5264
 8290TIP3    H146361   1.256   1.686  11.230  0.5477 -0.0144  0.9728
 8290TIP3    H246362   1.130   1.699  11.312  0.4429 -1.1057  1.0098
 8291TIP3   OH246363   2.197   2.400  16.149 -0.3694 -0.1602 -0.0622
 8291TIP3    H146364   2.150   2.338  16.094  1.3348  0.4031 -2.2916
 8291TIP3    H246365   2.224   2.470  16.089  1.9519  0.2936  1.3937
 8292TIP3   OH246366   1.775   1.538  16.719 -0.3858 -0.5063 -0.7239
 8292TIP3    H146367   1.814   1.615  16.676 -2.6382 -0.1273 -2.2855
 8292TIP3    H246368   1.732   1.574  16.797 -0.9341 -0.2782 -1.1296
 8293TIP3   OH246369   4.461   3.583   3.579  0.2950  0.0330  0.2454
 8293TIP3    H146370   4.394   3.541   3.634 -0.9953 -0.7450 -1.8036
 8293TIP3    H246371   4.436   3.675   3.579  0.8057  0.2047  1.5691
 8294TIP3   OH246372   4.834   3.884   5.550 -0.7785  0.2227 -0.1957
 8294TIP3    H146373   4.823   3.802   5.502  1.0111  0.0369 -0.3476
 8294TIP3    H246374   4.822   3.952   5.484 -0.6491  0.0344 -0.4171
 8295TIP3   OH246375   6.824   6.546   5.585 -0.5529  0.1026 -0.4571
 8295TIP3    H146376   6.819   6.618   5.648  3.1003 -2.3620  3.1119
 8295TIP3    H246377   6.865   6.586   5.508 -0.4511  2.2523  0.6116
 8296TIP3   OH246378   1.259   6.344  13.705  0.0855  0.2521  0.4705
 8296TIP3    H146379   1.326   6.361  13.639 -2.0150 -0.1343 -1.9318
 8296TIP3    H246380   1.228   6.432  13.730 -0.1902  0.3859 -0.3027
 8297TIP3   OH246381   4.322   3.832   4.886  0.3495 -0.6808 -0.0549
 8297TIP3    H146382   4.393   3.862   4.942 -0.5175  0.1149  0.6535
 8297TIP3    H246383   4.322   3.737   4.897  0.5290 -0.5806  0.8930
 8298TIP3   OH246384   2.265   6.206  15.141 -0.2797 -0.2161 -0.2764
 8298TIP3    H146385   2.237   6.265  15.071  0.1389 -0.9599 -1.0874
 8298TIP3    H246386   2.193   6.145  15.153  0.3026 -1.1009 -1.2069
 8299TIP3   OH246387   3.061   0.720   1.289 -0.5319  0.2327 -0.0182
 8299TIP3    H146388   3.003   0.649   1.317  0.4736 -1.1215 -1.2535
 8299TIP3    H246389   3.010   0.800   1.305 -3.0104 -0.9067 -1.5169
 8300TIP3   OH246390   3.559   2.662   0.086  0.3172 -0.1372  0.0689
 8300TIP3    H146391   3.524   2.679   0.173 -0.2490 -3.0584  0.5111
 8300TIP3    H246392   3.506   2.716   0.028 -1.5285 -0.5842  1.2536
 8301TIP3   OH246393   4.147   0.343   4.402  0.0221 -0.6786 -0.5087
 8301TIP3    H146394   4.064   0.387   4.424 -0.1204 -1.1259 -0.1386
 8301TIP3    H246395   4.127   0.250   4.410  0.7172 -0.7740  0.1353
 8302TIP3   OH246396   5.356   4.855   1.764  0.2595  0.5691 -0.7650
 8302TIP3    H146397   5.422   4.799   1.723  1.7133  0.6594  1.2730
 8302TIP3    H246398   5.404   4.935   1.789 -0.2949  0.2418  1.6493
 8303TIP3   OH246399   0.644   0.423   1.328  0.3930 -0.3590  0.1240
 8303TIP3    H146400   0.632   0.501   1.382  2.0960 -0.6266  0.9454
 8303TIP3    H246401   0.702   0.451   1.257  1.0749 -0.8954  0.4666
 8304TIP3   OH246402   1.662   5.023  16.576  0.5911 -0.3392 -0.2610
 8304TIP3    H146403   1.667   5.073  16.494  1.6278 -0.6303 -0.3866
 8304TIP3    H246404   1.658   5.090  16.644  1.0303 -0.0840 -0.4800
 8305TIP3   OH246405   5.894   1.635  11.311 -0.4377  0.7637  0.2300
 8305TIP3    H146406   5.844   1.707  11.351 -2.6163 -0.4035 -0.2233
 8305TIP3    H246407   5.832   1.595  11.250  0.5349 -1.7749  0.8061
 8306TIP3   OH246408   1.150   0.726   0.636 -0.4929 -0.2756 -0.4503
 8306TIP3    H146409   1.109   0.714   0.551 -1.7684  1.5225 -0.1505
 8306TIP3    H246410   1.139   0.820   0.655  0.5716 -0.4578  1.2752
 8307TIP3   OH246411   4.623   6.229   2.965  0.3395 -0.3491  0.0388
 8307TIP3    H146412   4.630   6.217   3.060 -1.5005 -2.0842  0.0217
 8307TIP3    H246413   4.704   6.191   2.931 -1.3849 -5.3205  0.6735
 8308TIP3   OH246414   0.225   0.818   4.932 -0.2274 -0.1440 -0.1532
 8308TIP3    H146415   0.208   0.770   4.851  0.4072  0.5323 -0.7080
 8308TIP3    H246416   0.313   0.790   4.958 -0.7977 -1.0828  0.8463
 8309TIP3   OH246417   1.756   2.816   2.805  0.1970  0.0889 -0.3433
 8309TIP3    H146418   1.673   2.864   2.805  0.5739  0.7980  0.6530
 8309TIP3    H246419   1.822   2.885   2.796  0.6736 -0.5347 -1.9238
 8310TIP3   OH246420   2.449   6.418   4.786  0.3021  0.0391  0.6587
 8310TIP3    H146421   2.377   6.356   4.776 -0.6918  1.1840  0.5853
 8310TIP3    H246422   2.494   6.417   4.702  0.1703 -0.4238  0.5917
 8311TIP3   OH246423   0.388   5.639  12.289  0.0521 -0.4928  1.1396
 8311TIP3    H146424   0.428   5.716  12.248  1.1720 -0.1302  2.8224
 8311TIP3    H246425   0.314   5.617  12.232  1.2678  0.2216 -0.8161
 8312TIP3   OH246426   3.410   5.039   3.234  0.5862 -0.3108 -0.0086
 8312TIP3    H146427   3.501   5.061   3.254 -0.3726  2.6022  1.6615
 8312TIP3    H246428   3.383   5.106   3.171 -0.9486  0.1595  1.0992
 8313TIP3   OH246429   3.858   2.203   2.703 -0.7977 -0.2125 -0.3060
 8313TIP3    H146430   3.828   2.151   2.628  0.2070  0.1332 -0.9619
 8313TIP3    H246431   3.941   2.162   2.728 -0.0411  0.9882 -0.7672
 8314TIP3   OH246432   5.664   5.055  10.179 -0.6470 -0.5701  0.4384
 8314TIP3    H146433   5.735   5.120  10.181  0.0951 -1.3744  1.1139
 8314TIP3    H246434   5.628   5.062  10.091 -2.6949  2.9449  1.3819
 8315TIP3   OH246435   3.993   5.383   5.059  0.7972  0.4858 -0.0677
 8315TIP3    H146436   4.034   5.394   5.145 -0.5813  0.9559  0.5644
 8315TIP3    H246437   3.939   5.462   5.048  0.2483  0.0085 -0.9608
 8316TIP3   OH246438   4.650   0.214  14.180  0.1718  0.1354 -0.0054
 8316TIP3    H146439   4.741   0.233  14.157 -0.7904  2.7710 -2.1420
 8316TIP3    H246440   4.651   0.121  14.205  3.3319 -0.0555 -0.3675
 8317TIP3   OH246441   3.162   5.299   0.157 -0.4498 -0.1168  0.3931
 8317TIP3    H146442   3.220   5.222   0.161 -1.1545 -0.6283  1.1436
 8317TIP3    H246443   3.153   5.317   0.063  1.4593  0.4080  0.2632
 8318TIP3   OH246444   5.797   5.479  14.039  0.0089  0.3876 -0.3262
 8318TIP3    H146445   5.887   5.507  14.024  0.4085 -0.7306 -0.0963
 8318TIP3    H246446   5.749   5.561  14.055  0.6680  1.1379 -1.9122
 8319TIP3   OH246447   2.839   1.939  14.619  0.2175  0.4161 -0.7020
 8319TIP3    H146448   2.829   2.024  14.662  2.9832 -0.9201  3.1557
 8319TIP3    H246449   2.865   1.961  14.530  1.4123  3.6785  0.2708
 8320TIP3   OH246450   6.463   1.511  13.081 -0.3502 -0.7679  0.6397
 8320TIP3    H146451   6.501   1.574  13.143  0.6968 -0.4835 -0.2633
 8320TIP3    H246452   6.488   1.544  12.995 -2.9775 -0.3682 -0.0607
 8321TIP3   OH246453   1.733   4.969  11.242 -0.1664 -0.4512 -0.0338
 8321TIP3    H146454   1.671   4.918  11.189 -1.0433  0.2038  0.3225
 8321TIP3    H246455   1.745   4.916  11.321  1.6409 -1.7385 -1.0958
 8322TIP3   OH246456   6.313   1.389  13.375  0.8151  0.2700  0.0090
 8322TIP3    H146457   6.222   1.397  13.347  1.3282 -0.4961 -2.0703
 8322TIP3    H246458   6.334   1.474  13.413 -0.8852  0.2916  0.9806
 8323TIP3   OH246459   3.536   2.879   1.457 -0.0829  0.5527  0.1794
 8323TIP3    H146460   3.587   2.807   1.494 -1.4683 -1.1555 -1.0344
 8323TIP3    H246461   3.470   2.899   1.523  0.6765  1.1696  0.7735
 8324TIP3   OH246462   6.004   5.949   2.822  0.0517 -0.2446  0.3228
 8324TIP3    H146463   5.952   5.876   2.856  0.3295 -1.4119 -1.6466
 8324TIP3    H246464   6.088   5.910   2.800  0.4802  0.8479 -0.0354
 8325TIP3   OH246465   4.089   5.185   4.905  0.2320 -0.0148  0.0387
 8325TIP3    H146466   4.044   5.254   4.954  0.0708  0.6543 -1.0286
 8325TIP3    H246467   4.083   5.212   4.814 -0.5374 -1.8397 -0.4986
 8326TIP3   OH246468   3.371   2.219   4.017 -0.3820  0.3768  0.2203
 8326TIP3    H146469   3.370   2.189   4.108  1.4495  1.3591  0.6227
 8326TIP3    H246470   3.388   2.140   3.966 -2.5803 -0.3920  0.5711
 8327TIP3   OH246471   4.295   6.640   5.159 -0.9877 -0.1735 -0.0356
 8327TIP3    H146472   4.264   6.558   5.195 -0.1344 -0.9294 -0.9695
 8327TIP3    H246473   4.346   6.615   5.081  1.1274  1.0388  0.8619
 8328TIP3   OH246474   1.671   0.665   4.369 -0.3440 -0.0900  0.6584
 8328TIP3    H146475   1.735   0.734   4.384 -0.9180  0.9972 -1.5779
 8328TIP3    H246476   1.587   0.709   4.371 -0.7205 -0.6952 -0.7596
 8329TIP3   OH246477   0.247   0.981   0.254 -0.1876  0.1683 -0.1301
 8329TIP3    H146478   0.204   0.934   0.326  2.8876 -1.5058  0.8257
 8329TIP3    H246479   0.288   1.056   0.297  0.3005  0.0762 -0.4321
 8330TIP3   OH246480   0.457   5.810   0.151 -0.7520 -0.1998 -0.0650
 8330TIP3    H146481   0.384   5.766   0.106 -0.8499 -0.4198  0.3101
 8330TIP3    H246482   0.415   5.880   0.202 -0.9381 -1.5292  1.6978
 8331TIP3   OH246483   6.169   3.753   4.167  0.2660  0.3110 -0.1031
 8331TIP3    H146484   6.158   3.838   4.210 -2.7234  0.1020 -0.2692
 8331TIP3    H246485   6.116   3.692   4.218 -1.0708 -0.5489 -2.3519
 8332TIP3   OH246486   2.585   4.610  11.795  0.3713 -0.0615  0.0656
 8332TIP3    H146487   2.547   4.535  11.750  2.1733 -1.2622  0.4387
 8332TIP3    H246488   2.619   4.666  11.725 -1.4484  0.7506 -0.2427
 8333TIP3   OH246489   3.784   0.187  15.851  0.3737  0.2854 -0.2042
 8333TIP3    H146490   3.869   0.181  15.895 -0.8388  0.9005  2.4788
 8333TIP3    H246491   3.742   0.103  15.870 -0.9842  1.3312  1.8518
 8334TIP3   OH246492   0.739   2.447  12.563  0.4579 -0.1426  0.2677
 8334TIP3    H146493   0.723   2.522  12.506 -0.8046 -0.5951  0.0046
 8334TIP3    H246494   0.753   2.485  12.650 -0.1656  0.4017  0.1355
 8335TIP3   OH246495   1.910   2.271   6.117  0.2691  0.2494 -0.3192
 8335TIP3    H146496   1.836   2.211   6.105  0.5337 -0.4789  1.3574
 8335TIP3    H246497   1.945   2.248   6.203  2.7515  0.2271 -1.2470
 8336TIP3   OH246498   6.411   0.796  11.701 -0.2327  0.3603 -0.3799
 8336TIP3    H146499   6.341   0.752  11.652 -0.2473  1.2104 -1.1494
 8336TIP3    H246500   6.372   0.813  11.786 -0.4998 -0.3795 -0.3432
 8337TIP3   OH246501   1.037   3.519   4.929 -0.0883 -0.0861  0.4632
 8337TIP3    H146502   1.081   3.559   5.004  0.5650  0.4269 -0.1743
 8337TIP3    H246503   0.944   3.526   4.949  0.0102  1.6010  0.4711
 8338TIP3   OH246504   5.583   1.310  15.123  0.0847  0.1993  0.5335
 8338TIP3    H146505   5.620   1.224  15.146  0.8935  0.8484  1.7523
 8338TIP3    H246506   5.527   1.332  15.197 -1.1964  0.1436 -0.3925
 8339TIP3   OH246507   3.851   4.379   3.833  0.2395  0.3632  0.2190
 8339TIP3    H146508   3.837   4.423   3.749  1.5253 -1.1118 -0.8386
 8339TIP3    H246509   3.873   4.288   3.809  1.6134  0.1418  2.0694
 8340TIP3   OH246510   3.483   4.969  14.597  0.3789 -0.5844  0.0955
 8340TIP3    H146511   3.405   4.914  14.607 -0.6114  0.7066 -0.2371
 8340TIP3    H246512   3.516   4.947  14.510 -1.6467  1.2423 -1.2709
 8341TIP3   OH246513   5.933   3.413   2.483  0.0783 -0.3048 -0.2425
 8341TIP3    H146514   5.874   3.433   2.556 -2.7978  0.4500 -2.5894
 8341TIP3    H246515   5.981   3.494   2.467 -1.9755  0.7578 -1.4139
 8342TIP3   OH246516   2.346   0.225  13.198 -0.7380 -0.3391 -0.1833
 8342TIP3    H146517   2.402   0.254  13.269  0.5960 -1.9198 -0.5224
 8342TIP3    H246518   2.293   0.155  13.236  0.0491 -1.2585 -0.7246
 8343TIP3   OH246519   3.060   5.086   2.217  0.2874 -0.4303 -0.3704
 8343TIP3    H146520   3.135   5.027   2.223 -0.2274 -1.0282  0.3078
 8343TIP3    H246521   3.077   5.154   2.281  0.5900 -0.1608 -0.7289
 8344TIP3   OH246522   3.786   0.006  12.817 -0.4706 -0.1863 -0.3042
 8344TIP3    H146523   3.819  -0.006  12.728  0.1296  1.3541 -0.3120
 8344TIP3    H246524   3.850  -0.040  12.872 -0.4761 -0.5654 -0.6073
 8345TIP3   OH246525   1.765   4.690   1.347  0.1987 -0.1024  0.0263
 8345TIP3    H146526   1.695   4.707   1.411  2.1676  2.7711  1.6386
 8345TIP3    H246527   1.803   4.607   1.374 -1.6749 -1.0506 -0.0804
 8346TIP3   OH246528   0.374   5.088  13.343 -0.8097 -0.3735 -0.7324
 8346TIP3    H146529   0.397   5.101  13.251 -2.2232 -0.4051 -1.1112
 8346TIP3    H246530   0.327   5.168  13.368  2.5018  1.2349  1.0193
 8347TIP3   OH246531   0.784   5.560  12.175 -0.5748  0.1868  0.6303
 8347TIP3    H146532   0.769   5.539  12.083  1.2361  1.8706 -0.1233
 8347TIP3    H246533   0.696   5.575  12.211 -1.2378  1.5094 -1.3582
 8348TIP3   OH246534   3.159   0.174   0.724  0.7834 -0.6899  0.3203
 8348TIP3    H146535   3.100   0.099   0.727 -4.5539  2.9591 -0.6244
 8348TIP3    H246536   3.173   0.190   0.631  3.2429 -1.2569  0.5156
 8349TIP3   OH246537   0.611   1.220   4.564  0.1725 -0.9458 -0.8468
 8349TIP3    H146538   0.541   1.250   4.507 -0.8087 -0.9027  0.3339
 8349TIP3    H246539   0.651   1.300   4.598  0.6876 -0.9705 -1.3977
 8350TIP3   OH246540   2.605   4.934   1.153 -0.0007  0.0346 -0.2722
 8350TIP3    H146541   2.638   4.901   1.236  1.3510  0.9477 -0.4037
 8350TIP3    H246542   2.546   4.866   1.121 -0.3454 -0.4320  1.3038
 8351TIP3   OH246543   5.562   5.850   0.947  0.1316 -0.4360 -0.3582
 8351TIP3    H146544   5.538   5.767   0.907  0.3484 -0.2536 -0.8747
 8351TIP3    H246545   5.565   5.832   1.041 -0.1848 -0.9166 -0.4374
 8352TIP3   OH246546   1.143   4.790  10.955  0.2574 -0.9796  0.2230
 8352TIP3    H146547   1.209   4.791  10.886 -0.5982 -0.0065 -0.6178
 8352TIP3    H246548   1.059   4.795  10.909 -0.3470 -0.6142  1.3147
 8353TIP3   OH246549   4.945   5.247  15.536  0.5838  0.0177 -0.4506
 8353TIP3    H146550   5.029   5.293  15.530  0.0432  0.9925 -0.7554
 8353TIP3    H246551   4.884   5.313  15.569 -0.1693 -0.5388 -0.7164
 8354TIP3   OH246552   1.551   3.754  13.605  0.0044 -0.3778 -0.0930
 8354TIP3    H146553   1.528   3.816  13.673  1.0715  1.2946 -1.1860
 8354TIP3    H246554   1.516   3.670  13.636 -0.4098  0.5076  2.0016
 8355TIP3   OH246555   1.889   1.540  12.361  0.1085 -0.1773 -0.0559
 8355TIP3    H146556   1.950   1.507  12.427  0.8318  1.1535 -0.0297
 8355TIP3    H246557   1.909   1.489  12.283  0.1199 -0.8826  0.3929
 8356TIP3   OH246558   6.108   0.650   3.630 -0.3984  0.7373 -0.0228
 8356TIP3    H146559   6.086   0.676   3.541  0.1262  1.4389  0.0476
 8356TIP3    H246560   6.027   0.612   3.664 -0.6097  0.4843 -0.7860
 8357TIP3   OH246561   3.402   3.594  13.213  0.2997 -0.2254 -0.6086
 8357TIP3    H146562   3.439   3.680  13.234 -0.5266  0.3477 -1.4101
 8357TIP3    H246563   3.358   3.566  13.294  1.3454 -0.3301 -0.0566
 8358TIP3   OH246564   4.045   3.624  15.585 -0.1915 -0.4430 -0.1089
 8358TIP3    H146565   4.044   3.692  15.517  0.9694 -2.4331 -2.2755
 8358TIP3    H246566   3.984   3.557  15.553  1.6185 -2.1826 -0.1009
 8359TIP3   OH246567   6.262   2.735  10.933  0.1202  0.1484 -0.7458
 8359TIP3    H146568   6.303   2.748  11.019  2.9166  1.9884 -2.2127
 8359TIP3    H246569   6.306   2.658  10.897 -0.8398 -0.4480 -0.6588
 8360TIP3   OH246570   2.008   2.035   2.876  0.2586  0.5473  0.0149
 8360TIP3    H146571   1.925   2.082   2.889  0.6664  1.7369 -1.4527
 8360TIP3    H246572   1.993   1.949   2.916 -1.0965  1.3135  1.2636
 8361TIP3   OH246573   4.016   6.200   1.342 -0.1694  0.2489  0.7009
 8361TIP3    H146574   3.940   6.157   1.380  0.3622 -1.3787 -0.0178
 8361TIP3    H246575   4.086   6.186   1.405 -0.3183  1.2922  1.1153
 8362TIP3   OH246576   4.657   2.353  13.905  0.3130  0.2464 -0.2869
 8362TIP3    H146577   4.596   2.336  13.833 -0.0366  1.5123 -0.3035
 8362TIP3    H246578   4.700   2.268  13.920 -0.7412 -0.4248 -0.9248
 8363TIP3   OH246579   2.211   4.762   4.240  0.1250  0.3075 -0.3423
 8363TIP3    H146580   2.240   4.845   4.204 -0.7033  1.6896  1.9871
 8363TIP3    H246581   2.274   4.742   4.309 -0.9893  0.2250  0.6833
 8364TIP3   OH246582   3.274   1.325   0.789 -0.1761  0.5426  0.2136
 8364TIP3    H146583   3.240   1.288   0.708  0.2598 -1.4443  0.8723
 8364TIP3    H246584   3.215   1.396   0.811 -3.1017 -1.7822  0.5298
 8365TIP3   OH246585   2.168   5.206  15.370  0.5860 -0.1837 -0.3221
 8365TIP3    H146586   2.086   5.254  15.369  1.3054  1.1307  0.4389
 8365TIP3    H246587   2.170   5.160  15.286 -2.4289 -2.9761  0.9383
 8366TIP3   OH246588   6.304   5.981   3.428 -0.0743  0.1779 -0.3044
 8366TIP3    H146589   6.334   5.899   3.467 -0.9982  0.2200  0.5430
 8366TIP3    H246590   6.380   6.039   3.432  0.3822 -0.4190 -0.2751
 8367TIP3   OH246591   0.963   0.599   6.308  0.0672 -0.0431  0.0405
 8367TIP3    H146592   1.044   0.631   6.267 -0.1173  1.4359  0.7598
 8367TIP3    H246593   0.899   0.668   6.293 -1.1702 -1.3119 -0.7326
 8368TIP3   OH246594   4.367   4.590  11.376  0.3184 -0.0480  0.2585
 8368TIP3    H146595   4.285   4.598  11.425  0.7651  0.4776  0.9456
 8368TIP3    H246596   4.425   4.655  11.416  2.1777 -2.6038  1.9751
 8369TIP3   OH246597   5.768   2.146   1.536  0.1015  0.2179 -0.2751
 8369TIP3    H146598   5.705   2.190   1.479 -0.7540 -0.2448  0.3053
 8369TIP3    H246599   5.851   2.191   1.518 -0.5730  1.4849 -0.3352
 8370TIP3   OH246600   1.727   3.794   6.929  0.0869 -0.7343 -0.6376
 8370TIP3    H146601   1.738   3.879   6.886 -0.8531 -0.7025 -0.8425
 8370TIP3    H246602   1.813   3.752   6.923  1.9145  1.8697  3.1983
 8371TIP3   OH246603   5.634   5.850  15.735 -0.2659  0.0851 -0.1021
 8371TIP3    H146604   5.625   5.916  15.804  0.3463  0.9296 -0.8150
 8371TIP3    H246605   5.548   5.848  15.693  0.0800  1.4420 -0.9518
 8372TIP3   OH246606   0.050   1.824  13.447 -0.3321  0.6889  1.2759
 8372TIP3    H146607   0.113   1.871  13.391 -0.3033  0.4565  1.1135
 8372TIP3    H246608   0.076   1.848  13.536  0.3514  0.1432  1.2373
 8373TIP3   OH246609   3.300   5.601   2.056 -0.1473 -0.2173 -0.7388
 8373TIP3    H146610   3.300   5.601   2.152 -2.6390  0.0700 -0.6613
 8373TIP3    H246611   3.362   5.670   2.032  0.8389 -0.5837  0.6459
 8374TIP3   OH246612   1.330   0.890  16.842 -0.1594  0.7866 -0.4226
 8374TIP3    H146613   1.316   0.968  16.896 -0.1620  2.3920 -2.6280
 8374TIP3    H246614   1.269   0.900  16.769  2.1208  0.4409 -2.4894
 8375TIP3   OH246615   3.041   2.197   4.368 -0.2584 -0.7236  0.3776
 8375TIP3    H146616   3.077   2.224   4.284 -1.6421 -2.7725 -0.9575
 8375TIP3    H246617   3.110   2.144   4.408  0.3597  0.1661  0.5232
 8376TIP3   OH246618   3.042   4.154  12.054 -0.0558  0.1011 -0.4123
 8376TIP3    H146619   3.127   4.132  12.093 -0.1059  0.6056 -0.0030
 8376TIP3    H246620   3.062   4.176  11.963  0.2676  0.3186 -0.2904
 8377TIP3   OH246621   5.400   6.481  13.322 -0.0778  0.2563 -0.4529
 8377TIP3    H146622   5.346   6.426  13.266  1.9521 -3.3422  0.7424
 8377TIP3    H246623   5.353   6.484  13.405 -0.2780  0.4298 -0.5744
 8378TIP3   OH246624   3.592   5.169  11.607 -0.1996  0.5858 -0.0327
 8378TIP3    H146625   3.612   5.255  11.643 -0.2319 -0.1443  1.8177
 8378TIP3    H246626   3.496   5.166  11.604 -0.2060  0.4931  0.2324
 8379TIP3   OH246627   1.668   1.223  12.282 -0.0474  0.1662 -0.0746
 8379TIP3    H146628   1.743   1.281  12.267  1.0786 -1.0182  0.7944
 8379TIP3    H246629   1.639   1.243  12.371  0.4465 -0.6873  0.2887
 8380TIP3   OH246630   1.296   6.162   1.103  0.5587 -0.0595 -0.1695
 8380TIP3    H146631   1.257   6.250   1.106  0.4375 -0.1150  2.9399
 8380TIP3    H246632   1.363   6.163   1.171  0.1956 -2.5087  0.3168
 8381TIP3   OH246633   4.550   6.402  16.767  0.2372 -0.0262  0.1193
 8381TIP3    H146634   4.534   6.467  16.835 -3.4948 -0.5487 -0.0419
 8381TIP3    H246635   4.536   6.318  16.812  0.8881 -0.5440 -0.6200
 8382TIP3   OH246636   4.908   2.569  12.229  0.0898 -0.1001  0.0834
 8382TIP3    H146637   4.928   2.560  12.322  1.8996  0.4130 -0.2073
 8382TIP3    H246638   4.976   2.627  12.195  0.2918 -1.3273 -1.8132
 8383TIP3   OH246639   2.260   6.239   0.276 -0.5260 -0.1533  0.6853
 8383TIP3    H146640   2.202   6.169   0.247  0.1180 -0.1599 -0.6526
 8383TIP3    H246641   2.213   6.320   0.256 -0.4301 -0.1701  0.3949
 8384TIP3   OH246642   5.069   2.636  10.440 -0.0842 -0.2110 -0.0708
 8384TIP3    H146643   4.988   2.614  10.393  0.1988  0.6177 -0.9885
 8384TIP3    H246644   5.115   2.553  10.450 -0.6336 -0.5517 -0.3355
 8385TIP3   OH246645   3.475   3.248   4.214  0.1752 -0.0126  0.6242
 8385TIP3    H146646   3.415   3.289   4.151  0.2309  0.6719  1.0002
 8385TIP3    H246647   3.446   3.280   4.299 -0.0326 -1.1020  0.9776
 8386TIP3   OH246648   1.612   1.204   5.248 -0.0356 -0.4141  0.4200
 8386TIP3    H146649   1.528   1.159   5.254 -1.2330  1.6659  0.1948
 8386TIP3    H246650   1.663   1.170   5.322 -1.8769 -0.1764  1.8617
 8387TIP3   OH246651   3.385   4.673   3.887  0.6590  0.0752 -0.2082
 8387TIP3    H146652   3.461   4.702   3.938 -0.8481  0.2549  2.0752
 8387TIP3    H246653   3.363   4.587   3.923 -0.8285  0.4783 -0.0978
 8388TIP3   OH246654   3.421   1.594   6.052 -0.2047 -0.2332 -0.0494
 8388TIP3    H146655   3.480   1.552   6.114  1.8190 -1.6201 -2.6812
 8388TIP3    H246656   3.345   1.536   6.048  0.7548 -1.5112 -0.6037
 8389TIP3   OH246657   5.157   4.776   4.740 -0.8116  0.3096 -0.7205
 8389TIP3    H146658   5.105   4.791   4.661 -1.6169  0.1856 -0.2239
 8389TIP3    H246659   5.094   4.782   4.811 -0.6792 -2.6180 -0.2563
 8390TIP3   OH246660   4.170   1.112   2.944 -0.1253 -0.2188 -0.0086
 8390TIP3    H146661   4.265   1.100   2.936  0.0688  0.2782  1.3291
 8390TIP3    H246662   4.134   1.024   2.936  0.6318 -0.7004  1.4965
 8391TIP3   OH246663   1.494   6.531  12.682  0.4042  0.0082 -0.2239
 8391TIP3    H146664   1.464   6.560  12.768  1.3183  1.0124 -0.2330
 8391TIP3    H246665   1.580   6.492  12.699  1.7351  2.4595 -0.9925
 8392TIP3   OH246666   3.841   2.183  16.532 -0.1071 -0.2585  0.1648
 8392TIP3    H146667   3.819   2.124  16.604 -2.0311 -0.9644 -0.9181
 8392TIP3    H246668   3.881   2.127  16.466 -2.5066 -0.5813 -1.1261
 8393TIP3   OH246669   0.419   1.706   3.422 -0.4090  0.2708 -0.0892
 8393TIP3    H146670   0.372   1.623   3.422  1.0679 -0.5862 -0.3115
 8393TIP3    H246671   0.449   1.717   3.332 -2.7146  2.3458 -0.7256
 8394TIP3   OH246672   5.597   5.151  14.829 -0.1177  0.6396 -0.5041
 8394TIP3    H146673   5.680   5.112  14.802  0.1495 -0.5728  1.8488
 8394TIP3    H246674   5.561   5.188  14.748  1.5534 -0.9134 -2.0617
 8395TIP3   OH246675   3.805   0.940  14.073  0.5893 -1.1450 -0.8715
 8395TIP3    H146676   3.792   0.966  13.982 -3.4373  1.8730  0.2826
 8395TIP3    H246677   3.887   0.982  14.099  0.5626 -0.0250 -2.4800
 8396TIP3   OH246678   3.370   3.826   0.162  0.7880 -0.1886  0.8208
 8396TIP3    H146679   3.328   3.789   0.239 -0.3918 -0.9016 -0.1339
 8396TIP3    H246680   3.356   3.762   0.093 -0.2789  1.4687 -0.5937
 8397TIP3   OH246681   1.457   1.541   3.588  0.6399 -0.1352 -0.0305
 8397TIP3    H146682   1.539   1.550   3.540  0.9976  0.9763  0.7649
 8397TIP3    H246683   1.414   1.626   3.580  0.0797 -0.3570  0.5004
 8398TIP3   OH246684   1.701   3.461   1.144 -0.1709 -0.5931  0.1847
 8398TIP3    H146685   1.609   3.445   1.167 -0.4580  1.5402  0.7918
 8398TIP3    H246686   1.722   3.543   1.189  3.0605 -2.6076  2.8717
 8399TIP3   OH246687   0.200   0.253  14.701 -0.0584  0.1941 -0.2287
 8399TIP3    H146688   0.195   0.272  14.794  2.7464  1.0710 -0.1692
 8399TIP3    H246689   0.189   0.338  14.658  1.1627  0.2019 -0.5490
 8400TIP3   OH246690   6.320   1.430  15.480  1.1985 -0.2172  0.6026
 8400TIP3    H146691   6.282   1.513  15.507  0.5486 -0.3976  0.2718
 8400TIP3    H246692   6.301   1.424  15.387  0.4311 -1.1442  0.7983
 8401TIP3   OH246693   5.323   4.924   0.374  0.1527  0.2184 -0.2487
 8401TIP3    H146694   5.267   4.884   0.441  1.0256 -2.0018 -0.7558
 8401TIP3    H246695   5.377   4.852   0.342  1.4177  1.7286 -1.6832
 8402TIP3   OH246696   2.903   3.239  13.245  0.0151  0.2185 -0.2066
 8402TIP3    H146697   2.908   3.181  13.170 -0.0992  0.2810 -0.2638
 8402TIP3    H246698   2.860   3.187  13.314  0.1524  0.1499 -0.1739
 8403TIP3   OH246699   2.765   3.118   5.592  0.1786 -0.8653  0.1611
 8403TIP3    H146700   2.716   3.163   5.661 -0.4461 -0.9399 -0.2204
 8403TIP3    H246701   2.780   3.185   5.526  1.3031 -0.6449  0.6242
 8404TIP3   OH246702   4.489   2.108  14.919 -0.3445  0.2271  0.3128
 8404TIP3    H146703   4.543   2.186  14.931 -1.5864  1.1800 -0.0772
 8404TIP3    H246704   4.547   2.035  14.939  1.0526  1.2161 -0.0230
 8405TIP3   OH246705   6.355   5.442   6.132 -0.7653 -0.2751  0.1111
 8405TIP3    H146706   6.378   5.357   6.096  0.5472  0.2659 -0.3760
 8405TIP3    H246707   6.429   5.465   6.190 -0.6720  0.9119 -0.4416
 8406TIP3   OH246708   2.181   1.101  16.792 -0.0563  0.1970  0.0824
 8406TIP3    H146709   2.187   1.131  16.883  0.4299  2.0625 -0.5211
 8406TIP3    H246710   2.207   1.009  16.796 -2.0424 -0.3828  2.1023
 8407TIP3   OH246711   0.396   3.168  15.699  0.2298  0.0890 -0.2391
 8407TIP3    H146712   0.415   3.078  15.674 -0.8411 -0.0764 -0.5272
 8407TIP3    H246713   0.331   3.197  15.634  1.7550  1.6153 -1.1541
 8408TIP3   OH246714   3.496   0.776  15.150  0.1469 -0.6558  0.0364
 8408TIP3    H146715   3.562   0.775  15.081  0.1095 -0.0098 -0.0190
 8408TIP3    H246716   3.537   0.824  15.222 -0.0002 -0.8833  0.2758
 8409TIP3   OH246717   1.460   2.621  11.836  0.2760 -0.0166  0.1516
 8409TIP3    H146718   1.418   2.539  11.860  0.4998 -0.7305 -1.7682
 8409TIP3    H246719   1.390   2.686  11.835 -0.5899 -0.9078 -1.6483
 8410TIP3   OH246720   4.521   5.080  12.536  0.0115  0.2019 -0.0198
 8410TIP3    H146721   4.442   5.040  12.572  0.3521 -1.3862 -0.9272
 8410TIP3    H246722   4.563   5.009  12.487  1.7199  1.1548 -0.0038
 8411TIP3   OH246723   3.579   3.857   1.517  0.4992  0.3551 -0.1524
 8411TIP3    H146724   3.639   3.865   1.442  0.3763 -1.1795 -0.4472
 8411TIP3    H246725   3.637   3.846   1.592  0.6632  3.0331  0.2125
 8412TIP3   OH246726   1.238   5.745  15.224  0.0352 -0.0268 -0.0849
 8412TIP3    H146727   1.228   5.799  15.302 -0.3285 -0.5491  0.2335
 8412TIP3    H246728   1.164   5.684  15.227  1.3502 -1.6643  0.4509
 8413TIP3   OH246729   2.706   5.330   0.195  0.3904 -0.6331  0.0755
 8413TIP3    H146730   2.776   5.272   0.162 -0.5515 -1.6447 -0.2058
 8413TIP3    H246731   2.627   5.297   0.153  0.0577  2.2075 -1.8499
 8414TIP3   OH246732   2.093   0.432  16.475  0.4688  0.0682  0.3991
 8414TIP3    H146733   2.033   0.441  16.400 -1.3607 -4.1183  1.0542
 8414TIP3    H246734   2.056   0.490  16.542 -0.9490  0.0088 -0.2865
 8415TIP3   OH246735   2.659   3.465   0.627 -0.1943  0.1016  0.1768
 8415TIP3    H146736   2.663   3.374   0.599  0.6437  0.9465 -2.8540
 8415TIP3    H246737   2.565   3.484   0.632 -0.3842 -0.5843 -0.5183
 8416TIP3   OH246738   5.103   3.765   6.173  0.3007  0.7429 -0.5352
 8416TIP3    H146739   5.118   3.677   6.208 -1.0945  0.8692  0.4776
 8416TIP3    H246740   5.015   3.762   6.135  0.1695  1.7424 -0.3542
 8417TIP3   OH246741   1.635   3.258  13.602 -0.3373 -0.7189  0.0375
 8417TIP3    H146742   1.619   3.237  13.693 -2.1331 -2.7068 -0.6597
 8417TIP3    H246743   1.723   3.224  13.584 -0.2149 -0.8402  0.8426
 8418TIP3   OH246744   6.304   5.254   4.254  0.1367  0.9914  0.0058
 8418TIP3    H146745   6.376   5.289   4.307  0.8076  0.6489 -0.6581
 8418TIP3    H246746   6.347   5.216   4.178 -0.5557 -1.0786  0.5698
 8419TIP3   OH246747   4.306   1.673  14.094 -0.2304  0.0462  0.3850
 8419TIP3    H146748   4.365   1.738  14.056 -0.9035  0.4269 -0.0238
 8419TIP3    H246749   4.218   1.704  14.072 -0.5606 -1.1256 -0.0184
 8420TIP3   OH246750   5.728   6.486   3.711 -0.6320 -0.2604 -0.3435
 8420TIP3    H146751   5.788   6.514   3.642 -0.6718  0.3018 -0.1560
 8420TIP3    H246752   5.656   6.442   3.665 -1.5724  1.6888 -0.8442
 8421TIP3   OH246753   5.792   4.824  15.194 -0.2574 -0.2435 -0.5696
 8421TIP3    H146754   5.722   4.874  15.152 -0.0176 -0.3146 -1.0596
 8421TIP3    H246755   5.869   4.841  15.141 -0.1482 -1.0535 -0.6883
 8422TIP3   OH246756   6.825   0.790   6.015 -0.4035 -0.0836 -0.1257
 8422TIP3    H146757   6.838   0.728   6.086  0.5169 -1.3577 -1.3673
 8422TIP3    H246758   6.730   0.803   6.012 -0.4599  0.1273  1.4061
 8423TIP3   OH246759   1.560   2.043   4.104 -0.1193  0.5766  0.1749
 8423TIP3    H146760   1.529   2.074   4.020 -0.4762 -0.4163 -0.0776
 8423TIP3    H246761   1.616   1.968   4.083 -2.3509 -1.4224  0.9070
 8424TIP3   OH246762   4.129   3.108   4.013 -0.5129  0.3508 -0.2418
 8424TIP3    H146763   4.188   3.063   4.074  0.3032  0.1773 -1.1342
 8424TIP3    H246764   4.048   3.121   4.063 -0.0877 -0.3622  0.6614
 8425TIP3   OH246765   3.231   0.832   5.584 -0.7564 -0.4478 -0.1590
 8425TIP3    H146766   3.321   0.839   5.552 -1.0148 -1.0808 -1.0460
 8425TIP3    H246767   3.240   0.791   5.670 -0.2519 -1.2816 -0.5961
 8426TIP3   OH246768   0.320   6.272  12.478  0.4432  0.9539  0.0519
 8426TIP3    H146769   0.393   6.211  12.495 -0.0227  0.8348  1.7051
 8426TIP3    H246770   0.356   6.358  12.497  0.4410  0.9929 -0.1173
 8427TIP3   OH246771   5.685   6.216   1.997  0.3585 -0.1835 -0.0866
 8427TIP3    H146772   5.766   6.258   1.969  0.4277 -0.4005 -0.2185
 8427TIP3    H246773   5.619   6.250   1.936  0.2883  0.2409  0.2245
 8428TIP3   OH246774   3.607   4.194   6.232  0.3591 -0.2318 -0.1140
 8428TIP3    H146775   3.566   4.172   6.316 -0.4392 -1.1493 -0.7221
 8428TIP3    H246776   3.549   4.155   6.166  1.8505 -1.0005 -1.0413
 8429TIP3   OH246777   2.524   1.465  13.089 -0.3114 -0.3888  0.2913
 8429TIP3    H146778   2.492   1.388  13.135  2.3938 -1.4943  0.5438
 8429TIP3    H246779   2.543   1.529  13.158  0.6463 -0.8181  0.4469
 8430TIP3   OH246780   6.570   5.904   0.822 -0.2380  0.4594 -0.2547
 8430TIP3    H146781   6.488   5.953   0.830  0.5527  1.9515 -0.8674
 8430TIP3    H246782   6.544   5.819   0.787 -1.2297  2.5065 -5.4770
 8431TIP3   OH246783   5.739   0.784   0.921  0.0961  0.0450  0.1759
 8431TIP3    H146784   5.757   0.867   0.965 -0.1026 -0.3749  1.0793
 8431TIP3    H246785   5.728   0.721   0.992 -2.6037 -0.2011 -0.3342
 8432TIP3   OH246786   5.762   3.112  12.283 -0.3722  0.2480  0.1195
 8432TIP3    H146787   5.822   3.186  12.284 -0.9710  0.7408  0.6921
 8432TIP3    H246788   5.819   3.035  12.281  0.2898  0.6995  1.0308
 8433TIP3   OH246789   4.339   4.347   3.826 -0.1550  0.2454  0.2215
 8433TIP3    H146790   4.394   4.321   3.899 -0.0717 -0.1185  0.0292
 8433TIP3    H246791   4.391   4.412   3.778  0.1412 -0.1518 -0.0021
 8434TIP3   OH246792   4.630   3.542  12.596 -0.1218 -0.7352 -0.0599
 8434TIP3    H146793   4.609   3.629  12.630  0.4561 -0.0044 -1.5005
 8434TIP3    H246794   4.636   3.487  12.674  1.1731  0.8764  1.0564
 8435TIP3   OH246795   5.623   2.588   3.324  0.3679 -0.1847  1.2010
 8435TIP3    H146796   5.604   2.592   3.418  1.2065 -0.0753  1.3768
 8435TIP3    H246797   5.719   2.590   3.319  0.3352 -0.3374  0.3488
 8436TIP3   OH246798   0.633   5.684  13.822  0.0008  0.6190 -0.0922
 8436TIP3    H146799   0.613   5.621  13.752  0.4977 -1.1354  1.2642
 8436TIP3    H246800   0.709   5.732  13.789  2.3443 -2.3859  0.3834
 8437TIP3   OH246801   3.999   3.388  17.192 -0.5526 -0.2218  0.1160
 8437TIP3    H146802   3.968   3.341  17.115 -1.4581 -1.2580  1.0860
 8437TIP3    H246803   3.979   3.330  17.266 -2.3357  1.9123  1.4434
 8438TIP3   OH246804   2.618   4.078   3.949 -0.4706  0.1651  0.1896
 8438TIP3    H146805   2.678   4.004   3.943  1.3310  1.5133  0.7002
 8438TIP3    H246806   2.582   4.088   3.861  0.0792 -0.6567 -0.1353
 8439TIP3   OH246807   0.761   2.870   0.337  0.1407  0.4646  0.5049
 8439TIP3    H146808   0.675   2.909   0.355 -0.2317  0.7714 -1.7239
 8439TIP3    H246809   0.757   2.845   0.245  2.8257  1.4982  0.0182
 8440TIP3   OH246810   1.874   0.847   1.546  0.2630  1.2227  0.5554
 8440TIP3    H146811   1.949   0.893   1.583 -0.3895  1.0612  2.1898
 8440TIP3    H246812   1.836   0.800   1.621 -1.3436  1.1417 -0.2645
 8441TIP3   OH246813   3.809   4.449   5.961  0.0331  0.3705  0.2255
 8441TIP3    H146814   3.820   4.358   5.934  1.0946  0.7625 -0.7593
 8441TIP3    H246815   3.849   4.500   5.890 -2.1144  1.6971 -0.1554
 8442TIP3   OH246816   1.925   6.025  13.715  0.6035 -0.0666  0.5690
 8442TIP3    H146817   1.978   6.095  13.678  1.1641 -0.2612  0.9845
 8442TIP3    H246818   1.866   5.998  13.644  1.5453 -0.3263 -0.1260
 8443TIP3   OH246819   3.236   3.550  13.440 -0.1629 -0.2944 -0.1350
 8443TIP3    H146820   3.220   3.567  13.533 -2.1730  1.6586 -0.7221
 8443TIP3    H246821   3.179   3.477  13.419  0.4779 -0.8993  0.1963
 8444TIP3   OH246822   5.445   5.191   3.087  0.4152  0.4760  0.1158
 8444TIP3    H146823   5.373   5.155   3.139  1.4279  0.0327  1.2417
 8444TIP3    H246824   5.414   5.278   3.060 -0.5652  0.2592  0.4972
 8445TIP3   OH246825   0.164   5.866   2.535 -0.4393 -0.2808 -0.5132
 8445TIP3    H146826   0.101   5.820   2.479 -0.8808 -1.4694  0.8640
 8445TIP3    H246827   0.180   5.949   2.491 -1.5010 -0.7621 -1.8837
 8446TIP3   OH246828   3.962   4.997   2.488 -0.0749 -0.1409 -0.4462
 8446TIP3    H146829   3.916   4.914   2.480 -0.1456 -0.2328  0.7610
 8446TIP3    H246830   3.898   5.056   2.528  0.8091 -0.2813  1.3115
 8447TIP3   OH246831   5.892   3.788   5.012  0.5510 -0.1923 -0.0336
 8447TIP3    H146832   5.984   3.769   5.028  0.4696  0.0929  0.8429
 8447TIP3    H246833   5.892   3.872   4.967  0.6691  0.6283  1.4426
 8448TIP3   OH246834   5.383   6.654   5.464 -0.4590 -0.1205  0.6054
 8448TIP3    H146835   5.403   6.574   5.513 -1.0688 -0.6747 -0.0337
 8448TIP3    H246836   5.467   6.699   5.456  0.4334 -1.9650 -1.2886
 8449TIP3   OH246837   4.449   4.809  13.677 -0.4341 -0.1638  0.6045
 8449TIP3    H146838   4.529   4.784  13.632 -0.2388  0.8540  0.3590
 8449TIP3    H246839   4.381   4.804  13.609 -1.0148 -3.0911  1.2959
 8450TIP3   OH246840   0.673   2.925   6.144  0.0278  0.0895 -0.1319
 8450TIP3    H146841   0.626   2.946   6.063  0.5736  0.1917 -0.4288
 8450TIP3    H246842   0.638   2.840   6.170  1.4631 -1.0751 -1.7499
 8451TIP3   OH246843   5.202   2.156  11.683  0.4950  0.1555 -0.2705
 8451TIP3    H146844   5.256   2.130  11.758 -2.1199 -1.5933  1.1308
 8451TIP3    H246845   5.130   2.205  11.722 -0.2982  0.2525 -1.8073
 8452TIP3   OH246846   3.212   1.443   3.174 -0.0575 -0.0786  0.2071
 8452TIP3    H146847   3.149   1.377   3.146  0.4406 -0.1020 -0.9066
 8452TIP3    H246848   3.271   1.453   3.100  0.1930  1.2451  0.5577
 8453TIP3   OH246849   4.933   4.307  16.039  0.4549  0.1282  0.2136
 8453TIP3    H146850   4.841   4.311  16.012  1.2326 -0.8939 -3.1734
 8453TIP3    H246851   4.974   4.382  15.996  1.1978  0.8269  2.0388
 8454TIP3   OH246852   4.128   4.292   4.302  0.1283 -0.0521 -0.5844
 8454TIP3    H146853   4.197   4.232   4.273  1.8694  1.8025 -0.5193
 8454TIP3    H246854   4.113   4.350   4.228 -1.9049 -0.8157 -0.8371
 8455TIP3   OH246855   6.516   3.265  16.829  0.4876 -0.1043  0.1236
 8455TIP3    H146856   6.501   3.307  16.745 -1.7788  0.1097  0.5723
 8455TIP3    H246857   6.493   3.174  16.815 -0.0568 -0.0342  0.5435
 8456TIP3   OH246858   5.095   1.678   5.639 -0.1731 -0.0082 -0.0948
 8456TIP3    H146859   5.105   1.583   5.640  1.0337  0.0895  1.2162
 8456TIP3    H246860   5.103   1.704   5.731 -1.3657  1.2944 -0.3209
 8457TIP3   OH246861   6.286   3.479   5.726  0.0238 -0.8336 -0.4784
 8457TIP3    H146862   6.312   3.413   5.663 -0.4067 -1.4397 -0.0358
 8457TIP3    H246863   6.276   3.431   5.808 -2.6378 -0.7013 -0.6410
 8458TIP3   OH246864   1.915   6.714  16.245  0.5481 -0.3039 -0.0674
 8458TIP3    H146865   2.008   6.730  16.257  0.8441 -1.6908 -0.2794
 8458TIP3    H246866   1.879   6.797  16.213  1.8111  0.0741 -0.5366
 8459TIP3   OH246867   1.107   5.990  14.699 -0.6006  1.2745  0.0640
 8459TIP3    H146868   1.195   6.020  14.721 -0.3406  1.3662 -1.0540
 8459TIP3    H246869   1.051   6.065  14.719 -0.2066  1.8140 -0.7824
 8460TIP3   OH246870   5.181   0.142   3.517 -1.0466  0.0010  0.0985
 8460TIP3    H146871   5.261   0.107   3.556 -0.9398  1.0802  0.8900
 8460TIP3    H246872   5.168   0.089   3.439  0.0759 -0.6254  0.3058
 8461TIP3   OH246873   0.713   1.328  13.553  0.3183 -0.6592 -0.0486
 8461TIP3    H146874   0.774   1.261  13.582  0.8729 -0.5550 -0.9323
 8461TIP3    H246875   0.761   1.378  13.487 -0.1913  0.4254  0.3733
 8462TIP3   OH246876   5.088   2.919   5.526 -0.4255 -0.3956  0.3056
 8462TIP3    H146877   5.102   3.011   5.504  2.0654 -0.2122  2.2269
 8462TIP3    H246878   5.079   2.918   5.621 -0.9215 -2.1133  0.2715
 8463TIP3   OH246879   2.912   2.536   2.552 -0.6499  0.4977  0.9453
 8463TIP3    H146880   2.906   2.554   2.646 -0.0940  2.1533  0.6994
 8463TIP3    H246881   2.872   2.450   2.541 -0.2748  0.0493  2.7643
 8464TIP3   OH246882   4.529   2.205   2.845  0.4703  0.5510 -0.6303
 8464TIP3    H146883   4.525   2.266   2.772  1.0333  0.3009 -0.8805
 8464TIP3    H246884   4.606   2.232   2.896  0.0888  0.7172 -0.1333
 8465TIP3   OH246885   4.757   6.714   5.314  0.2063 -0.6272 -0.2802
 8465TIP3    H146886   4.809   6.756   5.246  1.1117 -0.2456  0.6168
 8465TIP3    H246887   4.671   6.755   5.307  0.7072  0.4507 -0.2639
 8466TIP3   OH246888   2.455   1.254   5.635  0.4306 -0.2129 -1.0714
 8466TIP3    H146889   2.474   1.268   5.728 -0.0837  1.9086 -1.2560
 8466TIP3    H246890   2.537   1.278   5.591 -0.0090  0.9102 -1.2976
 8467TIP3   OH246891   0.478   3.084  13.093 -0.4142 -0.3826 -0.2901
 8467TIP3    H146892   0.463   3.144  13.166  1.3471 -2.7546  2.2030
 8467TIP3    H246893   0.573   3.079  13.085 -0.5566 -1.3715 -1.7348
 8468TIP3   OH246894   4.879   2.828  15.059 -0.2697 -0.3683  0.3962
 8468TIP3    H146895   4.901   2.753  15.004 -2.0522 -2.0683  1.8659
 8468TIP3    H246896   4.785   2.842  15.045 -0.6171 -0.3973  2.4232
 8469TIP3   OH246897   0.431   5.260   5.515  0.3498 -0.4710 -0.1968
 8469TIP3    H146898   0.358   5.199   5.502 -0.4411  0.3768  0.1546
 8469TIP3    H246899   0.443   5.263   5.610 -2.1587  2.7218  0.1965
 8470TIP3   OH246900   2.053   5.861  15.144  0.1490 -0.0353  0.2466
 8470TIP3    H146901   2.103   5.809  15.207  0.8302 -0.1091 -0.3364
 8470TIP3    H246902   2.022   5.936  15.194 -0.7098 -0.9140  1.0613
 8471TIP3   OH246903   1.086   6.512  15.156 -0.4200  0.4874  0.1321
 8471TIP3    H146904   1.154   6.525  15.090 -1.0205  1.7748 -0.2741
 8471TIP3    H246905   1.038   6.435  15.125  0.4520 -0.0465  0.0843
 8472TIP3   OH246906   0.525   0.578  12.709 -0.1701  0.0582  0.3654
 8472TIP3    H146907   0.472   0.551  12.633  1.3856  1.4472 -1.3108
 8472TIP3    H246908   0.612   0.544  12.690  0.0149 -0.5147  2.1163
 8473TIP3   OH246909   4.508   2.544  16.631  0.4943 -0.5526 -0.1140
 8473TIP3    H146910   4.452   2.596  16.574  0.1463  2.6116  2.7810
 8473TIP3    H246911   4.448   2.486  16.678  0.5409 -1.6679 -1.3605
 8474TIP3   OH246912   2.254   2.368   6.527 -0.1549 -0.2277  0.2954
 8474TIP3    H146913   2.207   2.408   6.453 -0.9935 -2.4979 -0.4733
 8474TIP3    H246914   2.282   2.443   6.580 -1.9889  1.3692 -0.8275
 8475TIP3   OH246915   6.794   6.433  13.849  0.0913 -0.7083 -0.4578
 8475TIP3    H146916   6.871   6.427  13.905  0.0192  0.0044 -0.2811
 8475TIP3    H246917   6.731   6.373  13.889 -0.5788  1.0504  1.2447
 8476TIP3   OH246918   0.150   5.927   3.030 -0.2030 -0.1315  0.4681
 8476TIP3    H146919   0.204   5.901   2.955 -0.0292 -0.9608  0.8773
 8476TIP3    H246920   0.063   5.944   2.992 -0.0422 -0.2600  0.0397
 8477TIP3   OH246921   5.994   2.518   3.055  0.0714 -0.5881 -0.2701
 8477TIP3    H146922   5.990   2.504   3.149 -1.5741 -1.9962 -0.4925
 8477TIP3    H246923   5.985   2.612   3.044  0.2922 -0.4103  0.9847
 8478TIP3   OH246924   6.483   4.114  14.856  0.3529 -0.0192 -0.1769
 8478TIP3    H146925   6.512   4.046  14.796 -2.6122 -0.1056 -1.6971
 8478TIP3    H246926   6.405   4.078  14.898 -0.8962  2.1264 -0.5107
 8479TIP3   OH246927   3.314   2.276   1.167 -0.3002  0.4774 -0.3953
 8479TIP3    H146928   3.259   2.209   1.209  0.0067 -0.0273 -0.7970
 8479TIP3    H246929   3.353   2.324   1.240 -1.6435  1.1623 -0.0895
 8480TIP3   OH246930   1.809   4.511  16.840 -0.6147  0.1013 -0.1669
 8480TIP3    H146931   1.865   4.585  16.864 -1.1071  0.3662  0.1756
 8480TIP3    H246932   1.837   4.440  16.898 -1.1278  0.4518  0.5320
 8481TIP3   OH246933   4.329   0.210  16.121 -0.2140 -0.1373  0.4377
 8481TIP3    H146934   4.268   0.274  16.156  1.0547  0.8568  0.9354
 8481TIP3    H246935   4.405   0.215  16.179  0.5124 -1.0343 -0.3846
 8482TIP3   OH246936   1.481   0.273   4.615  0.3529 -0.3403  0.2312
 8482TIP3    H146937   1.530   0.202   4.658  1.2793  0.0181 -0.1953
 8482TIP3    H246938   1.389   0.253   4.632  0.5280 -2.2108 -0.7080
 8483TIP3   OH246939   5.245   4.307  13.316 -0.4807 -0.0573 -0.3446
 8483TIP3    H146940   5.234   4.212  13.324  0.1257 -0.1743 -0.8023
 8483TIP3    H246941   5.242   4.324  13.222 -0.4178  0.3564 -0.2753
 8484TIP3   OH246942   5.721   1.149   3.186  0.0930  0.2901  0.0796
 8484TIP3    H146943   5.645   1.129   3.131 -1.2267  4.2638  0.0897
 8484TIP3    H246944   5.787   1.181   3.123  1.0026 -1.0889  0.2910
 8485TIP3   OH246945   1.796   0.690  14.672  0.3453  0.2464 -0.0019
 8485TIP3    H146946   1.768   0.603  14.643  0.8180 -0.2210  0.9215
 8485TIP3    H246947   1.871   0.673  14.729 -0.2004  1.1859  1.0168
 8486TIP3   OH246948   0.038   1.299  11.617  0.1640  0.1808  0.0003
 8486TIP3    H146949   0.081   1.384  11.613 -1.4375  1.0344 -0.3383
 8486TIP3    H246950   0.106   1.236  11.594  1.2583  1.4180 -0.2761
 8487TIP3   OH246951   3.758   4.558   1.278  0.1740  0.0366 -0.1179
 8487TIP3    H146952   3.807   4.640   1.276  0.3828 -0.0668  0.5742
 8487TIP3    H246953   3.781   4.514   1.196  0.9802  0.1368  0.0518
 8488TIP3   OH246954   1.079   2.469  10.893 -0.7223 -0.3037 -1.0384
 8488TIP3    H146955   1.055   2.438  10.806 -2.9294  1.3650 -1.1305
 8488TIP3    H246956   0.996   2.498  10.932  0.1104 -1.3486  1.7957
 8489TIP3   OH246957   2.738   1.667   4.184 -0.1952  0.2718 -0.7233
 8489TIP3    H146958   2.698   1.745   4.145  1.0903  1.1327 -0.3671
 8489TIP3    H246959   2.832   1.682   4.179  0.0646  0.0012  1.8065
 8490TIP3   OH246960   2.418   1.749   2.237  0.1530  0.5023 -0.0382
 8490TIP3    H146961   2.407   1.713   2.149 -0.5351  1.6863 -0.4599
 8490TIP3    H246962   2.365   1.828   2.238 -0.4418  0.1408  1.6842
 8491TIP3   OH246963   0.652   2.145  11.883  0.2772  0.5094  0.4970
 8491TIP3    H146964   0.652   2.050  11.892  1.5214  0.5427  1.1145
 8491TIP3    H246965   0.743   2.170  11.898 -0.0467  1.8089  0.4074
 8492TIP3   OH246966   2.578   6.196   0.711  0.2694 -0.4390  0.4029
 8492TIP3    H146967   2.661   6.244   0.722  0.2372 -0.1325 -0.5556
 8492TIP3    H246968   2.598   6.128   0.646  0.0159 -1.0015  0.9040
 8493TIP3   OH246969   1.229   1.491   6.698 -0.1131 -0.4256 -0.2507
 8493TIP3    H146970   1.179   1.524   6.624  1.0197  0.3764 -0.6897
 8493TIP3    H246971   1.171   1.502   6.773 -0.7442  0.0819 -0.8042
 8494TIP3   OH246972   1.473   0.937   1.193  0.3411 -0.7991 -0.2252
 8494TIP3    H146973   1.556   0.932   1.240  0.3135 -2.7243 -0.2759
 8494TIP3    H246974   1.496   0.921   1.101 -0.1892 -3.1859 -0.0259
 8495TIP3   OH246975   4.000   0.379   3.597  0.1953  0.3202 -0.0892
 8495TIP3    H146976   3.928   0.394   3.659  0.0100 -2.2381  0.4251
 8495TIP3    H246977   3.981   0.437   3.523 -2.6706 -0.5753 -0.1610
 8496TIP3   OH246978   4.475   4.061   1.690 -0.4857  0.2978  0.6692
 8496TIP3    H146979   4.418   4.037   1.616  0.4657 -1.4108  0.4531
 8496TIP3    H246980   4.555   4.093   1.649 -0.4856  0.7237  0.9869
 8497TIP3   OH246981   2.600   2.115   1.282 -0.0889 -0.2048 -0.5770
 8497TIP3    H146982   2.605   2.027   1.320 -0.5390  0.4503  1.1162
 8497TIP3    H246983   2.521   2.152   1.320 -1.5098 -0.0206 -3.4870
 8498TIP3   OH246984   1.671   5.873   0.945 -1.2772  0.2968 -0.1068
 8498TIP3    H146985   1.700   5.787   0.915  0.7273  0.1858  1.9056
 8498TIP3    H246986   1.607   5.854   1.013 -0.3303  0.3468  0.8177
 8499TIP3   OH246987   4.745   1.076  17.281  0.0524 -0.4406 -0.5496
 8499TIP3    H146988   4.702   1.159  17.302 -0.3839 -0.3621 -1.6464
 8499TIP3    H246989   4.675   1.021  17.245  0.6565 -0.6842 -1.3904
 8500TIP3   OH246990   3.892   1.206   0.674  1.1619  0.1516  0.1809
 8500TIP3    H146991   3.962   1.240   0.731  2.0711 -1.3081 -0.0131
 8500TIP3    H246992   3.918   1.232   0.586  1.5708 -0.5531  0.0891
 8501TIP3   OH246993   3.528   3.015   1.935  0.0401 -0.0192  0.3409
 8501TIP3    H146994   3.509   3.095   1.887 -1.5390  0.3225  1.4569
 8501TIP3    H246995   3.532   2.947   1.867 -0.4697  0.7016 -0.4356
 8502TIP3   OH246996   4.319   1.134  13.109 -0.0634  0.2458  0.0311
 8502TIP3    H146997   4.413   1.139  13.125  0.3207  0.3682 -2.0610
 8502TIP3    H246998   4.294   1.222  13.082 -1.0468  0.5107  1.6350
 8503TIP3   OH246999   0.776   6.287   1.683 -0.2031 -0.6974  0.1200
 8503TIP3    H147000   0.689   6.296   1.644  0.2566  0.1437 -0.7732
 8503TIP3    H247001   0.818   6.218   1.632  0.6245  0.8352 -1.4046
 8504TIP3   OH247002   4.773   4.061   2.200  0.1046 -0.0412  0.2959
 8504TIP3    H147003   4.687   4.027   2.176 -0.9990  1.5823  1.7529
 8504TIP3    H247004   4.812   3.991   2.253  0.7492 -1.7833 -2.2959
 8505TIP3   OH247005   4.870   0.844   1.692  0.4418 -0.0022  0.1704
 8505TIP3    H147006   4.938   0.909   1.673  0.9967 -0.1074  1.6167
 8505TIP3    H247007   4.793   0.875   1.646  1.1483  0.7902 -0.5064
 8506TIP3   OH247008   1.023   4.387   0.368 -0.1987  0.5946  0.2171
 8506TIP3    H147009   0.985   4.467   0.405  0.4240  1.3849 -0.7948
 8506TIP3    H247010   0.947   4.334   0.342 -0.6263  0.4587  1.6871
 8507TIP3   OH247011   3.283   2.070   5.131  0.1020  0.7448  0.1539
 8507TIP3    H147012   3.361   2.105   5.090  0.7816  2.0177  2.4003
 8507TIP3    H247013   3.314   1.998   5.186 -0.8327 -1.1492 -1.6399
 8508TIP3   OH247014   3.509   3.349  13.897 -0.3242  0.3407 -0.1798
 8508TIP3    H147015   3.414   3.349  13.881 -0.7132  0.1905  1.8914
 8508TIP3    H247016   3.517   3.337  13.991  1.7491  1.9272 -0.1105
 8509TIP3   OH247017   1.518   0.454  13.901 -0.6375 -0.6955 -0.5907
 8509TIP3    H147018   1.589   0.398  13.933 -2.2267 -2.3437  0.2564
 8509TIP3    H247019   1.458   0.460  13.974 -2.3160 -1.0004 -1.8856
 8510TIP3   OH247020   1.532   5.433  16.274 -0.6957  0.4330  0.0271
 8510TIP3    H147021   1.603   5.494  16.292 -2.0116  1.5342  1.8517
 8510TIP3    H247022   1.542   5.411  16.181  2.1428  0.2993  0.2817
 8511TIP3   OH247023   1.675   3.464  12.256  0.4403  0.0106  0.1885
 8511TIP3    H147024   1.763   3.499  12.271  0.6347 -0.7539  0.8323
 8511TIP3    H247025   1.642   3.516  12.183  1.6909 -0.1537 -0.5281
 8512TIP3   OH247026   3.834   3.148  13.327  0.1764 -0.0422  0.4447
 8512TIP3    H147027   3.838   3.174  13.419  0.7418 -0.1946  0.4653
 8512TIP3    H247028   3.745   3.170  13.300 -0.2739 -0.8184  1.2731
 8513TIP3   OH247029   3.576   3.766  16.692  0.1542  0.0956 -0.1549
 8513TIP3    H147030   3.640   3.805  16.632  0.0105 -1.3262 -1.2991
 8513TIP3    H247031   3.629   3.711  16.750  0.0670 -0.5990 -0.7100
 8514TIP3   OH247032   5.482   4.580   0.485 -0.3356  0.1439  0.2147
 8514TIP3    H147033   5.546   4.650   0.481 -0.0555 -0.1558 -0.7719
 8514TIP3    H247034   5.484   4.551   0.577 -1.1557  2.0442  0.8946
 8515TIP3   OH247035   3.922   6.511  15.000  0.5175 -0.0939  0.2844
 8515TIP3    H147036   3.828   6.525  15.011  0.5708  0.7983 -0.3337
 8515TIP3    H247037   3.931   6.470  14.914  0.8238  1.7722 -0.6375
 8516TIP3   OH247038   2.509   3.517  11.268 -0.5974 -0.1417 -0.5140
 8516TIP3    H147039   2.604   3.514  11.251 -0.2488 -3.2015  1.1445
 8516TIP3    H247040   2.484   3.607  11.250  2.9755  1.2650  0.6390
 8517TIP3   OH247041   1.593   6.105   4.559  0.0566  0.9264  0.4711
 8517TIP3    H147042   1.564   6.024   4.601  0.3470 -0.1628 -1.3200
 8517TIP3    H247043   1.678   6.123   4.598 -0.1913  0.6078  1.1765
 8518TIP3   OH247044   6.621   4.034  15.554  0.2690  0.3435  0.3221
 8518TIP3    H147045   6.533   4.015  15.587  1.1816 -0.7885  2.2550
 8518TIP3    H247046   6.644   3.957  15.502  0.5273  0.1344  0.7394
 8519TIP3   OH247047   6.668   3.700  14.971 -0.0481  0.5227 -0.7693
 8519TIP3    H147048   6.614   3.708  15.049  2.1861 -0.0635  0.9269
 8519TIP3    H247049   6.681   3.606  14.960  0.8934  0.6638 -0.9288
 8520TIP3   OH247050   6.343   6.433   1.646 -0.2025 -0.1885 -0.0309
 8520TIP3    H147051   6.394   6.433   1.726 -1.1367 -0.0581  0.5845
 8520TIP3    H247052   6.345   6.342   1.616  1.7437  0.1044 -0.9399
 8521TIP3   OH247053   2.589   2.161   4.457 -0.3439 -0.5213  0.0629
 8521TIP3    H147054   2.584   2.256   4.466 -0.6085 -0.3780 -1.3779
 8521TIP3    H247055   2.679   2.139   4.481 -0.5531 -0.0337  1.3431
 8522TIP3   OH247056   0.970   1.997   5.781  0.1260  0.3232 -0.0430
 8522TIP3    H147057   1.049   2.029   5.824  1.4067 -0.2974 -1.8344
 8522TIP3    H247058   0.973   1.902   5.793 -0.4100  0.2981 -0.0695
 8523TIP3   OH247059   6.260   0.413  15.001  0.0350 -0.1021 -0.3303
 8523TIP3    H147060   6.277   0.368  14.918  2.5146 -1.2024  0.6830
 8523TIP3    H247061   6.193   0.360  15.044 -0.8088  0.1278 -1.3091
 8524TIP3   OH247062   5.102   4.334  14.935 -0.3525 -0.3042  0.4304
 8524TIP3    H147063   5.009   4.311  14.931 -0.1299 -1.3085  0.7832
 8524TIP3    H247064   5.106   4.409  14.994 -0.9459 -0.1694  0.3107
 8525TIP3   OH247065   0.392   0.253   0.521  0.1430  0.6710 -0.3795
 8525TIP3    H147066   0.352   0.201   0.591  0.7821  2.1988  1.1966
 8525TIP3    H247067   0.480   0.217   0.511 -0.6619 -1.0142 -2.0517
 8526TIP3   OH247068   6.808   3.192   3.928 -0.3505  0.3526  0.4141
 8526TIP3    H147069   6.758   3.111   3.932  1.1517 -0.8032 -1.9453
 8526TIP3    H247070   6.750   3.253   3.882 -0.8635  0.1010  0.7180
 8527TIP3   OH247071   3.408   0.250   3.820 -0.4335  0.6955 -0.6152
 8527TIP3    H147072   3.480   0.208   3.772 -0.5786 -0.0803 -0.1846
 8527TIP3    H247073   3.370   0.179   3.871  0.7852  1.7821  1.9900
 8528TIP3   OH247074   5.460   4.041   1.946 -0.8000 -0.1436  0.1849
 8528TIP3    H147075   5.555   4.055   1.954 -0.8328  0.3775 -0.2944
 8528TIP3    H247076   5.434   4.006   2.031 -0.4747  1.4330  0.9740
 8529TIP3   OH247077   6.252   4.116   4.728  0.1253  0.3607  0.1544
 8529TIP3    H147078   6.239   4.039   4.674 -0.4623  0.3321  0.3320
 8529TIP3    H247079   6.302   4.176   4.673 -0.6256  0.4053 -0.4887
 8530TIP3   OH247080   4.929   3.758  14.981  0.1904 -0.0265 -0.3941
 8530TIP3    H147081   4.852   3.740  15.036 -0.3920 -1.8205 -1.6827
 8530TIP3    H247082   5.003   3.754  15.042 -0.4355 -1.8717  0.3281
 8531TIP3   OH247083   2.631   2.139  14.932  0.2749  0.7370 -0.3751
 8531TIP3    H147084   2.670   2.057  14.962 -0.3303  1.0879  1.5082
 8531TIP3    H247085   2.691   2.170  14.864 -0.0142 -1.7153 -1.8858
 8532TIP3   OH247086   5.486   5.551   2.125  0.2252  0.3156 -0.1004
 8532TIP3    H147087   5.438   5.591   2.053 -1.3594  1.0053  1.2693
 8532TIP3    H247088   5.567   5.601   2.131 -0.1863  1.0628 -0.6152
 8533TIP3   OH247089   0.360   3.722   4.173  0.4103  0.6450 -0.3393
 8533TIP3    H147090   0.294   3.780   4.211  0.2590  0.4933 -0.3749
 8533TIP3    H247091   0.443   3.767   4.190  0.5289 -0.2760  1.8033
 8534TIP3   OH247092   0.679   2.018  17.077 -0.1859 -0.3283 -0.1121
 8534TIP3    H147093   0.620   1.980  17.011  1.4224  0.1691 -1.9523
 8534TIP3    H247094   0.701   2.104  17.042 -0.7670  0.7886  2.0932
 8535TIP3   OH247095   1.629   3.214   5.216 -0.7190 -0.3688  0.6929
 8535TIP3    H147096   1.708   3.199   5.163 -0.6515 -0.0773  0.7108
 8535TIP3    H247097   1.657   3.273   5.285 -0.4423 -1.9212  1.9592
 8536TIP3   OH247098   5.340   6.238  15.794 -0.0722  0.0809 -0.5563
 8536TIP3    H147099   5.375   6.318  15.756  1.4477 -0.3523 -0.1224
 8536TIP3    H247100   5.414   6.178  15.797 -0.5720 -0.5288  1.3260
 8537TIP3   OH247101   5.043   5.457  12.028  0.2908  0.8120 -0.0378
 8537TIP3    H147102   4.988   5.459  11.949  0.4846 -1.7600 -0.3386
 8537TIP3    H247103   5.037   5.366  12.058  1.9744  1.2138  1.6631
 8538TIP3   OH247104   2.268   4.434   0.010 -0.3861 -0.0996  0.2497
 8538TIP3    H147105   2.211   4.484  -0.048  0.6206  0.5849 -0.1855
 8538TIP3    H247106   2.217   4.424   0.091 -1.5630 -0.5398 -0.5154
 8539TIP3   OH247107   3.872   0.581   4.076 -0.1291  0.0399  0.0316
 8539TIP3    H147108   3.896   0.668   4.045  0.1344 -0.4772 -1.2834
 8539TIP3    H247109   3.896   0.523   4.004 -0.9500 -1.0386  0.6039
 8540TIP3   OH247110   1.951   4.798  11.685  0.6321  0.3322  0.3898
 8540TIP3    H147111   1.973   4.870  11.626  0.0027 -0.5130 -0.9246
 8540TIP3    H247112   1.971   4.719  11.634 -0.3727 -0.4218  1.1266
 8541TIP3   OH247113   4.104   0.154  13.439 -0.0629 -0.4590 -0.9554
 8541TIP3    H147114   4.176   0.114  13.391  1.1641  0.6269 -0.1023
 8541TIP3    H247115   4.103   0.245  13.409  0.8829  0.3094  1.1519
 8542TIP3   OH247116   6.535   1.630   0.225 -0.3939 -0.6230  0.1458
 8542TIP3    H147117   6.611   1.574   0.209  0.7014  0.8517 -0.0723
 8542TIP3    H247118   6.468   1.571   0.258  1.0042 -1.9093  0.8077
 8543TIP3   OH247119   6.230   6.571  16.677  0.1657 -0.0288 -0.1834
 8543TIP3    H147120   6.145   6.566  16.633 -0.2139  2.0587  0.1886
 8543TIP3    H247121   6.291   6.528  16.617 -0.1555  3.4197 -3.3912
 8544TIP3   OH247122   0.351   6.026  10.653 -0.4978 -0.4557  0.1017
 8544TIP3    H147123   0.302   6.097  10.611 -0.6311  1.1254  2.7063
 8544TIP3    H247124   0.431   6.068  10.684 -0.5326 -1.4586  1.6021
 8545TIP3   OH247125   6.502   3.990   0.917  0.0912 -0.9200  0.5860
 8545TIP3    H147126   6.558   3.975   0.841 -0.9785 -0.2457 -0.3531
 8545TIP3    H247127   6.417   3.955   0.893 -0.6371  0.5412  0.9192
 8546TIP3   OH247128   6.251   4.222  15.319  0.3134 -0.4309  0.3012
 8546TIP3    H147129   6.222   4.188  15.403 -0.3207 -0.1483  0.2040
 8546TIP3    H247130   6.325   4.279  15.340 -1.1913  1.3910  0.9389
 8547TIP3   OH247131   0.045   3.763  17.277 -0.8814  0.3670 -0.0827
 8547TIP3    H147132   0.013   3.849  17.305  0.2170  0.9151 -0.4746
 8547TIP3    H247133   0.129   3.780  17.236 -0.9306 -0.8266 -0.7449
 8548TIP3   OH247134   5.248   2.918   0.811 -0.4116 -0.8863  0.4127
 8548TIP3    H147135   5.160   2.921   0.774 -0.8513 -1.6488  1.3441
 8548TIP3    H247136   5.268   2.824   0.819  0.6787 -0.7281 -0.2233
 8549TIP3   OH247137   2.219   4.202  12.732 -0.1763  0.5579 -0.1754
 8549TIP3    H147138   2.173   4.195  12.816  0.9250 -0.3990  0.3792
 8549TIP3    H247139   2.216   4.295  12.710 -1.4441  0.6621  0.3592
 8550TIP3   OH247140   1.117   0.883   2.242 -0.3381 -0.5661 -0.0149
 8550TIP3    H147141   1.058   0.927   2.180 -0.0069 -0.2568 -0.1100
 8550TIP3    H247142   1.081   0.795   2.250 -1.4184 -0.0760  0.7159
 8551TIP3   OH247143   6.061   1.586   4.877  0.2907  0.4457  0.3942
 8551TIP3    H147144   5.997   1.652   4.903 -0.3263  0.1366 -0.2972
 8551TIP3    H247145   6.022   1.544   4.800  1.7481  0.9072 -0.6430
 8552TIP3   OH247146   2.682   2.548   0.597  0.2378  0.0613 -0.3955
 8552TIP3    H147147   2.742   2.497   0.542  0.8249  0.6176 -0.2819
 8552TIP3    H247148   2.740   2.595   0.658 -0.4337 -3.1589  3.1269
 8553TIP3   OH247149   5.054   6.158   1.142 -0.0290  0.4373 -0.2325
 8553TIP3    H147150   4.968   6.193   1.163  0.1239 -0.0779  1.4103
 8553TIP3    H247151   5.095   6.226   1.089 -0.5174  1.8435  1.1032
 8554TIP3   OH247152   4.398   2.685   1.989 -0.1285  0.0510 -0.2587
 8554TIP3    H147153   4.353   2.770   1.986  0.9072  0.6125 -0.3664
 8554TIP3    H247154   4.327   2.621   1.995 -0.9366  0.9138 -0.2757
 8555TIP3   OH247155   1.196   3.696   3.094 -0.1172 -0.3328 -0.4056
 8555TIP3    H147156   1.266   3.667   3.035 -0.4303  0.0523 -0.9762
 8555TIP3    H247157   1.164   3.777   3.055  1.0403  1.0794  1.3929
 8556TIP3   OH247158   5.004   2.798  14.193  0.2688 -0.0678 -0.1775
 8556TIP3    H147159   5.058   2.858  14.141 -1.3854  0.2807 -1.5637
 8556TIP3    H247160   4.965   2.739  14.129 -1.5993  0.1847  0.6729
 8557TIP3   OH247161   5.556   4.365  15.638  0.1610  0.1249 -0.2668
 8557TIP3    H147162   5.462   4.378  15.655  0.1601 -1.4480  1.1858
 8557TIP3    H247163   5.569   4.271  15.649  1.9192  0.3258 -0.4597
 8558TIP3   OH247164   5.089   3.272   5.630  0.0261  0.0472  0.0675
 8558TIP3    H147165   5.026   3.342   5.614 -0.2814  0.0442  1.1724
 8558TIP3    H247166   5.120   3.247   5.543  0.1129  1.5222 -0.3380
 8559TIP3   OH247167   4.827   6.427   3.117 -0.1949  0.1393  0.4164
 8559TIP3    H147168   4.826   6.347   3.170  0.0816  0.6104  1.1449
 8559TIP3    H247169   4.882   6.405   3.042 -0.2863 -0.4188  0.5089
 8560TIP3   OH247170   1.060   0.452  13.905  0.3143  0.0120 -0.4064
 8560TIP3    H147171   0.992   0.451  13.972 -0.1306  0.2105 -0.8492
 8560TIP3    H247172   1.096   0.363  13.905 -1.3637 -0.7123 -1.6037
 8561TIP3   OH247173   5.688   3.592  17.266 -0.5114  0.0909 -0.1204
 8561TIP3    H147174   5.640   3.674  17.258 -0.6414  0.0459  0.1902
 8561TIP3    H247175   5.773   3.618  17.301 -0.9784 -0.0350  1.1407
 8562TIP3   OH247176   5.099   2.563  13.073 -0.2001 -0.1778  0.5432
 8562TIP3    H147177   5.098   2.630  13.005 -0.8359 -0.2923  0.4322
 8562TIP3    H247178   5.156   2.598  13.142  0.4159 -0.0455 -0.0267
 8563TIP3   OH247179   2.096   1.157  11.874 -0.1383  0.1098  0.3371
 8563TIP3    H147180   2.152   1.217  11.824  1.7635  0.5923  2.8162
 8563TIP3    H247181   2.014   1.204  11.885 -0.0813  0.5784 -1.0533
 8564TIP3   OH247182   5.229   2.321   0.928  0.0879 -0.4334 -0.4383
 8564TIP3    H147183   5.222   2.411   0.962  0.1844  0.0869 -1.7653
 8564TIP3    H247184   5.316   2.292   0.955 -0.3680 -0.5639  0.9839
 8565TIP3   OH247185   3.796   0.788   5.124 -0.6572  0.1795  0.5898
 8565TIP3    H147186   3.763   0.719   5.181  0.2815  1.4269  2.7880
 8565TIP3    H247187   3.741   0.784   5.046 -1.0121 -2.6089  0.8980
 8566TIP3   OH247188   0.022   6.503  14.663  0.4424  0.8199 -0.3203
 8566TIP3    H147189   0.020   6.574  14.599 -1.6913  0.0707 -1.1682
 8566TIP3    H247190   0.066   6.431  14.618  0.6442  0.9066 -0.2600
 8567TIP3   OH247191   2.780   2.888  14.115  0.3680 -0.4051  0.5381
 8567TIP3    H147192   2.770   2.844  14.200 -1.4598 -0.7914  0.1688
 8567TIP3    H247193   2.793   2.816  14.052 -1.1123 -0.3633  0.1416
 8568TIP3   OH247194   0.406   6.679   2.885  0.2979  0.2355 -1.1216
 8568TIP3    H147195   0.410   6.707   2.977  1.0633 -0.7211 -0.8504
 8568TIP3    H247196   0.467   6.737   2.840 -0.9712  1.5198 -1.2753
 8569TIP3   OH247197   1.293   0.117  12.221 -0.2600  0.4063 -0.3849
 8569TIP3    H147198   1.345   0.087  12.146 -0.7379  1.6195 -1.2480
 8569TIP3    H247199   1.334   0.200  12.247 -0.7753  0.5584 -0.0461
 8570TIP3   OH247200   3.862   3.010   5.661  0.2829  0.1431 -0.6638
 8570TIP3    H147201   3.787   3.055   5.699  0.1552 -0.4475 -0.1835
 8570TIP3    H247202   3.824   2.945   5.602  0.3589 -0.7558  0.2468
 8571TIP3   OH247203   5.345   1.612  13.411  0.0739  0.0920  0.0749
 8571TIP3    H147204   5.371   1.695  13.451 -2.8450  0.0960  2.2600
 8571TIP3    H247205   5.382   1.544  13.467  0.2671 -0.0403 -0.2071
 8572TIP3   OH247206   2.524   4.057   0.101  0.4536 -0.6939 -0.4192
 8572TIP3    H147207   2.602   4.079   0.151 -0.3928  0.1421  0.5977
 8572TIP3    H247208   2.485   4.141   0.078 -0.9394 -1.0705  0.4179
 8573TIP3   OH247209   3.292   4.184   5.185  0.7249  0.0004 -0.2413
 8573TIP3    H147210   3.355   4.254   5.200  1.2635 -0.4430 -0.3934
 8573TIP3    H247211   3.212   4.213   5.230  0.8217  0.8771 -0.6176
 8574TIP3   OH247212   5.993   1.638  14.182  0.1690  0.3514  0.3670
 8574TIP3    H147213   5.968   1.696  14.254 -0.0682  0.0567  0.5222
 8574TIP3    H247214   6.087   1.655  14.170 -0.0759  1.4305 -0.1935
 8575TIP3   OH247215   5.861   0.590  14.171  0.5935  0.0782 -0.0880
 8575TIP3    H147216   5.777   0.620  14.135  1.2108  2.3671  0.2483
 8575TIP3    H247217   5.838   0.556  14.258 -0.0471  0.2787 -0.1711
 8576TIP3   OH247218   2.783   3.236   3.664  0.0035 -0.1031  0.5932
 8576TIP3    H147219   2.722   3.162   3.653 -0.0204 -0.2185  1.4357
 8576TIP3    H247220   2.832   3.239   3.582 -0.9328 -0.1955  0.0116
 8577TIP3   OH247221   5.715   0.773  13.931 -0.0659 -0.3044  0.5391
 8577TIP3    H147222   5.743   0.829  14.003  1.5553  0.8796 -0.9528
 8577TIP3    H247223   5.620   0.785  13.927  0.0563  1.0755  1.2919
 8578TIP3   OH247224   4.740   3.121   4.544 -0.0544  0.0307 -0.1255
 8578TIP3    H147225   4.755   3.168   4.461  2.8608 -2.0272 -0.9301
 8578TIP3    H247226   4.737   3.029   4.519 -2.6534 -0.4858  1.7375
 8579TIP3   OH247227   0.131   6.525   3.889 -0.3152  0.2408  0.1141
 8579TIP3    H147228   0.205   6.464   3.893 -0.9079 -0.4681  0.4895
 8579TIP3    H247229   0.172   6.611   3.876  0.4663 -0.3829 -1.8586
 8580TIP3   OH247230   3.808   6.457   3.395  0.0572 -0.1971 -0.5660
 8580TIP3    H147231   3.867   6.526   3.423  0.7686 -1.3554  0.8754
 8580TIP3    H247232   3.790   6.477   3.303  2.2816  0.4644 -0.9083
 8581TIP3   OH247233   6.720   0.079  15.865  0.3231 -0.4023  0.4720
 8581TIP3    H147234   6.729   0.060  15.959  0.7190  0.1829  0.5573
 8581TIP3    H247235   6.664   0.156  15.862  3.7341  2.3031  0.5056
 8582TIP3   OH247236   5.727   5.607  11.597 -0.5258  0.3883  0.0222
 8582TIP3    H147237   5.633   5.601  11.614 -0.2853 -0.0728  1.3882
 8582TIP3    H247238   5.760   5.665  11.666  0.2799  0.0024 -0.0238
 8583TIP3   OH247239   4.452   0.317   2.005 -0.1745  0.4162 -0.2849
 8583TIP3    H147240   4.411   0.236   1.974  0.4901 -0.0236 -0.0401
 8583TIP3    H247241   4.446   0.377   1.931 -3.4254  1.2201  0.4720
 8584TIP3   OH247242   1.626   1.135  16.923  0.0128  0.1073  0.4258
 8584TIP3    H147243   1.677   1.178  16.854  0.1405 -0.7208 -0.0073
 8584TIP3    H247244   1.686   1.129  16.997  0.0719  0.4594  0.4069
 8585TIP3   OH247245   3.803   3.889  15.364  0.4690  0.0367 -0.5011
 8585TIP3    H147246   3.760   3.868  15.446  2.1788  0.4200  0.5391
 8585TIP3    H247247   3.784   3.815  15.307 -1.4507  0.1615 -0.0795
 8586TIP3   OH247248   1.393   1.124   2.958 -0.0954 -0.3332 -0.1884
 8586TIP3    H147249   1.342   1.060   3.008  0.7656 -0.0647  1.0889
 8586TIP3    H247250   1.452   1.071   2.904  0.0843 -0.6206  0.2909
 8587TIP3   OH247251   5.969   1.988  13.930  0.3881  0.1787  0.5423
 8587TIP3    H147252   6.023   1.987  13.851  1.2351  0.6571  1.0897
 8587TIP3    H247253   6.028   2.021  13.999 -1.0586  2.3996  0.8318
 8588TIP3   OH247254   6.076   4.051   6.453  0.1648 -0.6844  0.3105
 8588TIP3    H147255   6.144   4.117   6.438  0.9015 -1.2480  1.0833
 8588TIP3    H247256   6.043   4.070   6.540 -0.4620 -0.6105  0.0621
 8589TIP3   OH247257   0.103   2.305  11.562  0.2490 -0.4596  0.0215
 8589TIP3    H147258   0.153   2.383  11.583 -0.4476 -0.8218  3.7818
 8589TIP3    H247259   0.151   2.264  11.490  2.6111  1.5742  0.2935
 8590TIP3   OH247260   4.056   3.676  14.838 -0.1253 -1.0067 -0.2851
 8590TIP3    H147261   3.969   3.637  14.846 -0.4908 -0.5336 -1.6796
 8590TIP3    H247262   4.040   3.769  14.826  0.6226 -0.7968  0.2903
 8591TIP3   OH247263   2.484   5.691  13.688  0.3004  0.5803 -0.4743
 8591TIP3    H147264   2.391   5.668  13.690 -0.0982  2.0413 -1.2939
 8591TIP3    H247265   2.523   5.625  13.631  0.3780 -1.9345  2.2528
 8592TIP3   OH247266   2.210   1.826   0.479  0.1138 -0.1738 -0.3041
 8592TIP3    H147267   2.271   1.778   0.535  1.1058  0.7875 -0.5187
 8592TIP3    H247268   2.260   1.901   0.448 -1.1308  0.5423 -0.6580
 8593TIP3   OH247269   3.697   5.335  14.045 -0.2450 -0.4304  1.1181
 8593TIP3    H147270   3.696   5.429  14.026  0.5245 -0.4643  0.8762
 8593TIP3    H247271   3.787   5.308  14.028 -0.8902 -1.6130 -0.7519
 8594TIP3   OH247272   1.938   6.196   5.776 -0.6379 -0.5498 -0.6099
 8594TIP3    H147273   1.938   6.149   5.860  0.7510 -1.5906 -1.1482
 8594TIP3    H247274   2.019   6.247   5.777 -1.4800  0.8363 -0.6083
 8595TIP3   OH247275   5.297   6.065  15.164  0.5321  0.4573 -0.1752
 8595TIP3    H147276   5.342   5.987  15.196 -0.3897  0.0301  0.1392
 8595TIP3    H247277   5.323   6.073  15.073  1.5778  0.4832  0.1194
 8596TIP3   OH247278   1.414   2.068   6.353 -0.1119 -0.2031  0.2129
 8596TIP3    H147279   1.463   2.148   6.370 -0.3849 -0.1058  0.5468
 8596TIP3    H247280   1.481   2.000   6.347  0.1462  0.0988 -0.3906
 8597TIP3   OH247281   5.286   2.601   0.743 -0.3812 -0.3865  0.1165
 8597TIP3    H147282   5.334   2.533   0.697  0.1130  0.0012  0.0498
 8597TIP3    H247283   5.349   2.636   0.806 -1.2612 -1.3957  1.6105
 8598TIP3   OH247284   1.814   4.440   0.264 -0.1631 -0.5208 -0.3043
 8598TIP3    H147285   1.896   4.471   0.226 -0.0865 -0.7476 -0.3254
 8598TIP3    H247286   1.811   4.347   0.242  1.0774 -1.2956  2.3077
 8599TIP3   OH247287   1.483   5.170  15.956 -0.3061  0.3462 -0.2511
 8599TIP3    H147288   1.452   5.259  15.937  1.4606  0.7129 -1.8076
 8599TIP3    H247289   1.403   5.118  15.963 -1.3566  1.8179 -0.6004
 8600TIP3   OH247290   1.209   4.247   4.212 -0.1436  0.2525  0.1332
 8600TIP3    H147291   1.288   4.279   4.170 -0.6996  1.1376 -0.2580
 8600TIP3    H247292   1.137   4.295   4.170 -0.9603 -1.0300 -0.0264
 8601TIP3   OH247293   5.607   5.399   2.526 -0.2211 -0.1506  0.3168
 8601TIP3    H147294   5.631   5.325   2.582 -1.2555 -0.2551  0.6618
 8601TIP3    H247295   5.599   5.362   2.438 -1.7074 -0.6925  0.6492
 8602TIP3   OH247296   5.380   3.896  11.902  0.0044  0.2296 -0.1527
 8602TIP3    H147297   5.309   3.896  11.839 -1.5173 -0.9006  1.4717
 8602TIP3    H247298   5.377   3.982  11.944 -0.6537  0.0596  0.1544
 8603TIP3   OH247299   3.477   5.519   6.127 -0.2785 -0.5896  0.3670
 8603TIP3    H147300   3.447   5.525   6.217  0.5174 -0.9144  0.6622
 8603TIP3    H247301   3.515   5.431   6.119 -1.9372 -1.2554 -0.7974
 8604TIP3   OH247302   5.547   5.373   5.606  0.2442  0.1918 -0.3108
 8604TIP3    H147303   5.545   5.310   5.678 -0.6035 -2.0150 -2.1323
 8604TIP3    H247304   5.612   5.438   5.632  0.7098 -1.0869  1.9564
 8605TIP3   OH247305   6.176   0.499  16.776  0.3869  0.7587 -0.5474
 8605TIP3    H147306   6.174   0.569  16.712  0.7543  1.5242  0.2570
 8605TIP3    H247307   6.268   0.477  16.786  0.3549  0.7784 -0.1573
 8606TIP3   OH247308   5.516   5.729   0.585 -0.0313  0.5037  0.4828
 8606TIP3    H147309   5.567   5.801   0.548  0.6495 -0.8638 -1.3783
 8606TIP3    H247310   5.476   5.686   0.510 -1.2166 -0.5049  1.6252
 8607TIP3   OH247311   0.877   6.225   5.062 -0.0803  0.2123 -0.1893
 8607TIP3    H147312   0.897   6.298   5.003 -0.9221  0.5960 -0.0302
 8607TIP3    H247313   0.897   6.259   5.149 -1.6592  0.7305  0.0055
 8608TIP3   OH247314   0.939   1.069  14.725  0.3518 -0.5631  0.1761
 8608TIP3    H147315   0.869   1.130  14.698 -0.1754 -1.0088  0.5075
 8608TIP3    H247316   0.990   1.055  14.645  0.1750 -0.0787 -0.0267
 8609TIP3   OH247317   1.271   0.312  14.795 -0.1808 -0.1612 -0.3954
 8609TIP3    H147318   1.182   0.299  14.829 -1.0314  0.7507 -2.1539
 8609TIP3    H247319   1.321   0.343  14.870 -1.5155 -0.0062  0.4653
 8610TIP3   OH247320   4.974   2.372   8.016 -0.4592 -0.3240 -0.0802
 8610TIP3    H147321   5.022   2.405   8.092 -0.5377 -2.4031  0.9438
 8610TIP3    H247322   4.883   2.370   8.044 -0.5437 -0.7117 -0.3726
 8611TIP3   OH247323   3.023   4.373  12.810  0.2815  0.7010 -0.3016
 8611TIP3    H147324   3.027   4.462  12.774  0.3969  0.7302 -0.2215
 8611TIP3    H247325   2.950   4.331  12.764  2.0180 -0.1261 -2.5014
 8612TIP3   OH247326   2.497   5.178   2.159  0.4160 -0.3170 -0.4866
 8612TIP3    H147327   2.496   5.110   2.226  0.6601 -0.4701 -0.6365
 8612TIP3    H247328   2.570   5.235   2.184 -0.5360  0.5910  0.3253
 8613TIP3   OH247329   5.788   6.158  10.467 -0.4344 -0.2228  0.1793
 8613TIP3    H147330   5.693   6.174  10.468 -0.1894  1.3952  0.2240
 8613TIP3    H247331   5.802   6.100  10.392 -1.6537 -2.0436  1.2688
 8614TIP3   OH247332   3.133   2.266   5.733  0.2387  0.5432  0.1723
 8614TIP3    H147333   3.070   2.197   5.712  0.3493  0.8322 -1.2058
 8614TIP3    H247334   3.087   2.322   5.796  0.0412 -0.5967  1.0770
 8615TIP3   OH247335   0.248   3.521  13.589  0.7658 -0.6084  0.4169
 8615TIP3    H147336   0.175   3.491  13.643  1.3733 -1.9403  0.5275
 8615TIP3    H247337   0.276   3.444  13.541  1.6861  0.0413 -0.1261
 8616TIP3   OH247338   2.120   0.379  11.021 -0.0460  0.6007 -0.0098
 8616TIP3    H147339   2.038   0.357  10.979  0.4087  0.0091 -0.6075
 8616TIP3    H247340   2.168   0.430  10.956 -0.0535  1.2129  0.4481
 8617TIP3   OH247341   1.942   6.642  15.092  0.2987 -0.0349  0.6892
 8617TIP3    H147342   1.923   6.589  15.014  0.8491 -0.5465  0.8937
 8617TIP3    H247343   1.872   6.619  15.153 -0.8714  1.3126 -0.0835
 8618TIP3   OH247344   4.091   5.405   1.619 -0.5976 -0.3521 -0.3373
 8618TIP3    H147345   4.105   5.484   1.671 -1.2139 -0.7968  0.5312
 8618TIP3    H247346   4.116   5.430   1.530  0.3443  0.4761  0.1303
 8619TIP3   OH247347   2.416   6.820   2.395 -0.4490 -0.8182 -0.3711
 8619TIP3    H147348   2.489   6.776   2.438  0.3858  1.3321  0.5832
 8619TIP3    H247349   2.352   6.833   2.465  0.5873  1.9974  0.2099
 8620TIP3   OH247350   4.039   3.021   1.993 -0.2607  0.1793  0.0481
 8620TIP3    H147351   4.027   3.064   1.909 -1.1654  3.2311  1.6001
 8620TIP3    H247352   3.953   2.984   2.014 -0.8249  1.8654  0.8305
 8621TIP3   OH247353   5.652   3.578  16.055 -0.0404 -0.1035 -0.3652
 8621TIP3    H147354   5.626   3.622  16.136  0.9259  1.4077 -0.8434
 8621TIP3    H247355   5.598   3.499  16.053 -2.1577  1.2474  0.3058
 8622TIP3   OH247356   2.185   5.014   5.093 -0.1513 -0.3185  0.5052
 8622TIP3    H147357   2.183   5.045   5.002  0.6585  0.3498  0.7022
 8622TIP3    H247358   2.275   5.029   5.121 -0.5060 -0.0835  1.5653
 8623TIP3   OH247359   0.021   4.849   1.987  0.0434  0.3587  0.0112
 8623TIP3    H147360   0.093   4.854   1.924 -1.0329  2.3015 -1.1586
 8623TIP3    H247361   0.036   4.766   2.033  1.3821 -0.7183 -2.1769
 8624TIP3   OH247362   0.247   6.518   3.273  0.2893  0.4400 -0.7537
 8624TIP3    H147363   0.299   6.556   3.203  1.0247  1.3259  0.2320
 8624TIP3    H247364   0.238   6.588   3.337  0.1733 -0.5124  0.3138
 8625TIP3   OH247365   6.749   4.369   5.913  0.4901 -0.2363  0.4598
 8625TIP3    H147366   6.663   4.378   5.872 -0.2376 -0.1089  1.9163
 8625TIP3    H247367   6.812   4.384   5.843 -0.6586 -1.5754 -0.9095
 8626TIP3   OH247368   4.881   5.560  13.676 -0.3611  0.2422 -0.4179
 8626TIP3    H147369   4.969   5.575  13.641 -0.5668  2.7534 -0.0546
 8626TIP3    H247370   4.892   5.493  13.743  0.8907 -0.9594 -1.7564
 8627TIP3   OH247371   6.493   5.891   3.165 -0.0710  0.3665  0.4604
 8627TIP3    H147372   6.454   5.811   3.199  1.0388  0.2391  1.5058
 8627TIP3    H247373   6.532   5.865   3.081  1.7738 -0.6578  1.5729
 8628TIP3   OH247374   1.437   6.425  15.792  0.1559  0.2118 -0.3763
 8628TIP3    H147375   1.439   6.338  15.833 -0.5828  0.5251  0.3293
 8628TIP3    H247376   1.522   6.464  15.815 -0.0736  0.2118  0.4792
 8629TIP3   OH247377   4.392   5.627   6.451  0.4060 -0.3201  0.3025
 8629TIP3    H147378   4.445   5.611   6.373 -0.5313 -1.7415 -0.0748
 8629TIP3    H247379   4.396   5.722   6.463  2.0164 -0.2586 -0.4154
 8630TIP3   OH247380   6.258   0.976   6.229  0.0935  0.2161 -0.7851
 8630TIP3    H147381   6.343   1.007   6.261 -1.6284  2.0664  2.5044
 8630TIP3    H247382   6.193   1.025   6.280 -3.0061 -1.5752 -2.6560
 8631TIP3   OH247383   2.631   6.449  11.435  0.2819  0.0927  0.0285
 8631TIP3    H147384   2.699   6.431  11.500  0.7060  4.6717  1.2189
 8631TIP3    H247385   2.671   6.511  11.375 -2.4846  2.3503  0.3052
 8632TIP3   OH247386   1.498   6.196  14.494  0.1125 -0.7040 -0.2758
 8632TIP3    H147387   1.562   6.256  14.532 -1.1507 -0.0259  0.8704
 8632TIP3    H247388   1.516   6.198  14.400  0.9130  0.4697 -0.1191
 8633TIP3   OH247389   0.385   3.682   6.190  0.5864  0.0479 -0.3942
 8633TIP3    H147390   0.335   3.677   6.109 -0.4547  0.1675  0.2136
 8633TIP3    H247391   0.474   3.658   6.166  0.8157  2.2698 -2.0233
 8634TIP3   OH247392   5.317   3.682  14.750  0.8644 -0.4766  0.2943
 8634TIP3    H147393   5.311   3.726  14.835  2.2208 -0.3105  0.3277
 8634TIP3    H247394   5.229   3.647  14.735 -0.2351  1.9793  0.3972
 8635TIP3   OH247395   0.128   3.961  16.377 -0.4203  0.3010  0.0450
 8635TIP3    H147396   0.098   4.037  16.427 -1.8823 -0.5221  0.4941
 8635TIP3    H247397   0.206   3.931  16.424 -0.4414  0.9008  0.4837
 8636TIP3   OH247398   6.433   3.338   6.243 -0.0441  0.2859 -0.7420
 8636TIP3    H147399   6.397   3.311   6.158 -0.2198 -0.1921 -0.5195
 8636TIP3    H247400   6.517   3.379   6.222  0.3093 -0.5803 -1.0861
 8637TIP3   OH247401   6.045   4.179  14.910 -0.3961  0.5620  0.3069
 8637TIP3    H147402   6.038   4.183  15.005 -0.2539 -1.2310  0.4252
 8637TIP3    H247403   6.028   4.269  14.881  1.4346  1.5699  2.1224
 8638TIP3   OH247404   3.719   6.665  10.506  0.2912 -0.4865 -0.5733
 8638TIP3    H147405   3.644   6.723  10.522  0.4078 -0.4878 -0.0128
 8638TIP3    H247406   3.736   6.675  10.413  1.5828  1.9685 -0.1635
 8639TIP3   OH247407   6.014   2.591  15.268  0.1897 -0.3344  0.2932
 8639TIP3    H147408   6.094   2.542  15.249  1.2395  0.8658  1.3933
 8639TIP3    H247409   5.969   2.538  15.334  1.2719  0.0790  1.4104
 8640TIP3   OH247410   0.201   0.610  16.961 -0.0394  0.1558 -0.2837
 8640TIP3    H147411   0.260   0.629  16.888 -1.3112  2.0429 -0.8807
 8640TIP3    H247412   0.117   0.591  16.920 -0.3938 -0.3558  0.6423
 8641TIP3   OH247413   0.808   1.577  14.783  0.1030 -0.0599  0.2129
 8641TIP3    H147414   0.813   1.632  14.705 -2.9613 -0.0978 -0.1347
 8641TIP3    H247415   0.751   1.625  14.842 -1.2391 -2.0192  0.6116
 8642TIP3   OH247416   1.223   1.576  13.155  0.0859  0.1624 -0.2667
 8642TIP3    H147417   1.206   1.484  13.176  0.9128 -0.5868 -2.5967
 8642TIP3    H247418   1.312   1.577  13.122 -0.4441  1.4933 -1.7768
 8643TIP3   OH247419   5.922   6.443   6.677 -0.2728 -0.4065 -0.1178
 8643TIP3    H147420   5.888   6.443   6.767 -0.3112  1.2555 -0.1055
 8643TIP3    H247421   6.017   6.451   6.688 -0.1426 -1.6658 -0.2153
 8644TIP3   OH247422   1.190   6.692   4.300 -0.1234  0.7506  0.5424
 8644TIP3    H147423   1.098   6.684   4.326 -0.6512  1.1173 -1.0929
 8644TIP3    H247424   1.188   6.744   4.220  1.4180 -0.0950 -0.0944
 8645TIP3   OH247425   1.224   2.368  15.405 -0.4027 -0.0896  0.3405
 8645TIP3    H147426   1.310   2.329  15.392  0.0723  1.6263 -2.4889
 8645TIP3    H247427   1.235   2.424  15.483  1.1605  0.3062 -0.1202
 8646TIP3   OH247428   3.434   6.278  13.650 -0.3523  0.1302  0.1893
 8646TIP3    H147429   3.364   6.322  13.601 -1.4784 -0.4664  1.2273
 8646TIP3    H247430   3.484   6.231  13.583 -2.7228 -1.8545 -0.3011
 8647TIP3   OH247431   1.988   6.041   0.040  0.0112  0.3737 -0.0307
 8647TIP3    H147432   2.074   6.058   0.003  0.4425  1.0508  1.2057
 8647TIP3    H247433   1.999   5.960   0.091 -0.5371 -0.4747 -1.2233
 8648TIP3   OH247434   3.595   4.381   1.922  0.3245  0.1189 -0.2645
 8648TIP3    H147435   3.544   4.341   1.852  1.1742  0.3721 -1.0478
 8648TIP3    H247436   3.640   4.455   1.880  0.3221  0.6832  0.6993
 8649TIP3   OH247437   0.610   6.161   1.280  0.0073 -0.2874 -0.1903
 8649TIP3    H147438   0.694   6.128   1.248 -0.5874 -2.0380 -0.0798
 8649TIP3    H247439   0.581   6.094   1.343 -0.9640  0.8222  0.5823
 8650TIP3   OH247440   3.799   3.087   3.928 -0.1920  0.0086 -0.0542
 8650TIP3    H147441   3.843   3.039   3.858  0.7319  0.4278  0.2252
 8650TIP3    H247442   3.775   3.171   3.889 -2.4462 -0.8891 -0.7549
 8651TIP3   OH247443   3.005   4.170   4.027  0.3097  0.6175 -0.1327
 8651TIP3    H147444   2.959   4.120   4.095  2.8819  0.3821  1.5528
 8651TIP3    H247445   3.001   4.260   4.057 -0.3008  0.8081 -0.7606
 8652TIP3   OH247446   5.087   5.216   1.178 -0.6632  0.2791 -0.2505
 8652TIP3    H147447   5.142   5.258   1.112  0.8662 -1.3061 -0.0804
 8652TIP3    H247448   5.132   5.233   1.261 -0.3566 -1.0961 -0.1104
 8653TIP3   OH247449   3.307   2.135  14.247  0.5380 -0.3302 -0.6266
 8653TIP3    H147450   3.383   2.191  14.229  0.3162 -0.1948 -1.1498
 8653TIP3    H247451   3.345   2.052  14.275  0.8733  0.1039  0.2872
 8654TIP3   OH247452   4.374   5.424  12.005  0.7664 -0.0722  0.2098
 8654TIP3    H147453   4.281   5.410  11.989  0.5507  0.6082  0.7777
 8654TIP3    H247454   4.407   5.462  11.923  0.3352  0.5535  0.3122
 8655TIP3   OH247455   0.316   2.842  15.088 -1.2029 -0.4831 -0.8453
 8655TIP3    H147456   0.301   2.750  15.069 -0.5038 -0.9762  0.8400
 8655TIP3    H247457   0.406   2.859  15.060 -1.2959 -0.3263 -1.0562
 8656TIP3   OH247458   6.129   0.604   2.192 -0.5288 -0.2172  0.3256
 8656TIP3    H147459   6.153   0.601   2.099  1.7385  0.1111  0.8425
 8656TIP3    H247460   6.033   0.603   2.192 -0.6232  1.3525 -2.0745
 8657TIP3   OH247461   0.999   4.845   0.378  0.5493 -0.5637  0.1774
 8657TIP3    H147462   1.078   4.879   0.336  0.4796  1.2049  1.3401
 8657TIP3    H247463   1.020   4.847   0.472 -0.6405 -0.6626  0.4604
 8658TIP3   OH247464   2.628   2.890   3.325 -0.6706  0.2807 -0.3247
 8658TIP3    H147465   2.550   2.911   3.376  0.6438  1.1472  1.4454
 8658TIP3    H247466   2.638   2.963   3.265 -0.5786  0.7447  0.2519
 8659TIP3   OH247467   2.971   0.714   0.868 -0.1807  0.3168  0.2190
 8659TIP3    H147468   2.993   0.622   0.882 -2.1804 -0.2648 -0.1030
 8659TIP3    H247469   3.051   0.753   0.834 -0.2649 -2.1882 -3.4303
 8660TIP3   OH247470   5.743   3.569  11.155  0.3824  0.6838  0.0671
 8660TIP3    H147471   5.656   3.608  11.140  0.2769  0.2793 -0.3917
 8660TIP3    H247472   5.762   3.589  11.247 -0.5870  0.0283  0.4263
 8661TIP3   OH247473   6.547   5.213   3.173 -0.3928 -0.1503  0.1118
 8661TIP3    H147474   6.533   5.308   3.168  1.4145  0.2005  0.7228
 8661TIP3    H247475   6.592   5.191   3.092 -1.0627 -0.5520 -0.1576
 8662TIP3   OH247476   3.468   1.350  11.210 -0.5244  0.3101  0.1576
 8662TIP3    H147477   3.518   1.269  11.222 -0.9445  0.1110  0.5758
 8662TIP3    H247478   3.459   1.359  11.115  1.2768  0.9433  0.0116
 8663TIP3   OH247479   5.471   3.956   5.804 -0.8874 -0.2764  0.9086
 8663TIP3    H147480   5.414   3.882   5.822 -0.2867 -1.0530 -0.2337
 8663TIP3    H247481   5.547   3.943   5.861 -0.4074 -1.0202  0.1305
 8664TIP3   OH247482   6.390   6.182   1.591  0.5697  0.1944  0.3246
 8664TIP3    H147483   6.386   6.128   1.670  1.8016 -0.5215 -0.0731
 8664TIP3    H247484   6.346   6.129   1.524  0.7689  0.1771  0.2065
 8665TIP3   OH247485   4.542   2.124   5.322 -0.1506 -0.1858 -0.3180
 8665TIP3    H147486   4.584   2.199   5.364 -1.8150 -0.2506  1.6283
 8665TIP3    H247487   4.572   2.048   5.372  0.8002 -0.7560 -1.6940
 8666TIP3   OH247488   3.786   2.588   0.723 -0.0611  0.2259 -0.3059
 8666TIP3    H147489   3.788   2.683   0.734  1.6069 -0.0063  2.1343
 8666TIP3    H247490   3.868   2.567   0.677  0.8936 -0.1899  1.4966
 8667TIP3   OH247491   6.001   3.727  13.940 -0.4602 -0.1316 -0.0580
 8667TIP3    H147492   5.988   3.647  13.989  1.3020 -0.3235  0.1722
 8667TIP3    H247493   6.096   3.741  13.941 -0.6135  1.2948 -1.1296
 8668TIP3   OH247494   0.137   4.384   4.745 -0.2868 -0.5457 -0.7802
 8668TIP3    H147495   0.108   4.346   4.662  1.3902 -1.1821 -1.1093
 8668TIP3    H247496   0.209   4.327   4.773 -0.9280 -0.4450  1.2078
 8669TIP3   OH247497   5.725   5.708   2.719 -0.5256  0.4994 -0.2018
 8669TIP3    H147498   5.664   5.765   2.672 -1.3934  0.4210  0.8066
 8669TIP3    H247499   5.774   5.665   2.649 -3.2074 -1.2278 -1.1978
 8670TIP3   OH247500   3.690   3.156   6.570 -0.1341 -0.0023 -0.0165
 8670TIP3    H147501   3.752   3.089   6.600 -0.4506 -1.0197 -1.5521
 8670TIP3    H247502   3.742   3.213   6.514  0.0002  0.7159  0.8243
 8671TIP3   OH247503   5.374   4.509   3.182 -0.3013 -0.0593  0.5576
 8671TIP3    H147504   5.330   4.582   3.137 -0.8921 -0.5833  0.2754
 8671TIP3    H247505   5.457   4.546   3.212 -1.3456  1.2468  2.0093
 8672TIP3   OH247506   2.179   5.775  16.988  0.8868 -0.2433  0.1393
 8672TIP3    H147507   2.120   5.711  17.028 -1.0964  0.6812 -1.1211
 8672TIP3    H247508   2.182   5.750  16.895  2.3341 -0.1217  0.1343
 8673TIP3   OH247509   2.704   3.857  12.330 -0.2930  0.4219  0.6777
 8673TIP3    H147510   2.702   3.926  12.395  2.2934  0.2813  1.0276
 8673TIP3    H247511   2.758   3.893  12.259 -0.6836 -0.4681 -0.0912
 8674TIP3   OH247512   5.546   5.413   0.461  0.1252  0.0110 -0.6159
 8674TIP3    H147513   5.574   5.475   0.394  0.1833 -1.1639 -1.7183
 8674TIP3    H247514   5.468   5.452   0.500 -0.0420  0.6013 -1.5274
 8675TIP3   OH247515   0.285   2.035  11.668  0.5166 -0.6830 -0.1032
 8675TIP3    H147516   0.304   1.970  11.736 -2.2854 -2.4642 -0.8613
 8675TIP3    H247517   0.291   2.119  11.714  0.5530 -1.6943  1.8770
 8676TIP3   OH247518   2.514   4.743   1.705  0.2117  0.2743  0.5372
 8676TIP3    H147519   2.488   4.707   1.621 -1.4131  2.9441 -0.2541
 8676TIP3    H247520   2.607   4.764   1.695  0.4093 -0.7992 -0.0195
 8677TIP3   OH247521   0.030   0.689   4.720  0.2067 -0.0279  0.0856
 8677TIP3    H147522   0.049   0.778   4.690  0.4757 -0.3500 -0.7467
 8677TIP3    H247523  -0.043   0.660   4.664  0.8996 -0.7447 -0.4668
 8678TIP3   OH247524   4.633   1.680  11.999 -0.3768 -0.3265 -0.3601
 8678TIP3    H147525   4.671   1.765  11.975  0.2348  0.0227  1.6601
 8678TIP3    H247526   4.539   1.696  12.002 -0.4836 -0.3581 -2.2373
 8679TIP3   OH247527   1.161   6.670  11.242 -0.2018  0.1848 -0.0159
 8679TIP3    H147528   1.074   6.631  11.234 -0.2251 -0.2283  1.8000
 8679TIP3    H247529   1.209   6.611  11.300  1.5086  0.0906 -1.4521
 8680TIP3   OH247530   2.139   1.220   5.139 -0.2342 -0.0913  0.0367
 8680TIP3    H147531   2.164   1.129   5.126 -2.1970 -0.8319  0.9124
 8680TIP3    H247532   2.129   1.229   5.234  0.0447  1.0694 -0.0305
 8681TIP3   OH247533   4.365   5.665   4.172  0.1325 -0.4919 -0.3410
 8681TIP3    H147534   4.277   5.696   4.149 -0.5163 -0.6284  1.7345
 8681TIP3    H247535   4.355   5.627   4.259  2.2967 -0.3525  0.0273
 8682TIP3   OH247536   6.161   0.173  13.381 -0.0711  0.4027  0.4149
 8682TIP3    H147537   6.194   0.113  13.314  0.0484  0.5653  0.3301
 8682TIP3    H247538   6.229   0.175  13.448 -1.4418 -2.1772  2.0789
 8683TIP3   OH247539   2.138   4.197   3.497  0.1999  0.3207 -0.1443
 8683TIP3    H147540   2.058   4.151   3.473  0.2464 -0.1231  0.5300
 8683TIP3    H247541   2.167   4.240   3.416 -0.4058  0.0152 -0.5236
 8684TIP3   OH247542   0.466   2.300   1.671  0.3096  0.0899 -0.1617
 8684TIP3    H147543   0.499   2.299   1.761 -1.0342  0.4247  0.3618
 8684TIP3    H247544   0.524   2.241   1.624  1.4981  0.4862  0.7533
 8685TIP3   OH247545   1.425   3.955   4.313 -0.1678  0.0843 -0.2145
 8685TIP3    H147546   1.482   3.880   4.297  0.1972  0.4150 -0.4812
 8685TIP3    H247547   1.373   3.930   4.389  0.6123 -0.0557  0.2801
 8686TIP3   OH247548   6.515   6.190  16.600  0.5358 -0.4889 -0.0452
 8686TIP3    H147549   6.582   6.200  16.532  1.5501  1.2540  1.1282
 8686TIP3    H247550   6.525   6.268  16.655 -2.1902 -0.3936  0.4486
 8687TIP3   OH247551   1.144   4.955  11.493  0.7594  0.1167 -0.3975
 8687TIP3    H147552   1.123   4.974  11.402  0.9767 -1.7758 -0.8845
 8687TIP3    H247553   1.211   4.886  11.488  0.3898 -0.3946  1.1830
 8688TIP3   OH247554   6.666   4.042   6.221 -0.3688  0.0814  0.2022
 8688TIP3    H147555   6.743   4.086   6.186 -1.1034  0.8462 -0.4799
 8688TIP3    H247556   6.701   3.986   6.291  0.6021  1.7532  1.1466
 8689TIP3   OH247557   3.901   6.363  12.647 -0.1947  0.8205 -0.0499
 8689TIP3    H147558   3.984   6.361  12.601  0.5898  0.5412  1.3269
 8689TIP3    H247559   3.837   6.329  12.584  0.7783  0.7361 -1.0070
 8690TIP3   OH247560   4.890   3.899  11.084 -0.2556 -0.1937 -0.1819
 8690TIP3    H147561   4.806   3.875  11.045 -0.2840  1.7676 -1.4999
 8690TIP3    H247562   4.947   3.824  11.066 -1.6735 -1.5391  0.7064
 8691TIP3   OH247563   4.778   0.654  12.101  0.5056  0.3992 -0.5045
 8691TIP3    H147564   4.757   0.654  12.008 -0.4485  0.5333 -0.3094
 8691TIP3    H247565   4.756   0.742  12.130 -0.4589 -0.0112  0.0873
 8692TIP3   OH247566   6.706   6.530  15.439 -0.5948  0.1904 -0.3261
 8692TIP3    H147567   6.672   6.575  15.516 -0.9289  0.2039 -0.4773
 8692TIP3    H247568   6.719   6.599  15.374 -1.7203  0.0100 -0.7777
 8693TIP3   OH247569   3.552   6.515  14.140 -0.2061  0.3127  0.0913
 8693TIP3    H147570   3.481   6.495  14.080 -0.2152 -0.9762  0.5070
 8693TIP3    H247571   3.596   6.431  14.154 -0.0103  0.6450  1.6228
 8694TIP3   OH247572   4.499   3.215   5.019 -0.4738  0.0293 -0.2472
 8694TIP3    H147573   4.548   3.134   5.035  0.4175  0.0122 -2.6872
 8694TIP3    H247574   4.415   3.186   4.986 -1.5507  0.1104  2.1722
 8695TIP3   OH247575   0.226   6.005  11.435  0.1619  0.1047 -0.0034
 8695TIP3    H147576   0.136   5.977  11.451 -0.5031  2.1523  0.1455
 8695TIP3    H247577   0.229   6.024  11.342  0.6070 -0.4949 -0.1126
 8696TIP3   OH247578   0.815   6.603   2.637 -0.1992  0.1082  0.2738
 8696TIP3    H147579   0.802   6.697   2.625  0.0374  0.5348  2.7277
 8696TIP3    H247580   0.864   6.597   2.719 -2.8147 -2.2205  1.8498
 8697TIP3   OH247581   3.207   0.879  12.118  0.3155  0.0730  0.0118
 8697TIP3    H147582   3.266   0.807  12.094 -1.4268 -1.0088 -1.2941
 8697TIP3    H247583   3.127   0.861  12.069 -1.2719  1.2456  2.0270
 8698TIP3   OH247584   1.110   4.168  14.406 -0.1549  0.5861  0.4788
 8698TIP3    H147585   1.156   4.183  14.489  2.9520 -1.8062 -0.5986
 8698TIP3    H247586   1.026   4.130  14.431  0.2851  0.8822  2.5521
 8699TIP3   OH247587   2.162   0.061   2.529  0.5560 -0.1825  0.3854
 8699TIP3    H147588   2.098   0.115   2.575 -0.8210 -0.6934 -0.8382
 8699TIP3    H247589   2.150  -0.027   2.564  1.9941  0.0493  1.5508
 8700TIP3   OH247590   5.923   1.165  14.138 -0.0555  0.1299 -0.1886
 8700TIP3    H147591   6.017   1.180  14.134 -0.0753  0.0480 -1.1232
 8700TIP3    H247592   5.886   1.233  14.081 -0.4849 -0.4262 -0.5809
 8701TIP3   OH247593   1.388   1.513  16.305 -0.3171 -0.2476 -0.2348
 8701TIP3    H147594   1.438   1.594  16.309  1.5490 -1.3546 -0.0167
 8701TIP3    H247595   1.365   1.494  16.396 -0.7131 -0.0200 -0.2812
 8702TIP3   OH247596   3.044   0.309   5.231  0.1668 -0.1420  0.4726
 8702TIP3    H147597   3.040   0.404   5.239  2.5073 -0.0380  1.2716
 8702TIP3    H247598   2.958   0.284   5.198 -0.1534  2.3506 -0.8778
 8703TIP3   OH247599   4.416   2.276   1.563  0.1286 -0.1219 -0.5101
 8703TIP3    H147600   4.329   2.268   1.525 -0.0509  1.3918 -0.4961
 8703TIP3    H247601   4.446   2.186   1.575 -1.4802 -0.6633 -0.3784
 8704TIP3   OH247602   1.090   2.805   1.498 -0.3390 -0.1833  0.2350
 8704TIP3    H147603   1.121   2.759   1.576 -0.1703 -0.4397  0.0195
 8704TIP3    H247604   1.022   2.864   1.530 -1.3600 -1.3931  0.3717
 8705TIP3   OH247605   1.150   5.866  15.463 -0.0659  0.3654 -0.0239
 8705TIP3    H147606   1.197   5.831  15.538  0.1762 -0.2918 -0.4680
 8705TIP3    H247607   1.069   5.814  15.459 -1.1338  1.8686  1.0785
 8706TIP3   OH247608   1.588   3.232  14.447  0.0184 -0.7480  0.2248
 8706TIP3    H147609   1.645   3.279  14.507  1.3608 -1.3353 -0.5497
 8706TIP3    H247610   1.565   3.297  14.380  0.6617 -0.7881 -0.0392
 8707TIP3   OH247611   0.852   2.483   0.892 -0.8459 -0.2809 -0.1087
 8707TIP3    H147612   0.932   2.455   0.936  0.1062 -0.1711 -1.7275
 8707TIP3    H247613   0.786   2.420   0.921  0.0272 -0.9453  0.5039
 8708TIP3   OH247614   4.247   2.736   0.173 -0.0443  0.1517  0.0562
 8708TIP3    H147615   4.181   2.726   0.105  2.2972 -0.5667 -2.2924
 8708TIP3    H247616   4.294   2.816   0.150 -0.3553  0.9298  1.9607
 8709TIP3   OH247617   4.803   4.975   4.694 -0.1115  0.4721  0.3341
 8709TIP3    H147618   4.796   5.001   4.786  1.6012  0.3366  0.5394
 8709TIP3    H247619   4.860   5.042   4.655 -1.8204  1.2429 -0.9496
 8710TIP3   OH247620   2.356   4.690   2.981 -0.1387  0.0523  0.0554
 8710TIP3    H147621   2.437   4.678   3.032 -0.0512  1.6712  0.3402
 8710TIP3    H247622   2.363   4.778   2.945 -0.5432 -0.7860 -2.2038
 8711TIP3   OH247623   5.874   0.517   4.225  0.6027 -0.6926 -0.0955
 8711TIP3    H147624   5.904   0.503   4.135  0.0950 -1.4210 -0.1540
 8711TIP3    H247625   5.812   0.447   4.242 -2.7914  1.9282 -0.6846
 8712TIP3   OH247626   6.161   3.305   2.169  0.0696 -0.2889  0.7536
 8712TIP3    H147627   6.069   3.280   2.160 -0.2860  1.1327  0.1952
 8712TIP3    H247628   6.192   3.316   2.079 -0.0020  1.8505  0.9339
 8713TIP3   OH247629   6.546   1.349  14.436  0.0983  0.3006  0.5387
 8713TIP3    H147630   6.590   1.291  14.497 -0.3531  0.0800  0.6598
 8713TIP3    H247631   6.539   1.432  14.482 -1.4561 -0.2390  1.3296
 8714TIP3   OH247632   0.162   6.031  11.177 -0.0177 -0.0266  0.2547
 8714TIP3    H147633   0.095   6.084  11.220 -0.0437  1.1850 -1.2034
 8714TIP3    H247634   0.142   6.038  11.084  1.4482 -0.6049 -0.1340
 8715TIP3   OH247635   4.563   5.481   5.096 -0.5430  0.0732  0.7182
 8715TIP3    H147636   4.545   5.470   5.003  0.2777  1.7981  0.3092
 8715TIP3    H247637   4.532   5.400   5.137  0.2207 -1.2652 -1.1970
 8716TIP3   OH247638   1.867   5.995  13.115  0.5366  0.3011 -0.4666
 8716TIP3    H147639   1.914   6.000  13.198  0.1120 -0.7108 -0.1432
 8716TIP3    H247640   1.873   6.083  13.078  1.3684  0.5703  0.2827
 8717TIP3   OH247641   2.518   1.225  13.255 -0.3476 -0.0089 -0.1139
 8717TIP3    H147642   2.423   1.235  13.255 -0.2018  1.8168  0.5282
 8717TIP3    H247643   2.542   1.219  13.347  0.3631  2.6294 -0.0443
 8718TIP3   OH247644   4.216   3.391   4.076 -0.0172  0.5401 -0.4412
 8718TIP3    H147645   4.233   3.301   4.105  0.2214  0.5658 -0.5037
 8718TIP3    H247646   4.183   3.435   4.154 -1.6641 -0.0103 -0.7855
 8719TIP3   OH247647   6.596   5.064   5.431  0.2000 -0.0002 -0.0752
 8719TIP3    H147648   6.604   5.050   5.526  1.8648 -2.0038 -0.4302
 8719TIP3    H247649   6.520   5.011   5.406  1.0135 -1.2062 -0.1046
 8720TIP3   OH247650   1.639   5.698   6.425  0.1992  0.8435 -0.4483
 8720TIP3    H147651   1.555   5.710   6.470  0.4386  0.6338  0.0664
 8720TIP3    H247652   1.635   5.757   6.350 -1.6664 -1.3859 -2.2284
 8721TIP3   OH247653   6.596   6.305   3.067 -0.0951 -0.2992 -0.2265
 8721TIP3    H147654   6.569   6.378   3.012  0.9004  0.5007  0.3121
 8721TIP3    H247655   6.670   6.339   3.117  1.9238 -2.3142 -1.6177
 8722TIP3   OH247656   3.195   3.164   1.111  0.5620 -0.0187  0.1384
 8722TIP3    H147657   3.204   3.208   1.026 -0.3749  1.5521  0.8148
 8722TIP3    H247658   3.228   3.228   1.174  2.5157 -1.6800  0.8943
 8723TIP3   OH247659   1.354   1.305  11.740  0.3547 -0.0371  0.0068
 8723TIP3    H147660   1.377   1.212  11.739 -2.0986 -0.7213 -0.7364
 8723TIP3    H247661   1.354   1.329  11.832  1.4552 -0.6138  0.1792
 8724TIP3   OH247662   1.956   1.750  13.430  0.4717  0.2080  0.6847
 8724TIP3    H147663   1.915   1.666  13.409 -0.9316  0.4524  2.2228
 8724TIP3    H247664   2.039   1.749  13.382  0.6925 -2.2316  0.9859
 8725TIP3   OH247665   0.559   1.069   0.378 -0.2437 -0.1660  0.0055
 8725TIP3    H147666   0.647   1.042   0.402  0.5978  0.6600 -1.9212
 8725TIP3    H247667   0.563   1.085   0.283 -3.2179 -2.9467 -0.7873
 8726TIP3   OH247668   5.137   1.363   6.395 -0.1396  0.5080 -0.3019
 8726TIP3    H147669   5.209   1.403   6.445  0.5066  1.8477 -2.1695
 8726TIP3    H247670   5.070   1.432   6.391 -0.6667  0.0005 -0.2915
 8727TIP3   OH247671   3.807   4.067   6.496  0.0449 -0.2944 -0.3384
 8727TIP3    H147672   3.875   4.006   6.467  0.3242 -0.2267  0.1615
 8727TIP3    H247673   3.727   4.015   6.498 -0.0553 -0.2209 -1.5370
 8728TIP3   OH247674   5.766   1.205  16.499 -0.5302 -0.1563  0.3368
 8728TIP3    H147675   5.739   1.123  16.541  0.4425 -0.6765 -0.0235
 8728TIP3    H247676   5.693   1.226  16.441 -1.3973 -0.0187  1.4514
 8729TIP3   OH247677   4.601   3.771   1.223 -0.2117 -0.5757  0.7435
 8729TIP3    H147678   4.685   3.726   1.215  1.0769  1.9628 -1.9581
 8729TIP3    H247679   4.552   3.744   1.145 -0.8946 -0.1003  0.9983
 8730TIP3   OH247680   5.802   1.997   1.132 -0.0261 -0.0551 -0.2947
 8730TIP3    H147681   5.715   2.005   1.093  0.3298 -0.3053 -1.1802
 8730TIP3    H247682   5.840   2.085   1.124 -0.4356  0.2178  0.6960
 8731TIP3   OH247683   4.340   1.524  10.701  0.1596 -0.0828  0.5340
 8731TIP3    H147684   4.377   1.602  10.742  0.7619  0.1525 -0.4209
 8731TIP3    H247685   4.246   1.537  10.706  0.2564  1.0845 -0.2913
 8732TIP3   OH247686   1.936   4.376   4.284  0.2521  0.2167 -0.0815
 8732TIP3    H147687   2.024   4.345   4.304  0.9880  0.6201 -2.3456
 8732TIP3    H247688   1.939   4.470   4.297 -0.2471  0.0949  1.0501
 8733TIP3   OH247689   2.155   1.936  14.038  0.6339  0.4522 -0.6237
 8733TIP3    H147690   2.061   1.937  14.052  0.8285 -1.9272  1.5376
 8733TIP3    H247691   2.192   1.961  14.123  1.9281 -1.2302 -0.6483
 8734TIP3   OH247692   5.591   0.372   3.906 -0.0544  0.2804 -0.2741
 8734TIP3    H147693   5.593   0.467   3.915  0.1696  0.2848 -0.3598
 8734TIP3    H247694   5.677   0.343   3.937  0.3358  0.2083 -1.3783
 8735TIP3   OH247695   2.552   3.366  14.624 -0.3357 -0.0947 -0.2594
 8735TIP3    H147696   2.547   3.461  14.630  0.8729 -0.0266 -0.1252
 8735TIP3    H247697   2.557   3.348  14.530 -1.5634 -0.1028 -0.3402
 8736TIP3   OH247698   5.671   0.569  14.896 -0.0846  0.1164  0.2345
 8736TIP3    H147699   5.673   0.534  14.985 -0.7312 -1.1228 -0.2051
 8736TIP3    H247700   5.663   0.664  14.908 -0.4418 -0.0469  1.4962
 8737TIP3   OH247701   4.173   0.235   5.610  0.4324  0.0864 -0.3085
 8737TIP3    H147702   4.238   0.249   5.679 -1.3298 -0.4153  1.5659
 8737TIP3    H247703   4.089   0.239   5.656 -0.7396 -2.4837 -2.0150
 8738TIP3   OH247704   3.859   4.617   3.950 -0.0029 -0.5340 -0.2633
 8738TIP3    H147705   3.830   4.535   3.911 -3.9583  0.5563  0.0096
 8738TIP3    H247706   3.843   4.607   4.044 -3.0453  1.2715 -0.4593
 8739TIP3   OH247707   6.054   3.494  14.664  0.2362  0.2282 -0.4661
 8739TIP3    H147708   6.045   3.577  14.617 -1.3914 -0.2343 -1.0362
 8739TIP3    H247709   5.985   3.496  14.730  3.2619  1.4523  2.9804
 8740TIP3   OH247710   6.283   0.743   4.526 -0.0349  0.0966  0.0203
 8740TIP3    H147711   6.313   0.683   4.596 -0.3926 -0.2016 -0.0793
 8740TIP3    H247712   6.332   0.823   4.541  3.1328 -1.2786 -1.8834
 8741TIP3   OH247713   1.711   0.215   3.886  0.4617  0.1176  0.2557
 8741TIP3    H147714   1.780   0.228   3.951  0.4120 -2.3783  0.9273
 8741TIP3    H247715   1.643   0.166   3.933 -0.2646 -0.3777 -1.2559
 8742TIP3   OH247716   6.685   4.862  14.965  0.0516 -0.7378 -0.2255
 8742TIP3    H147717   6.712   4.954  14.975  1.4441 -1.3125  1.9885
 8742TIP3    H247718   6.619   4.849  15.032 -0.3184 -1.3267 -0.6889
 8743TIP3   OH247719   5.251   3.199   5.854  0.4907 -0.3405  0.2704
 8743TIP3    H147720   5.197   3.156   5.920 -0.3737 -1.0920 -0.8931
 8743TIP3    H247721   5.189   3.230   5.788  1.2756  0.9866  0.1146
 8744TIP3   OH247722   4.328   5.613   1.548 -0.0316 -0.4852  0.2438
 8744TIP3    H147723   4.291   5.560   1.478 -0.8793 -1.2355  1.2397
 8744TIP3    H247724   4.368   5.550   1.607 -0.8033 -0.0105  1.3033
 8745TIP3   OH247725   1.902   6.090   1.732  0.3287  0.4151  0.1280
 8745TIP3    H147726   1.917   6.163   1.792  0.8433  0.8557 -0.5198
 8745TIP3    H247727   1.807   6.085   1.723  0.3170  1.4624 -0.3696
 8746TIP3   OH247728   5.886   0.655  13.453  0.0043 -0.2186  0.4539
 8746TIP3    H147729   5.908   0.567  13.423 -0.9279  0.2365 -1.7456
 8746TIP3    H247730   5.890   0.709  13.374 -0.6147  1.4861  1.5383
 8747TIP3   OH247731   1.056   3.900  16.240  0.0731 -0.1575  0.4424
 8747TIP3    H147732   1.063   3.993  16.221 -1.1468 -0.4820 -2.0907
 8747TIP3    H247733   0.966   3.889  16.272  0.4219 -0.3925  1.3613
 8748TIP3   OH247734   5.776   1.971   2.785 -0.1593  0.3264  0.3096
 8748TIP3    H147735   5.758   1.936   2.872 -0.9565  2.3102  1.0130
 8748TIP3    H247736   5.871   1.982   2.782 -0.0870 -0.1485  0.7529
 8749TIP3   OH247737   2.165   0.553   5.772  0.1641 -0.6865 -0.1686
 8749TIP3    H147738   2.153   0.480   5.832 -0.1798 -1.5290 -1.2375
 8749TIP3    H247739   2.229   0.609   5.815 -1.0995 -0.5412  1.6334
 8750TIP3   OH247740   0.506   5.658   3.291 -0.5940 -0.0789  0.0726
 8750TIP3    H147741   0.457   5.727   3.335 -0.5787 -0.4532  0.6967
 8750TIP3    H247742   0.545   5.608   3.363  1.1155  0.5095 -0.4074
 8751TIP3   OH247743   3.487   4.640   2.436 -0.2182  0.0366  0.8225
 8751TIP3    H147744   3.461   4.727   2.466  0.6490  0.5965  0.0012
 8751TIP3    H247745   3.474   4.584   2.512  0.3823  1.1159  1.7475
 8752TIP3   OH247746   6.528   5.439  10.766  0.4713  0.1710 -0.1249
 8752TIP3    H147747   6.525   5.346  10.787 -4.2274  0.4769  1.8623
 8752TIP3    H247748   6.516   5.443  10.671  1.7828 -1.1652 -0.3823
 8753TIP3   OH247749   4.544   1.743   5.705 -0.5862 -0.0461 -0.0145
 8753TIP3    H147750   4.525   1.679   5.773 -0.2990 -0.9724 -0.7799
 8753TIP3    H247751   4.597   1.695   5.641  0.5444  1.2592 -0.0845
 8754TIP3   OH247752   5.190   6.396   3.662  0.0095  0.3830  0.1490
 8754TIP3    H147753   5.127   6.467   3.663 -1.8931 -1.2305  0.6811
 8754TIP3    H247754   5.164   6.341   3.588  0.8771 -0.2423  0.2939
 8755TIP3   OH247755   1.962   3.728   5.810 -0.5159 -0.5796 -0.0934
 8755TIP3    H147756   1.998   3.816   5.801 -0.4860 -0.4738  0.8988
 8755TIP3    H247757   1.885   3.739   5.866 -0.3896 -1.2021  0.2136
 8756TIP3   OH247758   3.244   3.749  15.734  0.3642 -0.4343 -0.2952
 8756TIP3    H147759   3.163   3.776  15.778  0.2399 -0.3396 -0.5785
 8756TIP3    H247760   3.232   3.656  15.716  0.5428 -0.5483  0.1402
 8757TIP3   OH247761   5.033   3.414  11.556  0.0188  0.5317  0.0309
 8757TIP3    H147762   4.940   3.399  11.569  0.0324  0.4121 -0.0095
 8757TIP3    H247763   5.072   3.398  11.642  0.1023 -0.2139 -0.1411
 8758TIP3   OH247764   0.646   1.818  13.404 -0.5060 -0.2993 -0.2063
 8758TIP3    H147765   0.737   1.791  13.395 -0.3995  0.5789 -2.3070
 8758TIP3    H247766   0.631   1.820  13.499  1.1018 -2.1493  0.1481
 8759TIP3   OH247767   2.962   0.478  11.660  0.2534 -0.0754  0.0500
 8759TIP3    H147768   2.998   0.546  11.603 -0.6378 -0.4215 -0.9545
 8759TIP3    H247769   3.038   0.444  11.707  1.0145  0.2271 -0.9238
 8760TIP3   OH247770   0.896   4.739  14.988 -0.1393 -0.0243 -0.1579
 8760TIP3    H147771   0.970   4.767  15.043 -0.2051  0.7350 -0.4410
 8760TIP3    H247772   0.819   4.755  15.043 -0.1605  0.1083 -0.2269
 8761TIP3   OH247773   1.741   2.744  12.597  1.0068 -0.0746 -0.0073
 8761TIP3    H147774   1.685   2.753  12.520 -0.1378 -0.2794  0.7851
 8761TIP3    H247775   1.740   2.650  12.617 -1.9401  0.3651  2.5556
 8762TIP3   OH247776   6.290   6.514   5.726 -0.3676  0.2683  0.1967
 8762TIP3    H147777   6.386   6.523   5.727 -0.1746 -1.3301 -0.7721
 8762TIP3    H247778   6.261   6.567   5.800  1.1450  1.9443 -0.3172
 8763TIP3   OH247779   3.350   0.972   4.872 -0.0763  0.3031 -0.4098
 8763TIP3    H147780   3.375   0.994   4.962 -0.1582 -0.1619 -0.2698
 8763TIP3    H247781   3.432   0.949   4.829  0.2273  2.2644 -0.9768
 8764TIP3   OH247782   5.842   5.996   5.620  0.1073 -0.2951  0.7141
 8764TIP3    H147783   5.766   5.983   5.562  0.2326  0.6762  0.3204
 8764TIP3    H247784   5.907   5.934   5.588  0.3912  0.6341 -0.5930
 8765TIP3   OH247785   5.303   5.548  12.905  0.1558  0.2979 -0.1688
 8765TIP3    H147786   5.308   5.591  12.991 -2.5114  0.4255  0.0058
 8765TIP3    H247787   5.264   5.614  12.847 -3.6698 -1.5222  0.0079
 8766TIP3   OH247788   6.649   0.341  13.520 -0.0792 -0.2018 -0.7166
 8766TIP3    H147789   6.554   0.349  13.509 -0.0152  1.3859 -0.3514
 8766TIP3    H247790   6.677   0.287  13.446 -1.0474  0.8202 -1.8615
 8767TIP3   OH247791   1.121   1.564  11.913  0.3793  0.4664 -0.0653
 8767TIP3    H147792   1.102   1.657  11.924  1.4222  0.9316 -1.7317
 8767TIP3    H247793   1.208   1.552  11.951 -0.3919 -0.2115  1.5782
 8768TIP3   OH247794   3.599   4.394  16.958 -0.0274 -0.0876 -0.0282
 8768TIP3    H147795   3.503   4.396  16.955 -0.0630  0.9893  1.1450
 8768TIP3    H247796   3.625   4.485  16.970  1.1119 -0.4567  0.4662
 8769TIP3   OH247797   3.124   1.225   5.551 -0.2466  0.4403  0.3495
 8769TIP3    H147798   3.073   1.154   5.588 -0.2356 -0.6916 -1.7043
 8769TIP3    H247799   3.155   1.274   5.628 -1.1081 -1.1355  1.7693
 8770TIP3   OH247800   3.655   2.385   3.695  0.1235 -0.3377 -0.0793
 8770TIP3    H147801   3.633   2.320   3.762 -0.0585 -0.1235  0.0687
 8770TIP3    H247802   3.736   2.426   3.727 -0.0758 -0.0918  0.1135
 8771TIP3   OH247803   1.065   5.483  15.674 -0.1428  0.2197  0.2484
 8771TIP3    H147804   1.139   5.431  15.706 -0.3206 -0.2571 -0.1037
 8771TIP3    H247805   0.994   5.420  15.664 -0.7146  0.7415  0.9320
 8772TIP3   OH247806   5.794   0.350   3.175  0.2545 -0.0810 -0.1320
 8772TIP3    H147807   5.831   0.417   3.118  1.3993  0.0981  0.7980
 8772TIP3    H247808   5.740   0.296   3.116 -3.5161  3.5018 -0.4304
 8773TIP3   OH247809   4.711   3.066   2.603  0.6502  0.1472  0.2717
 8773TIP3    H147810   4.644   3.012   2.562  1.7208 -0.2629 -1.0220
 8773TIP3    H247811   4.794   3.022   2.582  1.5923  2.3275 -1.0168
 8774TIP3   OH247812   5.830   0.224   0.012 -0.4371  0.1916  0.4115
 8774TIP3    H147813   5.801   0.133   0.022  1.5719 -0.5260  0.3860
 8774TIP3    H247814   5.893   0.236   0.083 -1.1323  1.8035  0.7866
 8775TIP3   OH247815   1.562   5.078  11.554  0.1686 -0.2777  0.0943
 8775TIP3    H147816   1.522   5.000  11.594  1.8337 -1.2564 -0.0621
 8775TIP3    H247817   1.622   5.111  11.621  1.2980 -0.6062 -0.7187
 8776TIP3   OH247818   2.095   6.420   0.196 -0.3128 -0.3165  0.1080
 8776TIP3    H147819   2.083   6.512   0.174 -0.0056 -0.2695  0.1335
 8776TIP3    H247820   2.013   6.378   0.169 -0.0944 -0.1971 -0.7819
 8777TIP3   OH247821   5.450   5.078  12.346  0.3443  0.1968 -0.3041
 8777TIP3    H147822   5.489   5.057  12.261 -0.6344  2.0029 -1.2569
 8777TIP3    H247823   5.520   5.121  12.394 -0.2208  3.1798 -1.9084
 8778TIP3   OH247824   0.980   2.773   6.435 -0.6555 -0.3540  0.2100
 8778TIP3    H147825   0.937   2.838   6.490  0.2807  0.6773 -0.2587
 8778TIP3    H247826   0.908   2.717   6.405 -1.3626 -0.0629  1.2955
 8779TIP3   OH247827   0.704   1.020  14.404 -0.6526  0.0220  0.1832
 8779TIP3    H147828   0.783   1.068  14.430 -0.2338 -0.9738  0.8445
 8779TIP3    H247829   0.665   1.073  14.334 -0.3177  1.3929  0.9922
 8780TIP3   OH247830   6.340   0.149  14.443 -0.4017  0.5391  0.6355
 8780TIP3    H147831   6.283   0.079  14.475 -2.3035  1.8418  0.2603
 8780TIP3    H247832   6.406   0.159  14.511 -0.1632 -1.4837  0.7659
 8781TIP3   OH247833   1.598   3.804  15.990 -0.0312  0.3012 -0.0353
 8781TIP3    H147834   1.642   3.721  16.007  1.9394  0.8391 -2.0299
 8781TIP3    H247835   1.517   3.780  15.945  0.8589 -0.5400 -1.2404
 8782TIP3   OH247836   5.024   0.598   4.729 -0.0522 -0.1774 -0.4603
 8782TIP3    H147837   4.978   0.558   4.656  0.1634  0.2480 -0.8356
 8782TIP3    H247838   4.959   0.603   4.799  0.1633 -2.0691 -0.0584
 8783TIP3   OH247839   3.438   4.690   1.688  0.3185 -0.2459 -0.2274
 8783TIP3    H147840   3.492   4.672   1.765  0.3995 -0.1958 -0.2728
 8783TIP3    H247841   3.412   4.781   1.698  1.3442  0.1317 -0.8884
 8784TIP3   OH247842   0.987   3.982   5.308 -0.3401  0.0566 -0.0333
 8784TIP3    H147843   1.056   3.962   5.371 -0.2472 -1.6677 -0.6332
 8784TIP3    H247844   0.916   3.922   5.329 -0.6312  0.0181 -1.0523
 8785TIP3   OH247845   6.448   1.195   5.320 -0.0912  0.0347  0.5509
 8785TIP3    H147846   6.528   1.237   5.289 -0.6352  0.2991 -0.5314
 8785TIP3    H247847   6.382   1.264   5.317 -0.7744 -0.6419 -0.3055
 8786TIP3   OH247848   5.753   5.246  14.478  0.4711 -0.3907 -0.3210
 8786TIP3    H147849   5.820   5.259  14.545  0.6227 -0.8959 -0.3748
 8786TIP3    H247850   5.800   5.217  14.401  0.4077  1.1053 -0.9609
 8787TIP3   OH247851   4.374   5.166  13.124 -0.1915  0.6227  0.3743
 8787TIP3    H147852   4.377   5.239  13.062 -0.0557 -0.0864 -0.4732
 8787TIP3    H247853   4.281   5.148  13.135 -0.1978  0.2664 -0.2157
 8788TIP3   OH247854   0.330   5.720  14.805  0.6742 -0.1727 -0.4683
 8788TIP3    H147855   0.239   5.728  14.775 -0.0812 -0.6549  1.5030
 8788TIP3    H247856   0.383   5.740  14.728 -1.0904 -1.0504 -1.9761
 8789TIP3   OH247857   4.373   4.621  11.746  0.2434  0.6012 -0.1288
 8789TIP3    H147858   4.350   4.534  11.779  0.9847  0.8580  1.1476
 8789TIP3    H247859   4.303   4.678  11.777 -0.8264  0.3186 -1.8934
 8790TIP3   OH247860   1.968   3.118   1.622  0.0262 -0.1438  0.2723
 8790TIP3    H147861   1.950   3.027   1.596 -0.1030 -0.4441  1.3743
 8790TIP3    H247862   2.047   3.141   1.573 -0.6562 -0.4075 -0.9985
 8791TIP3   OH247863   4.188   0.409   2.503 -0.1197  0.1770  0.6629
 8791TIP3    H147864   4.247   0.449   2.567  1.9224 -0.4392 -0.7235
 8791TIP3    H247865   4.185   0.316   2.527  0.2930  0.0254  0.1437
 8792TIP3   OH247866   5.454   0.783  12.748 -0.0649  0.3430  0.2109
 8792TIP3    H147867   5.533   0.729  12.752  0.3966  1.0424  0.8026
 8792TIP3    H247868   5.464   0.835  12.669  1.0106  1.8117  1.2617
 8793TIP3   OH247869   4.304   0.985  16.232  0.4696 -0.4216 -0.1120
 8793TIP3    H147870   4.226   0.998  16.287 -1.2096 -0.3964 -2.3527
 8793TIP3    H247871   4.356   1.064  16.245 -0.5813  0.2101  0.3866
 8794TIP3   OH247872   5.655   3.170   0.651  0.0889  0.4053 -0.3787
 8794TIP3    H147873   5.656   3.256   0.610  0.3212  0.9859  0.8099
 8794TIP3    H247874   5.748   3.149   0.664  0.0093  0.4950  0.3706
 8795TIP3   OH247875   6.498   0.752   5.904 -0.0902 -0.0048  0.5555
 8795TIP3    H147876   6.410   0.788   5.889  0.7775  1.5801 -1.0746
 8795TIP3    H247877   6.537   0.747   5.817  1.2491 -1.2581  1.1881
 8796TIP3   OH247878   0.886   4.109  11.016  0.4388 -0.0101  0.1794
 8796TIP3    H147879   0.957   4.127  11.077  1.0524  1.0432 -0.8126
 8796TIP3    H247880   0.929   4.070  10.940 -0.0172  0.7198 -0.4728
 8797TIP3   OH247881   3.505   4.046  16.559  0.5063  0.2507 -0.2641
 8797TIP3    H147882   3.413   4.064  16.540  0.3245  0.3974  0.7023
 8797TIP3    H247883   3.504   4.007  16.647  1.2666 -0.7159 -0.6615
 8798TIP3   OH247884   6.096   5.864  13.440  0.0299  0.4019 -0.2624
 8798TIP3    H147885   6.105   5.870  13.536  0.9618  0.7694 -0.3654
 8798TIP3    H247886   6.091   5.955  13.411 -1.3281  0.2816 -0.4879
 8799TIP3   OH247887   4.993   0.917  11.582 -0.5149  0.6660  0.0708
 8799TIP3    H147888   4.968   0.996  11.533 -0.6616  1.3943  1.2739
 8799TIP3    H247889   5.054   0.949  11.649  1.1759 -0.5918 -0.8052
 8800TIP3   OH247890   4.058   4.144  11.828  0.3920 -0.4140  0.2242
 8800TIP3    H147891   4.008   4.074  11.787 -0.2778  0.5491 -0.6638
 8800TIP3    H247892   4.106   4.101  11.899 -0.3487 -1.6757 -0.0050
 8801TIP3   OH247893   2.273   5.026   4.154 -0.1592 -0.0366 -0.0924
 8801TIP3    H147894   2.209   5.067   4.096 -1.5192  1.9981  2.6017
 8801TIP3    H247895   2.278   5.085   4.230  2.2485 -1.9843  1.4361
 8802TIP3   OH247896   2.998   6.403  14.722 -0.1310  0.0522 -0.0832
 8802TIP3    H147897   2.921   6.458  14.736 -0.7488 -0.7142 -0.4014
 8802TIP3    H247898   3.068   6.465  14.698 -0.7198  0.7247 -0.0828
 8803TIP3   OH247899   2.528   2.011  12.449  0.5825 -0.1747 -0.5934
 8803TIP3    H147900   2.443   1.986  12.485  1.5455  0.5389  2.5440
 8803TIP3    H247901   2.567   1.929  12.420 -0.9138 -0.5846 -1.5449
 8804TIP3   OH247902   6.694   2.860   4.415  0.3334 -0.3447  0.5958
 8804TIP3    H147903   6.612   2.908   4.400  0.7071  0.4762  1.1220
 8804TIP3    H247904   6.716   2.823   4.329 -0.5821 -0.5790  0.4464
 8805TIP3   OH247905   1.409   1.159  13.766  0.3660  0.5563  0.0579
 8805TIP3    H147906   1.505   1.157  13.763  0.3405 -0.8412 -1.4403
 8805TIP3    H247907   1.388   1.169  13.859  1.9747 -0.4259  0.5658
 8806TIP3   OH247908   2.384   2.230  12.299  0.0249 -0.1170 -0.5157
 8806TIP3    H147909   2.368   2.136  12.308  0.6097 -0.1447  0.4062
 8806TIP3    H247910   2.298   2.270  12.308 -0.2285 -0.5642 -0.9340
 8807TIP3   OH247911   4.901   1.614  16.169 -0.0607 -0.2592 -0.0999
 8807TIP3    H147912   4.956   1.539  16.189  0.4299 -0.2424 -1.3137
 8807TIP3    H247913   4.910   1.672  16.245  1.2608 -0.4437 -0.1026
 8808TIP3   OH247914   3.119   3.104   0.343 -0.4923 -0.1425 -0.3400
 8808TIP3    H147915   3.194   3.083   0.288  0.8122  0.6742  1.0432
 8808TIP3    H247916   3.070   3.022   0.350  1.1917 -1.1530  0.0874
 8809TIP3   OH247917   5.648   3.567  13.348 -0.1513  0.2226  0.2211
 8809TIP3    H147918   5.667   3.628  13.419 -0.7922 -0.7806  1.2870
 8809TIP3    H247919   5.615   3.488  13.392 -1.5861 -0.0401 -1.2393
 8810TIP3   OH247920   0.932   2.244   3.516  0.0989  0.5337 -0.2222
 8810TIP3    H147921   0.929   2.323   3.570 -3.0933 -0.1700  0.8145
 8810TIP3    H247922   0.974   2.178   3.572 -0.5225  0.5872  0.3233
 8811TIP3   OH247923   2.358   5.656   6.616  0.3973 -0.0922 -0.6600
 8811TIP3    H147924   2.291   5.658   6.548  1.7448  0.3572 -2.0521
 8811TIP3    H247925   2.327   5.592   6.679 -0.1278 -1.8642 -2.5867
 8812TIP3   OH247926   5.925   2.698  15.027  0.3087  1.1418 -0.1081
 8812TIP3    H147927   5.893   2.614  14.995 -1.5871  2.3157 -1.5845
 8812TIP3    H247928   5.947   2.683  15.119  1.1064 -1.1963 -0.6213
 8813TIP3   OH247929   2.177   0.009   2.917 -0.5260 -0.2382  0.2042
 8813TIP3    H147930   2.209  -0.079   2.934 -1.7004 -0.7154  0.0955
 8813TIP3    H247931   2.101  -0.003   2.859 -0.1753  0.9138 -0.5457
 8814TIP3   OH247932   6.607   2.456   0.828 -0.2973  0.2337  0.1857
 8814TIP3    H147933   6.686   2.502   0.855  0.1228 -1.7106  2.5722
 8814TIP3    H247934   6.583   2.402   0.903 -1.8665 -1.9272 -1.7308
 8815TIP3   OH247935   0.713   6.727  13.756  0.2746 -0.6227  0.0868
 8815TIP3    H147936   0.637   6.774  13.723  0.1524  0.8060  2.1981
 8815TIP3    H247937   0.681   6.681  13.834  0.1064 -5.3400 -2.4603
 8816TIP3   OH247938   4.035   5.792   4.897  0.8749  0.4331 -0.2980
 8816TIP3    H147939   4.089   5.716   4.918 -2.0028 -1.7266 -0.0527
 8816TIP3    H247940   4.035   5.795   4.801  0.2151 -0.5643 -0.3454
 8817TIP3   OH247941   3.460   0.268  13.071  0.3291 -0.0575 -0.0871
 8817TIP3    H147942   3.447   0.326  13.146 -1.5147 -1.8033  1.0628
 8817TIP3    H247943   3.551   0.241  13.076  0.4075  0.3860  1.1369
 8818TIP3   OH247944   3.484   5.960  13.331 -0.1691 -0.2129 -0.4347
 8818TIP3    H147945   3.459   5.869  13.312 -0.3375 -0.1868 -0.3388
 8818TIP3    H247946   3.425   6.013  13.277  0.2571 -0.1685 -0.8714
 8819TIP3   OH247947   5.727   2.426  13.623  0.2564  0.7633 -0.0707
 8819TIP3    H147948   5.805   2.392  13.580  0.4039 -0.0498  0.7974
 8819TIP3    H247949   5.741   2.520  13.628  2.3127  0.4443  2.1642
 8820TIP3   OH247950   0.462   6.063   6.316  0.9875 -0.0114  0.0748
 8820TIP3    H147951   0.405   6.096   6.385  0.4337  0.4253 -0.5813
 8820TIP3    H247952   0.547   6.053   6.358  0.6249  0.1298  0.8484
 8821TIP3   OH247953   5.615   2.518  12.321 -0.2215  0.0238  0.4959
 8821TIP3    H147954   5.558   2.491  12.249  0.6157 -0.3171 -0.0411
 8821TIP3    H247955   5.685   2.453  12.322  0.8900  1.2053  0.2910
 8822TIP3   OH247956   3.658   5.853   3.350 -0.2995 -0.3861  0.0846
 8822TIP3    H147957   3.705   5.801   3.285  0.0077  0.4086 -0.3422
 8822TIP3    H247958   3.716   5.858   3.425 -0.1224 -0.2576 -0.0596
 8823TIP3   OH247959   2.402   4.293   0.541 -0.1785  0.6847  0.3881
 8823TIP3    H147960   2.468   4.362   0.550  1.3957 -0.5199 -1.1621
 8823TIP3    H247961   2.452   4.215   0.519 -2.2009  0.0237 -2.4129
 8824TIP3   OH247962   0.166   4.050   5.876  0.5697  0.5431 -0.1669
 8824TIP3    H147963   0.188   4.134   5.837  0.1975  0.9631  0.5184
 8824TIP3    H247964   0.246   4.021   5.920  0.6766  0.5664 -0.3457
 8825TIP3   OH247965   1.195   4.496   4.085 -0.2174 -0.5646  0.2584
 8825TIP3    H147966   1.211   4.590   4.094  1.2210 -0.8444  1.1427
 8825TIP3    H247967   1.137   4.488   4.010  0.2688  0.9843 -0.3293
 8826TIP3   OH247968   1.081   6.177   5.896 -0.0733 -0.5076  0.4363
 8826TIP3    H147969   1.158   6.201   5.947  1.1990 -2.5523 -0.4108
 8826TIP3    H247970   1.015   6.155   5.961  0.7626 -0.8105  1.2021
 8827TIP3   OH247971   0.574   2.990  16.917 -0.7756 -0.4073  0.1252
 8827TIP3    H147972   0.652   2.975  16.972  0.1669 -1.0785 -1.3225
 8827TIP3    H247973   0.531   3.066  16.957 -0.1791 -0.8879  1.8069
 8828TIP3   OH247974   4.520   1.324  15.976  0.0526  0.1334  0.5690
 8828TIP3    H147975   4.486   1.255  16.034 -1.5448  0.3021 -0.1109
 8828TIP3    H247976   4.601   1.352  16.018  1.4608 -3.0111  0.2475
 8829TIP3   OH247977   4.921   2.403  16.340  0.4350 -0.2496  0.0697
 8829TIP3    H147978   4.856   2.376  16.405 -1.0459  0.1417 -1.2051
 8829TIP3    H247979   4.982   2.329  16.335 -0.7567 -1.2724  0.2245
 8830TIP3   OH247980   5.217   0.284   2.728  0.5086 -0.2224 -0.0883
 8830TIP3    H147981   5.219   0.332   2.811  0.1737 -0.7087  0.2051
 8830TIP3    H247982   5.235   0.350   2.661  0.7964  0.1683  0.3748
 8831TIP3   OH247983   4.328   3.397   0.046  0.0876  0.1901  0.3731
 8831TIP3    H147984   4.312   3.380   0.139 -1.1673  1.6182  0.4496
 8831TIP3    H247985   4.286   3.481   0.029 -0.3160 -0.3682 -1.6644
 8832TIP3   OH247986   4.612   1.870   5.985 -0.2848 -0.5335 -0.0719
 8832TIP3    H147987   4.603   1.935   6.054  0.6381 -0.1555 -0.3030
 8832TIP3    H247988   4.527   1.870   5.941  0.2498  1.8435 -1.2315
 8833TIP3   OH247989   5.705   5.814  13.481 -0.2360  0.1793  0.3780
 8833TIP3    H147990   5.721   5.720  13.482 -2.1120 -0.1798  0.8322
 8833TIP3    H247991   5.693   5.838  13.573  0.3894  0.8955  0.2808
 8834TIP3   OH247992   5.582   0.639  15.803  0.0636  0.3009  0.0312
 8834TIP3    H147993   5.518   0.688  15.854 -0.2763 -1.5062  1.4249
 8834TIP3    H247994   5.531   0.603  15.730 -0.5352 -1.0209  1.0614
 8835TIP3   OH247995   4.441   4.568   2.159  0.2211  0.2973 -0.1731
 8835TIP3    H147996   4.497   4.621   2.215  0.1470  0.8670 -0.6189
 8835TIP3    H247997   4.399   4.506   2.218  2.1007 -0.8557  0.0292
 8836TIP3   OH247998   6.738   2.378  11.158 -0.3048 -0.4673  0.5303
 8836TIP3    H147999   6.698   2.400  11.074 -0.6004  1.3072  1.0954
 8836TIP3    H248000   6.728   2.457  11.211  0.1179 -1.4524  2.1555
 8837TIP3   OH248001   1.336   2.162  10.791  0.2106 -0.8180  0.1984
 8837TIP3    H148002   1.272   2.105  10.749  1.4085 -1.6598 -0.5515
 8837TIP3    H248003   1.395   2.189  10.720 -1.7456  3.5823 -0.0924
 8838TIP3   OH248004   4.983   6.819  12.737 -0.3503  0.2636  0.4067
 8838TIP3    H148005   5.019   6.736  12.703 -0.4736  0.7172 -0.9030
 8838TIP3    H248006   5.024   6.829  12.823  0.8298 -0.4243 -0.0373
 8839TIP3   OH248007   5.318   3.600   1.838  0.1370 -0.5998  0.6784
 8839TIP3    H148008   5.379   3.559   1.900  0.5589  1.2908  1.5947
 8839TIP3    H248009   5.238   3.548   1.844  0.9579 -1.8674  1.0193
 8840TIP3   OH248010   0.067   4.663  10.731  0.3908  0.2929 -0.1896
 8840TIP3    H148011   0.053   4.756  10.750 -0.5183  0.2286 -0.4896
 8840TIP3    H248012  -0.018   4.622  10.750  0.5309 -0.3402 -0.8853
 8841TIP3   OH248013   6.755   1.847  15.075 -0.6363  0.4092  0.4775
 8841TIP3    H148014   6.821   1.782  15.051 -1.2871 -0.0770 -0.0418
 8841TIP3    H248015   6.769   1.920  15.013 -1.7959 -0.5040 -0.9334
 8842TIP3   OH248016   3.149   3.493   5.261  0.0196 -0.5925  0.3642
 8842TIP3    H148017   3.195   3.454   5.336 -1.1057 -0.6377  1.0437
 8842TIP3    H248018   3.155   3.425   5.193 -0.2115 -1.1503  0.8876
 8843TIP3   OH248019   5.982   0.079  16.721  0.1648  0.0603 -0.6131
 8843TIP3    H148020   5.979   0.172  16.697 -1.3701  0.5895  1.3643
 8843TIP3    H248021   6.038   0.076  16.798 -2.8075  0.1013  1.7749
 8844TIP3   OH248022   4.921   2.989   4.318 -0.1417  0.1825  0.5593
 8844TIP3    H148023   4.903   3.073   4.275 -0.9152 -0.5661 -0.6423
 8844TIP3    H248024   4.929   2.926   4.247 -1.8441 -1.1825  1.4936
 8845TIP3   OH248025   2.844   1.093   2.489  0.1475 -0.0892  0.0180
 8845TIP3    H148026   2.859   1.176   2.444  1.1477 -0.2677  0.0103
 8845TIP3    H248027   2.803   1.037   2.422 -1.5949  0.7342  0.3488
 8846TIP3   OH248028   2.743   1.372  12.967  0.3306 -0.4482  0.3483
 8846TIP3    H148029   2.680   1.426  13.014 -0.0547 -0.0137 -0.6431
 8846TIP3    H248030   2.690   1.305  12.924  0.4471  0.3257 -1.0471
 8847TIP3   OH248031   1.966   2.874   1.984  0.1878  0.3624  0.0325
 8847TIP3    H148032   2.022   2.801   2.010 -1.0232 -0.4105  0.5640
 8847TIP3    H248033   1.940   2.853   1.894  0.3201  0.4364 -0.0222
 8848TIP3   OH248034   1.573   6.012  16.250  0.5018  0.0303 -0.4763
 8848TIP3    H148035   1.521   6.076  16.298 -0.1957 -0.1829 -0.9214
 8848TIP3    H248036   1.662   6.045  16.253  0.8478 -0.9050  2.5563
 8849TIP3   OH248037   0.276   1.285   2.690 -0.3874 -0.1810 -0.3340
 8849TIP3    H148038   0.285   1.299   2.596  1.7702  2.7368  0.1751
 8849TIP3    H248039   0.311   1.197   2.704  1.3278  0.1626 -2.0661
 8850TIP3   OH248040   3.437   3.587   0.006  0.1570  0.0218 -0.4230
 8850TIP3    H148041   3.510   3.542   0.048  0.8720  0.5290 -1.0920
 8850TIP3    H248042   3.461   3.591  -0.087  0.1592  1.8301 -0.3829
 8851TIP3   OH248043   0.439   5.521   3.834 -0.2389 -0.2749 -0.1325
 8851TIP3    H148044   0.378   5.532   3.761 -1.6903 -1.6845  0.8022
 8851TIP3    H248045   0.503   5.457   3.803 -0.4466 -0.3480 -0.4096
 8852TIP3   OH248046   3.249   0.711   4.159  0.0038 -0.6080 -0.0012
 8852TIP3    H148047   3.188   0.642   4.186  0.1093 -0.9601 -0.6498
 8852TIP3    H248048   3.202   0.759   4.091 -0.9000  1.2792  1.8507
 8853TIP3   OH248049   5.413   1.874   0.105 -0.2850 -0.0589  0.0163
 8853TIP3    H148050   5.478   1.849   0.170  0.3392 -1.3292 -1.0527
 8853TIP3    H248051   5.386   1.962   0.130  2.0178  0.6156  0.3556
 8854TIP3   OH248052   0.493   4.647   1.931 -1.1398 -0.6722 -0.6261
 8854TIP3    H148053   0.578   4.615   1.901 -1.3590 -2.8255  0.7942
 8854TIP3    H248054   0.430   4.583   1.898 -1.8361 -0.8012  0.8491
 8855TIP3   OH248055   6.696   6.320  16.937 -0.0965 -0.3042 -0.0573
 8855TIP3    H148056   6.759   6.305  16.866 -1.4955 -0.3824 -1.3486
 8855TIP3    H248057   6.743   6.299  17.017  1.0330 -1.8925 -1.0889
 8856TIP3   OH248058   5.224   0.936  16.752  0.2303  0.0003  0.4480
 8856TIP3    H148059   5.192   0.989  16.679  1.5768  0.5014  0.1996
 8856TIP3    H248060   5.290   0.991  16.795  0.8479 -1.0383  0.8710
 8857TIP3   OH248061   4.396   3.086   2.660  0.5584 -0.2182 -0.6584
 8857TIP3    H148062   4.357   3.041   2.735 -0.9777  1.3099 -0.4900
 8857TIP3    H248063   4.422   3.015   2.601 -1.1307 -1.3670 -0.0956
 8858TIP3   OH248064   0.032   5.927   0.574 -0.5336  0.1312 -0.0296
 8858TIP3    H148065  -0.020   5.876   0.513 -2.0928  0.9278  0.5627
 8858TIP3    H248066   0.035   6.015   0.536  0.0831  0.1795  0.1178
 8859TIP3   OH248067   4.036   2.509   2.341  0.3173 -0.2494 -0.3457
 8859TIP3    H148068   4.002   2.570   2.406 -1.9722 -0.0982 -1.6110
 8859TIP3    H248069   4.070   2.565   2.271 -1.2127 -0.3823 -1.2226
 8860TIP3   OH248070   1.303   1.896  11.704 -0.0406 -0.1769 -0.3650
 8860TIP3    H148071   1.218   1.926  11.735  0.1926  0.4587 -0.3193
 8860TIP3    H248072   1.366   1.934  11.766  0.2047 -1.7257  0.3978
 8861TIP3   OH248073   5.909   0.041  11.967 -0.2671 -0.5669  0.2760
 8861TIP3    H148074   5.862   0.053  11.885 -0.8617  0.9420  0.8156
 8861TIP3    H248075   5.853  -0.018  12.018 -0.7730 -0.0847  0.2843
 8862TIP3   OH248076   1.516   0.343   1.567  0.1131 -0.0307 -0.1103
 8862TIP3    H148077   1.529   0.379   1.479 -3.9018 -0.4839 -1.1138
 8862TIP3    H248078   1.533   0.416   1.626 -0.7456  1.4255 -1.5863
 8863TIP3   OH248079   5.645   0.522   4.742 -0.1304  0.3302 -0.5352
 8863TIP3    H148080   5.605   0.457   4.800  1.2523  0.0103  0.1235
 8863TIP3    H248081   5.702   0.471   4.685  0.2501  0.8617 -0.6450
 8864TIP3   OH248082   1.092   6.160   1.896 -0.1243 -0.1348 -0.2029
 8864TIP3    H148083   1.106   6.070   1.866  1.1027  0.3985 -1.3309
 8864TIP3    H248084   1.163   6.176   1.957 -1.8519 -0.7639  2.0885
 8865TIP3   OH248085   6.755   3.584   2.604  0.4282 -0.6158  0.8443
 8865TIP3    H148086   6.694   3.564   2.533 -0.2378  0.9579  0.9358
 8865TIP3    H248087   6.699   3.602   2.679  1.1039 -1.4074  1.5584
 8866TIP3   OH248088   1.423   3.662   1.463  0.2385  0.4310 -0.4210
 8866TIP3    H148089   1.453   3.752   1.474  1.1050  0.1481 -0.3562
 8866TIP3    H248090   1.341   3.658   1.512 -0.3698  1.4569 -1.3192
 8867TIP3   OH248091   4.286   1.816  12.382 -0.5903 -0.4425 -0.5865
 8867TIP3    H148092   4.344   1.743  12.405 -1.4848 -0.8214  0.5398
 8867TIP3    H248093   4.313   1.887  12.439 -2.6747 -1.3203  1.6487
 8868TIP3   OH248094   2.282   2.232  15.677  0.1809  0.6901  0.0145
 8868TIP3    H148095   2.283   2.177  15.599  2.9229 -1.4423  1.3505
 8868TIP3    H248096   2.266   2.320  15.644  1.4850 -0.0775 -3.0090
 8869TIP3   OH248097   1.240   5.397  16.258 -0.2367  0.1423  0.3529
 8869TIP3    H148098   1.227   5.303  16.243 -0.3646  0.3126 -0.6435
 8869TIP3    H248099   1.313   5.420  16.202  0.0914  0.5593  0.9365
 8870TIP3   OH248100   3.960   3.054  15.493  0.4135  0.8528 -0.0281
 8870TIP3    H148101   3.996   3.100  15.569  1.8354  1.0335 -0.7830
 8870TIP3    H248102   4.032   2.999  15.462  0.1843  1.5063 -1.8231
 8871TIP3   OH248103   3.508   4.841   5.060  0.5366  0.4502 -0.3120
 8871TIP3    H148104   3.512   4.888   5.143 -0.8000  0.5290 -0.2598
 8871TIP3    H248105   3.501   4.749   5.085 -0.8627  0.5438 -0.2829
 8872TIP3   OH248106   2.086   2.713   4.025  0.8105 -0.0827 -0.4823
 8872TIP3    H148107   2.171   2.728   3.983  0.3941  3.8576 -0.3099
 8872TIP3    H248108   2.022   2.748   3.963 -0.3345  0.2905  0.8460
 8873TIP3   OH248109   0.282   0.527   0.056  0.0212 -0.2112  0.0347
 8873TIP3    H148110   0.292   0.492   0.145  0.1085  0.9464  0.5006
 8873TIP3    H248111   0.350   0.482   0.006  0.2646 -0.5589  0.6548
 8874TIP3   OH248112   4.160   6.564  10.648  0.3045  0.0872 -0.3790
 8874TIP3    H148113   4.213   6.619  10.590  0.0115 -0.7654 -1.4798
 8874TIP3    H248114   4.083   6.617  10.668 -0.1165 -0.0092 -1.6733
 8875TIP3   OH248115   5.991   4.129  17.103 -0.7335  0.0791 -0.4148
 8875TIP3    H148116   6.012   4.221  17.120 -0.3032 -0.2811  1.2404
 8875TIP3    H248117   6.049   4.080  17.162 -0.3382 -1.3042 -1.8928
 8876TIP3   OH248118   1.106   6.262  11.989  0.4676 -0.1780  0.2512
 8876TIP3    H148119   1.168   6.310  11.935 -1.0262  0.8481 -0.6149
 8876TIP3    H248120   1.107   6.307  12.073  1.3709 -0.5766  0.4585
 8877TIP3   OH248121   2.333   4.289   2.501  0.4978  0.5869 -0.1477
 8877TIP3    H148122   2.251   4.245   2.524  0.1602  1.0409 -0.4712
 8877TIP3    H248123   2.381   4.224   2.449 -0.6467  1.0965 -1.9190
 8878TIP3   OH248124   6.797   4.942   4.420 -0.6114  0.1285  0.1993
 8878TIP3    H148125   6.709   4.946   4.457  0.0280  2.2498  1.6476
 8878TIP3    H248126   6.838   4.866   4.463 -1.8865 -1.3040 -1.0008
 8879TIP3   OH248127   6.703   2.753   1.010  0.0295 -0.5670 -0.2571
 8879TIP3    H148128   6.705   2.721   1.100 -0.1690  0.9536  0.3225
 8879TIP3    H248129   6.611   2.779   0.996 -0.3622 -2.4695 -1.5493
 8880TIP3   OH248130   4.392   4.180  14.294 -0.1161  0.4696 -0.1611
 8880TIP3    H148131   4.326   4.193  14.362  0.5227  0.6697  0.4385
 8880TIP3    H248132   4.353   4.217  14.215  0.0832  2.5233  0.6442
 8881TIP3   OH248133   1.045   5.453  10.716  0.1589 -0.0226 -0.5820
 8881TIP3    H148134   0.959   5.415  10.697  0.2112 -0.7003  0.4547
 8881TIP3    H248135   1.105   5.379  10.713  0.2880 -0.0265  1.2730
 8882TIP3   OH248136   2.374   1.992   4.718 -1.3907  0.3124 -0.0021
 8882TIP3    H148137   2.356   1.981   4.812 -0.5548 -0.2572  0.1041
 8882TIP3    H248138   2.365   2.086   4.703  2.5616  1.1570  1.5877
 8883TIP3   OH248139   2.593   2.124  13.286 -0.0886  0.3184  0.2685
 8883TIP3    H148140   2.567   2.191  13.222  2.0378 -0.7099 -1.8142
 8883TIP3    H248141   2.626   2.174  13.361 -2.5083  1.5523  0.6296
 8884TIP3   OH248142   5.226   6.765  14.147  0.1642  0.3540 -0.5449
 8884TIP3    H148143   5.193   6.718  14.224 -0.1813 -0.7465 -1.3452
 8884TIP3    H248144   5.256   6.696  14.088 -1.4664  1.0378 -2.2672
 8885TIP3   OH248145   2.759   0.346  11.067  0.3074  0.0030  0.1351
 8885TIP3    H148146   2.836   0.294  11.042 -0.0273 -0.3465 -0.1828
 8885TIP3    H248147   2.699   0.336  10.994  0.4671  1.3386 -0.2046
 8886TIP3   OH248148   1.312   4.801  12.991  0.2734 -0.4265 -0.1895
 8886TIP3    H148149   1.292   4.772  13.080  0.4871 -0.2720 -0.0911
 8886TIP3    H248150   1.407   4.814  12.991  0.1004  0.9137 -0.0462
 8887TIP3   OH248151   1.694   6.080   0.555  0.0882  0.0536  0.8704
 8887TIP3    H148152   1.720   6.006   0.501 -0.4900  1.2689 -1.1974
 8887TIP3    H248153   1.776   6.124   0.577  0.3264 -0.4677  1.0502
 8888TIP3   OH248154   5.538   3.852  14.150 -0.2249 -0.4462 -0.3910
 8888TIP3    H148155   5.559   3.923  14.210 -0.9435 -0.0901 -0.5524
 8888TIP3    H248156   5.618   3.840  14.097 -0.3230  0.6925 -0.8128
 8889TIP3   OH248157   2.724   2.609   3.972 -0.8041  0.1382  0.3475
 8889TIP3    H148158   2.779   2.657   3.910  0.5965 -1.7107  0.0595
 8889TIP3    H248159   2.644   2.589   3.924  0.1649 -1.0624 -0.8249
 8890TIP3   OH248160   1.362   0.029   3.392  0.3364 -0.1299 -0.8851
 8890TIP3    H148161   1.271   0.055   3.403  0.4568 -0.2822  0.7690
 8890TIP3    H248162   1.412   0.109   3.414  0.6123 -0.4005 -0.5076
 8891TIP3   OH248163   3.773   5.720  13.541 -0.3918  0.1192  0.2367
 8891TIP3    H148164   3.816   5.677  13.467 -0.3482  0.1909  0.2200
 8891TIP3    H248165   3.758   5.649  13.604  0.7749  0.2697  0.7217
 8892TIP3   OH248166   5.102   2.609   0.161  0.7244  0.5992  0.5496
 8892TIP3    H148167   5.085   2.634   0.252 -1.6076 -0.5069  0.4986
 8892TIP3    H248168   5.018   2.573   0.130  2.0823 -1.2093 -1.3049
 8893TIP3   OH248169   0.636   3.428   1.898 -0.3236  0.7351 -0.0797
 8893TIP3    H148170   0.588   3.503   1.864 -0.3700  0.6669 -0.1665
 8893TIP3    H248171   0.722   3.433   1.855 -0.1603  1.0096  0.2835
 8894TIP3   OH248172   5.330   1.779   2.321 -0.8756  0.5507 -0.6411
 8894TIP3    H148173   5.374   1.719   2.381  0.7712  3.3937  1.2542
 8894TIP3    H248174   5.387   1.782   2.244  0.1490  1.1378  0.1095
 8895TIP3   OH248175   5.182   2.550   1.085 -0.1208 -0.2588  0.0375
 8895TIP3    H148176   5.248   2.602   1.130 -1.1311 -0.9608  2.4652
 8895TIP3    H248177   5.120   2.614   1.051  0.1834  0.2441  0.4224
 8896TIP3   OH248178   2.029   4.756   1.624  0.2658 -0.2577 -0.0645
 8896TIP3    H148179   2.079   4.796   1.696  1.6771  0.0316 -1.1696
 8896TIP3    H248180   1.977   4.687   1.667 -0.2412  1.0236  1.4807
 8897TIP3   OH248181   5.353   0.138  12.957 -0.3667  0.0409 -0.0552
 8897TIP3    H148182   5.418   0.083  13.000  0.0528  0.5874  0.0247
 8897TIP3    H248183   5.339   0.098  12.871  0.6475  0.3357 -0.3726
 8898TIP3   OH248184   4.425   3.829  13.528 -0.3289 -0.6420 -0.6098
 8898TIP3    H148185   4.438   3.853  13.436 -0.2006  1.1690 -0.1571
 8898TIP3    H248186   4.494   3.874  13.575  0.0565 -2.1474  0.3322
 8899TIP3   OH248187   2.059   1.352  12.683 -0.2336 -0.0638 -0.0293
 8899TIP3    H148188   1.999   1.415  12.722 -1.5728 -2.8279  2.8601
 8899TIP3    H248189   2.016   1.267  12.696  3.2026 -1.9854  0.0049
 8900TIP3   OH248190   4.050   5.248   0.061 -0.1650  0.5068  0.0869
 8900TIP3    H148191   4.059   5.304   0.138 -1.7546  1.5876 -0.4496
 8900TIP3    H248192   4.078   5.303  -0.013  0.0283 -0.0450 -0.2608
 8901TIP3   OH248193   0.598   0.676   1.454  0.4201 -0.2060 -0.0229
 8901TIP3    H148194   0.639   0.696   1.538 -0.3119  2.5373 -0.2098
 8901TIP3    H248195   0.658   0.711   1.389  0.9338 -2.2329 -0.7060
 8902TIP3   OH248196   0.766   0.482   3.243 -0.4277  0.4063 -0.1913
 8902TIP3    H148197   0.732   0.396   3.266 -1.6726  0.4812 -1.6350
 8902TIP3    H248198   0.716   0.543   3.297 -0.0995  0.2914  0.2497
 8903TIP3   OH248199   1.094   4.110  15.852  0.4583 -0.0568 -0.0064
 8903TIP3    H148200   1.104   4.015  15.861  2.1248  0.1872  1.4478
 8903TIP3    H248201   1.163   4.146  15.908 -0.1811  2.0223 -0.4722
 8904TIP3   OH248202   1.230   0.284   1.780 -0.1024 -0.2307 -0.6267
 8904TIP3    H148203   1.226   0.341   1.704 -0.5225  0.2102 -0.2809
 8904TIP3    H248204   1.267   0.202   1.747 -1.9674 -0.6821 -1.6920
 8905TIP3   OH248205   2.569   3.059   5.126  0.4681  0.1177 -0.3966
 8905TIP3    H148206   2.589   3.015   5.044 -0.0639  0.9651 -1.0019
 8905TIP3    H248207   2.591   3.151   5.110  0.9150  0.1978  0.6042
 8906TIP3   OH248208   2.536   5.075  14.331 -0.3009 -0.3126 -0.3238
 8906TIP3    H148209   2.490   5.095  14.249  1.0530 -0.4811 -1.1638
 8906TIP3    H248210   2.558   4.982  14.323 -0.7587 -0.5103  0.5666
 8907TIP3   OH248211   4.688   6.095  11.011  0.2472  0.4805  0.3634
 8907TIP3    H148212   4.658   6.177  10.971 -0.0869  0.6974  1.0407
 8907TIP3    H248213   4.768   6.073  10.963 -1.2528 -0.4377 -1.8805
 8908TIP3   OH248214   2.284   3.832   5.286  0.0585  0.0179 -0.5492
 8908TIP3    H148215   2.239   3.789   5.360  0.8605  0.6563  0.3356
 8908TIP3    H248216   2.214   3.848   5.223 -0.8413  0.3380  0.4886
 8909TIP3   OH248217   1.052   5.788   3.331  0.4922 -0.3528 -0.4964
 8909TIP3    H148218   1.003   5.723   3.382 -0.6324  1.7383  1.2222
 8909TIP3    H248219   1.143   5.758   3.337 -0.1258 -2.5372 -1.0099
 8910TIP3   OH248220   2.829   1.559  14.465  0.5940 -0.3162 -0.1108
 8910TIP3    H148221   2.736   1.556  14.445  0.2822  1.7240  0.8304
 8910TIP3    H248222   2.861   1.637  14.419  1.8140 -0.8654 -0.2456
 8911TIP3   OH248223   5.300   4.018  17.181 -0.1254  0.0902 -0.7586
 8911TIP3    H148224   5.373   4.022  17.242 -2.4038  1.2031  2.1618
 8911TIP3    H248225   5.259   4.105  17.187 -0.5124  0.2490 -3.9493
 8912TIP3   OH248226   0.559   1.611  14.616 -0.1678 -0.4305  0.3563
 8912TIP3    H148227   0.598   1.610  14.528  0.4027 -1.6563  0.5998
 8912TIP3    H248228   0.619   1.663  14.669 -0.7172  0.6544 -0.0364
 8913TIP3   OH248229   6.155   0.501   5.510  0.6828 -0.0164 -0.1461
 8913TIP3    H148230   6.068   0.479   5.544  0.9221  0.3581  0.7218
 8913TIP3    H248231   6.150   0.479   5.417 -0.5868  0.7188 -0.2723
 8914TIP3   OH248232   4.074   0.682   2.116 -0.0527  0.1043  0.3049
 8914TIP3    H148233   4.119   0.730   2.186 -0.1545  0.8928 -0.1650
 8914TIP3    H248234   3.982   0.680   2.143 -0.2820  1.3593 -0.3141
 8915TIP3   OH248235   3.012   0.376   0.253 -0.4615 -0.2054  0.3522
 8915TIP3    H148236   2.928   0.345   0.221 -0.9985  0.6416  0.8982
 8915TIP3    H248237   3.076   0.342   0.191 -1.4246  1.0562 -1.4051
 8916TIP3   OH248238   2.331   3.718   3.017 -1.1826 -0.0972  0.1448
 8916TIP3    H148239   2.341   3.653   3.087  3.5640 -0.3819 -0.4790
 8916TIP3    H248240   2.313   3.800   3.063  0.8405 -0.4631  1.7380
 8917TIP3   OH248241   6.464   3.756   4.138 -0.0462 -0.0861 -0.2253
 8917TIP3    H148242   6.511   3.804   4.069 -0.1296  0.0704 -0.1741
 8917TIP3    H248243   6.372   3.775   4.122 -0.0257  0.6137  0.4077
 8918TIP3   OH248244   1.296   1.734   6.472 -0.0757  0.1387 -0.0523
 8918TIP3    H148245   1.235   1.751   6.401 -0.2153 -1.7453 -0.4429
 8918TIP3    H248246   1.280   1.804   6.535 -1.3404  0.7178 -0.9758
 8919TIP3   OH248247   2.124   4.004  11.720  0.6982 -0.5394 -0.1112
 8919TIP3    H148248   2.158   3.973  11.636 -0.4805 -0.3258 -0.6842
 8919TIP3    H248249   2.129   3.928  11.778 -0.3753 -1.2851 -0.9636
 8920TIP3   OH248250   5.531   2.154  17.120 -0.5338  0.2695 -0.0811
 8920TIP3    H148251   5.437   2.163  17.128 -0.7534 -2.1295  1.0564
 8920TIP3    H248252   5.545   2.063  17.092  1.4232  0.8112 -1.1122
 8921TIP3   OH248253   0.770   2.441  14.349  0.3751 -0.1496 -0.0550
 8921TIP3    H148254   0.682   2.475  14.365  0.3183 -0.2136 -0.2302
 8921TIP3    H248255   0.785   2.379  14.420  0.8327  0.9025  0.7934
 8922TIP3   OH248256   0.498   6.341   0.003 -0.3113 -0.0661 -0.1894
 8922TIP3    H148257   0.439   6.370   0.072  2.9350  2.9215  1.6301
 8922TIP3    H248258   0.541   6.263   0.040 -0.4427 -0.0232  0.0567
 8923TIP3   OH248259   4.278   1.126  13.615  0.0220  0.5817 -0.3816
 8923TIP3    H148260   4.261   1.187  13.543  0.0147  1.0112 -0.0224
 8923TIP3    H248261   4.203   1.137  13.674 -0.5702 -0.6266 -0.8782
 8924TIP3   OH248262   3.654   5.111   0.180  0.0154 -0.0547  0.1474
 8924TIP3    H148263   3.707   5.076   0.252 -0.1278 -1.0484 -0.2233
 8924TIP3    H248264   3.573   5.140   0.223  1.0406  2.0561  0.8193
 8925TIP3   OH248265   0.318   0.849   5.561  0.4774  0.2425 -0.0767
 8925TIP3    H148266   0.394   0.803   5.527  0.8156 -1.5664  2.8065
 8925TIP3    H248267   0.342   0.874   5.650 -2.0209  0.2926  0.6651
 8926TIP3   OH248268   0.325   3.479   0.324 -0.3961 -0.1439 -0.2080
 8926TIP3    H148269   0.272   3.551   0.291  0.0481  0.0925 -0.4029
 8926TIP3    H248270   0.325   3.414   0.253 -0.4331 -0.1500 -0.2025
 8927TIP3   OH248271   3.853   4.485   6.230 -0.0048  0.5076  0.4010
 8927TIP3    H148272   3.845   4.462   6.138  2.4983  1.1615 -0.0720
 8927TIP3    H248273   3.910   4.561   6.231  0.0042  0.5505  2.5018
 8928TIP3   OH248274   2.222   1.508  10.637 -0.2234 -0.3277 -0.1875
 8928TIP3    H148275   2.128   1.525  10.632 -0.0483  1.4880  1.3715
 8928TIP3    H248276   2.253   1.513  10.547 -1.2192  1.8313 -0.4528
 8929TIP3   OH248277   6.025   6.428  12.774 -0.5872  0.4305  0.3084
 8929TIP3    H148278   6.119   6.424  12.757 -0.6243  0.7510 -0.0074
 8929TIP3    H248279   6.004   6.522  12.772 -1.2319  0.2954 -1.5501
 8930TIP3   OH248280   0.499   3.023   0.213  0.7783 -0.1665  0.2959
 8930TIP3    H148281   0.417   3.024   0.262 -1.0363  0.1353 -2.5351
 8930TIP3    H248282   0.531   3.113   0.218 -0.3423  0.2899 -0.5441
 8931TIP3   OH248283   2.711   2.129  11.258 -0.6028 -0.2737  0.8288
 8931TIP3    H148284   2.636   2.098  11.208 -1.5363 -0.2068  2.1446
 8931TIP3    H248285   2.678   2.141  11.347  0.3707  2.0380  0.9504
 8932TIP3   OH248286   3.063   5.362   4.304 -0.6887 -0.1394  0.4073
 8932TIP3    H148287   3.158   5.356   4.308 -0.4586  0.9772 -1.9402
 8932TIP3    H248288   3.040   5.429   4.369  0.3438  0.9691 -0.3230
 8933TIP3   OH248289   1.277   0.688   5.441  0.5032 -0.0557  0.1010
 8933TIP3    H148290   1.227   0.747   5.384  1.3301 -1.8085 -2.6704
 8933TIP3    H248291   1.212   0.627   5.475 -0.1365  1.5124  1.8743
 8934TIP3   OH248292   4.395   4.162   1.052  0.0963  0.6934 -0.0568
 8934TIP3    H148293   4.374   4.173   0.960 -0.0177  2.2712  0.1309
 8934TIP3    H248294   4.313   4.132   1.092 -0.1190  0.9326 -0.3168
 8935TIP3   OH248295   5.634   3.014  15.698  0.0629  0.7789  0.5057
 8935TIP3    H148296   5.564   3.030  15.634 -2.0501  1.8530  2.9312
 8935TIP3    H248297   5.683   3.096  15.701  0.0414  0.7953  0.4132
 8936TIP3   OH248298   3.082   5.192  11.758 -0.2802 -0.3700  0.0367
 8936TIP3    H148299   3.107   5.252  11.688 -0.5219 -0.2050  0.0885
 8936TIP3    H248300   3.037   5.120  11.714  0.9326 -1.0568 -0.1426
 8937TIP3   OH248301   2.013   3.482  14.747 -0.2627  0.0720 -0.1643
 8937TIP3    H148302   1.950   3.554  14.741  1.4089  1.6611  0.4864
 8937TIP3    H248303   2.097   3.525  14.758  0.8253 -2.0140  0.1007
 8938TIP3   OH248304   6.450   4.544  12.727  0.2585 -0.4880  0.3507
 8938TIP3    H148305   6.522   4.482  12.711  1.1087 -0.2155  2.8010
 8938TIP3    H248306   6.386   4.494  12.778 -0.8049 -0.3641 -0.7990
 8939TIP3   OH248307   1.243   5.460  14.271  0.0519 -0.0340  0.2189
 8939TIP3    H148308   1.149   5.476  14.259 -0.0157 -1.0242 -0.7323
 8939TIP3    H248309   1.259   5.378  14.225  1.6708  0.8699 -0.9123
 8940TIP3   OH248310   4.003   5.763   4.616 -0.1221  0.4692  0.3932
 8940TIP3    H148311   4.034   5.759   4.525 -0.7921 -0.0222  0.1726
 8940TIP3    H248312   3.948   5.841   4.619  0.8961  1.1916  0.7149
 8941TIP3   OH248313   3.102   2.991   1.805 -0.1336  0.3736  0.2643
 8941TIP3    H148314   3.097   3.010   1.711 -0.8737  0.5870  0.3404
 8941TIP3    H248315   3.161   3.059   1.839 -0.0683  0.4545 -0.0004
 8942TIP3   OH248316   6.299   5.040  11.959  0.3247 -0.1975 -0.5609
 8942TIP3    H148317   6.301   5.054  12.054  2.1902 -1.9584 -0.2804
 8942TIP3    H248318   6.246   4.962  11.947  2.0934 -1.4349 -0.6851
 8943TIP3   OH248319   0.619   4.993  12.565  0.3723 -0.6279 -0.7786
 8943TIP3    H148320   0.623   4.932  12.491 -0.3323 -1.5763 -0.0683
 8943TIP3    H248321   0.585   5.074  12.528 -0.9567 -1.4002 -1.3390
 8944TIP3   OH248322   3.923   5.402   1.180 -0.0293 -0.0015 -0.3626
 8944TIP3    H148323   3.920   5.387   1.085  0.0962  0.9149 -0.5239
 8944TIP3    H248324   3.887   5.322   1.218  1.5790 -1.1452 -1.1009
 8945TIP3   OH248325   3.114   0.910  11.212  1.0863 -0.5314  0.8753
 8945TIP3    H148326   3.125   1.005  11.206  0.2006 -0.2503  2.6894
 8945TIP3    H248327   3.176   0.883  11.280 -0.2376 -0.8655  1.9960
 8946TIP3   OH248328   0.625   1.054  16.390 -0.4930  0.6656  0.0723
 8946TIP3    H148329   0.706   1.103  16.374  0.2794  0.2299  2.2564
 8946TIP3    H248330   0.645   0.965  16.359 -1.2337  1.1883 -2.1162
 8947TIP3   OH248331   2.573   0.184  13.937 -0.1187 -0.4030  0.0349
 8947TIP3    H148332   2.552   0.233  13.858 -0.2425 -0.4910  0.0132
 8947TIP3    H248333   2.568   0.249  14.007  0.8665 -0.1237 -0.1326
 8948TIP3   OH248334   6.075   2.965   1.578 -0.2944  0.5014  0.1052
 8948TIP3    H148335   6.044   2.930   1.662  0.0120 -0.0390 -0.0056
 8948TIP3    H248336   6.137   2.899   1.546  1.6318  1.9025  0.7143
 8949TIP3   OH248337   3.089   2.009   5.934  0.3172 -0.4980 -0.0457
 8949TIP3    H148338   3.155   1.946   5.905  0.0431 -1.0253  0.4577
 8949TIP3    H248339   3.139   2.079   5.976  0.6063 -0.4939 -0.3948
 8950TIP3   OH248340   3.575   0.588  11.844  0.9282 -1.1806  0.0269
 8950TIP3    H148341   3.549   0.503  11.810  1.1021 -2.0135  1.8429
 8950TIP3    H248342   3.623   0.629  11.772  0.6409 -2.5208 -0.9640
 8951TIP3   OH248343   4.544   5.431   4.100 -0.0303  0.2913  0.3075
 8951TIP3    H148344   4.493   5.498   4.146 -2.1564  0.2193 -1.7309
 8951TIP3    H248345   4.624   5.477   4.073 -1.1548  1.9108 -0.4973
 8952TIP3   OH248346   5.004   4.217   0.486  0.0918  0.2872 -0.1827
 8952TIP3    H148347   5.003   4.123   0.503 -2.4307  0.0524 -1.0970
 8952TIP3    H248348   5.084   4.249   0.527  1.3885 -2.3591 -0.4591
 8953TIP3   OH248349   4.851   6.821   4.060  0.5538 -0.4985  0.3973
 8953TIP3    H148350   4.935   6.778   4.078  0.3048 -1.3336 -0.3536
 8953TIP3    H248351   4.786   6.754   4.081  0.1478 -0.4102 -0.5679
 8954TIP3   OH248352   2.542   3.557   1.373  0.5519  0.5731  0.5031
 8954TIP3    H148353   2.560   3.646   1.344  2.1884 -0.3520 -1.6152
 8954TIP3    H248354   2.448   3.556   1.389 -0.2206  1.8216 -2.9266
 8955TIP3   OH248355   5.127   6.113   2.659 -0.1522  0.0170  0.1994
 8955TIP3    H148356   5.072   6.178   2.616 -0.1486  0.1200  0.3502
 8955TIP3    H248357   5.211   6.158   2.674 -0.3190  0.1455  0.7674
 8956TIP3   OH248358   5.998   3.173   0.461 -0.2084  0.2361  0.0973
 8956TIP3    H148359   5.933   3.151   0.395  0.4953  0.0145 -0.5376
 8956TIP3    H248360   6.011   3.091   0.510  1.6395 -0.5690 -1.5943
 8957TIP3   OH248361   4.616   4.328  12.105  0.2107  0.5931  0.0517
 8957TIP3    H148362   4.564   4.358  12.180 -0.4999  1.3462 -0.7115
 8957TIP3    H248363   4.650   4.409  12.067  1.0864  0.1708 -0.0731
 8958TIP3   OH248364   6.672   0.200  12.315 -0.2019  0.4759 -0.3137
 8958TIP3    H148365   6.659   0.124  12.372  0.9659 -2.0311 -3.1357
 8958TIP3    H248366   6.615   0.267  12.352 -0.0164 -1.1281  3.3534
 8959TIP3   OH248367   0.200   6.243   4.805 -0.0428  0.1105  0.3829
 8959TIP3    H148368   0.254   6.316   4.775  1.7911 -1.6153 -0.7483
 8959TIP3    H248369   0.209   6.177   4.737 -1.2650 -1.3839  1.6012
 8960TIP3   OH248370   5.522   2.805  13.899  0.3386  0.5553 -0.7035
 8960TIP3    H148371   5.447   2.750  13.875  0.3323  0.7212 -1.0716
 8960TIP3    H248372   5.598   2.752  13.877  0.3391 -0.1370  0.8836
 8961TIP3   OH248373   0.182   4.177   1.494 -0.5068  0.6227  0.0431
 8961TIP3    H148374   0.255   4.204   1.440  0.8260 -0.0438  1.4368
 8961TIP3    H248375   0.108   4.230   1.464  1.1123  3.1512  0.2594
 8962TIP3   OH248376   0.843   6.611  14.060  0.1182  0.2554 -0.5269
 8962TIP3    H148377   0.767   6.614  14.118 -1.2457 -0.0906 -2.2059
 8962TIP3    H248378   0.860   6.702  14.037 -0.3944  0.2722 -0.8632
 8963TIP3   OH248379   6.160   6.616   4.783 -0.6756 -0.0834  0.1427
 8963TIP3    H148380   6.189   6.609   4.874  1.2182 -2.8214 -0.5334
 8963TIP3    H248381   6.081   6.561   4.779  0.4350 -1.7352 -0.2131
 8964TIP3   OH248382   4.411   2.653  10.771  0.6356  0.0245 -0.3308
 8964TIP3    H148383   4.328   2.639  10.726  1.5598 -0.3150 -1.9831
 8964TIP3    H248384   4.454   2.722  10.722  0.3948  1.9010  1.9011
 8965TIP3   OH248385   3.298   0.319   5.504 -0.0826  0.4559  0.3601
 8965TIP3    H148386   3.269   0.399   5.460  2.8367  1.5405  0.1383
 8965TIP3    H248387   3.370   0.347   5.561  0.3084 -1.8426  1.1294
 8966TIP3   OH248388   5.467   0.861  13.646  0.4347 -0.2417  0.6343
 8966TIP3    H148389   5.409   0.871  13.571  0.5886 -1.9979  0.2357
 8966TIP3    H248390   5.553   0.844  13.609 -0.0374 -4.5561  0.9780
 8967TIP3   OH248391   3.487   5.580   2.878  0.4448 -0.6394  0.2360
 8967TIP3    H148392   3.582   5.592   2.890  0.2205  0.7811  0.7589
 8967TIP3    H248393   3.457   5.544   2.962 -0.0603  2.8092  1.6902
 8968TIP3   OH248394   4.863   0.058   0.440  0.1095 -0.5666  0.1438
 8968TIP3    H148395   4.945   0.109   0.438  0.3245 -0.9404 -1.1452
 8968TIP3    H248396   4.828   0.066   0.351  0.2395 -2.8263 -0.1464
 8969TIP3   OH248397   0.878   0.434   6.111  0.3247  0.0037 -0.1195
 8969TIP3    H148398   0.785   0.443   6.128  0.3626  0.4073 -0.1322
 8969TIP3    H248399   0.921   0.482   6.182  0.5107  0.2583 -0.4010
 8970TIP3   OH248400   5.444   4.930  13.352  0.0371 -0.1142  0.1353
 8970TIP3    H148401   5.459   4.987  13.276  1.3389  1.5042  1.5347
 8970TIP3    H248402   5.350   4.915  13.352 -0.1569  0.8909 -1.0744
 8971TIP3   OH248403   5.266   0.263   4.355 -0.2754 -0.0906 -0.3717
 8971TIP3    H148404   5.359   0.284   4.347  0.0145 -1.4707 -0.9930
 8971TIP3    H248405   5.241   0.298   4.440  1.0527 -0.4796  0.2089
 8972TIP3   OH248406   2.060   1.099   5.396  0.0718 -0.7964 -0.5731
 8972TIP3    H148407   1.992   1.156   5.432 -0.3397 -0.5028 -1.7661
 8972TIP3    H248408   2.018   1.056   5.321  1.0871 -0.9087 -1.0876
 8973TIP3   OH248409   1.756   2.284   2.315 -0.0416  0.4443  0.8493
 8973TIP3    H148410   1.725   2.320   2.232  0.5932 -1.5249 -0.3158
 8973TIP3    H248411   1.840   2.328   2.330  0.0457  0.5153  0.2061
 8974TIP3   OH248412   5.032   1.928   4.642 -0.8680 -0.1613 -0.6963
 8974TIP3    H148413   4.986   1.978   4.710 -2.0007 -1.7805 -0.2199
 8974TIP3    H248414   4.983   1.945   4.562 -0.1129  0.9626 -0.9511
 8975TIP3   OH248415   0.599   3.941   3.593  0.1357  0.4765  0.5519
 8975TIP3    H148416   0.618   3.946   3.499 -0.8517 -0.7619  0.2602
 8975TIP3    H248417   0.565   3.852   3.606 -0.0079  0.7250  2.0339
 8976TIP3   OH248418   4.058   1.417  10.936 -0.1949 -0.5419 -0.1028
 8976TIP3    H148419   4.075   1.474  10.861 -0.5953  3.0537  2.2780
 8976TIP3    H248420   4.133   1.358  10.938  2.0589  2.0736 -0.9427
 8977TIP3   OH248421   6.592   3.527  12.902 -0.0812 -0.2984 -0.3929
 8977TIP3    H148422   6.588   3.543  12.808  0.1890  0.6276 -0.2568
 8977TIP3    H248423   6.669   3.472  12.914 -1.3148 -2.2548 -0.9307
 8978TIP3   OH248424   4.632   2.722  12.376 -0.1348 -0.2361 -0.0833
 8978TIP3    H148425   4.634   2.632  12.343  0.9237  1.0729 -4.2407
 8978TIP3    H248426   4.704   2.726  12.439  0.8362 -1.9662 -0.9921
 8979TIP3   OH248427   5.615   6.674  14.570 -0.1739  0.3726 -0.0078
 8979TIP3    H148428   5.614   6.586  14.606 -2.1581  0.5425  0.4751
 8979TIP3    H248429   5.699   6.681  14.525  0.0318 -1.7355 -0.0342
 8980TIP3   OH248430   0.868   0.222  15.712  0.0406  0.0967 -0.7421
 8980TIP3    H148431   0.809   0.147  15.716 -0.8726  0.8225 -0.2682
 8980TIP3    H248432   0.826   0.283  15.652  0.0699  0.8058 -0.0651
 8981TIP3   OH248433   3.362   0.610  12.479 -0.4299  0.3267 -0.7343
 8981TIP3    H148434   3.429   0.568  12.425 -1.1662 -0.1557 -1.2965
 8981TIP3    H248435   3.384   0.703  12.477  2.3196 -0.1022  2.0449
 8982TIP3   OH248436   2.480   4.356  15.181  0.1675  0.1690  0.0444
 8982TIP3    H148437   2.540   4.286  15.205 -0.7171 -0.7776 -0.3995
 8982TIP3    H248438   2.429   4.374  15.261  0.3167  0.2255  0.1265
 8983TIP3   OH248439   0.328   3.839   3.849 -0.1649 -0.3473  0.2663
 8983TIP3    H148440   0.325   3.870   3.758 -2.3222 -0.8934  0.1008
 8983TIP3    H248441   0.422   3.826   3.866  0.3562  0.4659 -1.6199
 8984TIP3   OH248442   2.885   5.418  14.024 -0.2760  0.6292 -0.1532
 8984TIP3    H148443   2.911   5.453  14.109  0.5924 -0.3287 -0.0055
 8984TIP3    H248444   2.959   5.438  13.966 -0.5928  0.7101 -0.5360
 8985TIP3   OH248445   3.161   2.121  13.389  0.4705  0.3005 -0.2937
 8985TIP3    H148446   3.218   2.197  13.398  0.7379  0.3712 -2.3080
 8985TIP3    H248447   3.131   2.123  13.299  0.0016 -1.6579 -0.2340
 8986TIP3   OH248448   2.152   0.132  14.170  0.2377  0.8015 -0.2182
 8986TIP3    H148449   2.122   0.065  14.232 -0.7437  1.5168  0.1020
 8986TIP3    H248450   2.248   0.121  14.168  0.3290  0.8948  1.5954
 8987TIP3   OH248451   0.714   3.417   4.690 -0.6226 -0.1828  0.8734
 8987TIP3    H148452   0.776   3.369   4.635 -0.7942  0.7874 -0.2029
 8987TIP3    H248453   0.638   3.359   4.696 -0.0404 -0.9210  1.3154
 8988TIP3   OH248454   6.094   2.944   4.338 -0.5705  0.3028 -0.1172
 8988TIP3    H148455   6.089   2.851   4.360 -0.1708  0.6784  1.7514
 8988TIP3    H248456   6.125   2.945   4.248 -1.0443 -1.3742 -0.3388
 8989TIP3   OH248457   3.547   2.934   2.328  0.0012 -1.0108  0.2684
 8989TIP3    H148458   3.461   2.948   2.289 -0.1243 -0.8231  0.6125
 8989TIP3    H248459   3.558   3.007   2.388  1.1410 -0.0583 -1.0368
 8990TIP3   OH248460   3.370   2.325  16.862  0.1461  0.2967  0.1523
 8990TIP3    H148461   3.332   2.411  16.845 -0.0330  0.5009  1.4373
 8990TIP3    H248462   3.434   2.341  16.932  0.0400 -0.6234  0.4757
 8991TIP3   OH248463   1.478   3.767  14.750 -0.0187  0.4071 -0.7527
 8991TIP3    H148464   1.482   3.678  14.787 -0.1991  1.0939  1.0227
 8991TIP3    H248465   1.560   3.777  14.702  1.9487  0.6310  2.3750
 8992TIP3   OH248466   6.128   6.343  11.074 -0.8158 -0.6093  0.2228
 8992TIP3    H148467   6.177   6.400  11.015 -1.5129 -0.3326 -0.1077
 8992TIP3    H248468   6.193   6.308  11.135  0.1283 -1.8211 -1.4200
 8993TIP3   OH248469   0.186   4.737   0.140 -0.3010 -0.4758 -0.1612
 8993TIP3    H148470   0.234   4.770   0.217 -3.4141  3.3489  0.4665
 8993TIP3    H248471   0.136   4.663   0.173 -1.0729  0.6898  1.4568
 8994TIP3   OH248472   6.354   4.605  11.529  0.6480  0.2428 -0.2684
 8994TIP3    H148473   6.299   4.680  11.551 -0.8998 -0.7677 -0.5217
 8994TIP3    H248474   6.373   4.563  11.613 -0.6856 -0.5305 -0.3257
 8995TIP3   OH248475   1.956   2.802  16.825  0.1029  0.1859  0.1000
 8995TIP3    H148476   1.957   2.790  16.730 -1.2672 -1.2414  0.2216
 8995TIP3    H248477   2.044   2.780  16.854  1.4583  3.4288 -1.0644
 8996TIP3   OH248478   1.364   1.502   4.622 -0.0324 -0.0291  0.4618
 8996TIP3    H148479   1.371   1.501   4.526  0.7026 -1.9970  0.4908
 8996TIP3    H248480   1.367   1.595   4.645 -1.1048  0.5544 -1.4588
 8997TIP3   OH248481   1.319   1.787   3.524  0.2733 -0.0265 -0.0723
 8997TIP3    H148482   1.260   1.809   3.596  1.3412  0.9494  0.5284
 8997TIP3    H248483   1.270   1.723   3.472 -0.0452 -1.7647  2.2150
 8998TIP3   OH248484   1.358   2.696   2.027  0.0203 -0.3444 -0.1742
 8998TIP3    H148485   1.376   2.610   1.990  0.5068  0.0308 -0.8282
 8998TIP3    H248486   1.336   2.678   2.118 -1.2042 -1.2897 -0.6144
 8999TIP3   OH248487   6.444   3.959  11.729  0.1928 -0.0156 -0.2144
 8999TIP3    H148488   6.484   3.905  11.799  1.5412  1.0235 -0.1437
 8999TIP3    H248489   6.454   3.906  11.650  0.5777 -0.3049  0.0230
 9000TIP3   OH248490   4.056   4.221  16.357 -0.3728  0.5674 -0.7358
 9000TIP3    H148491   4.083   4.308  16.384 -0.1809  0.5890 -0.9870
 9000TIP3    H248492   4.028   4.232  16.265 -1.6876  0.6442 -0.3534
 9001TIP3   OH248493   3.677   5.727  10.321 -0.3694  0.2300 -0.4437
 9001TIP3    H148494   3.678   5.722  10.417  0.4840 -4.3909 -0.4532
 9001TIP3    H248495   3.764   5.759  10.299 -0.8720  2.2095  0.2494
 9002TIP3   OH248496   4.302   4.063   5.512 -0.5934  0.0690 -1.0004
 9002TIP3    H148497   4.285   4.147   5.471  2.4897  1.0449 -0.5556
 9002TIP3    H248498   4.275   3.998   5.446 -0.6037  1.4625 -2.4155
 9003TIP3   OH248499   6.328   5.363   3.473 -0.1321  0.2587 -0.8051
 9003TIP3    H148500   6.364   5.381   3.560 -0.7264 -0.7475 -0.3260
 9003TIP3    H248501   6.392   5.306   3.432 -0.0299  0.4312 -0.8862
 9004TIP3   OH248502   0.151   5.357  17.205 -0.3512 -0.5313 -0.1854
 9004TIP3    H148503   0.119   5.447  17.215 -0.7186 -0.7918  1.2156
 9004TIP3    H248504   0.083   5.312  17.156 -1.2337 -0.5853  1.0530
 9005TIP3   OH248505   0.048   5.444   2.688 -0.6119  0.1948 -0.3692
 9005TIP3    H148506   0.113   5.439   2.758  1.2625  0.2243 -1.9992
 9005TIP3    H248507  -0.018   5.506   2.720 -0.9136 -1.2995  2.1310
 9006TIP3   OH248508   1.972   5.882   1.899 -0.0427  0.4900 -0.0420
 9006TIP3    H148509   1.876   5.883   1.893 -0.0269  1.9255 -0.4606
 9006TIP3    H248510   2.001   5.936   1.825  1.1135 -0.2216 -0.1295
 9007TIP3   OH248511   4.468   3.507   1.758  0.4968 -0.2136 -0.0423
 9007TIP3    H148512   4.517   3.439   1.712  0.7437  0.3571 -0.6412
 9007TIP3    H248513   4.496   3.589   1.716  0.4536  0.2860  0.8852
 9008TIP3   OH248514   6.638   3.609  15.980 -0.0944  0.1054  0.4970
 9008TIP3    H148515   6.730   3.596  15.958  0.0312  2.1717 -0.4739
 9008TIP3    H248516   6.616   3.693  15.939 -2.7024 -0.8432 -0.2130
 9009TIP3   OH248517   1.302   6.728  16.594 -0.0508  0.0260 -0.4742
 9009TIP3    H148518   1.382   6.678  16.579  0.8325  1.3583 -0.3892
 9009TIP3    H248519   1.268   6.695  16.678  0.2939 -0.6790 -0.6029
 9010TIP3   OH248520   2.115   1.674  14.806 -0.8111 -0.3217 -0.2325
 9010TIP3    H148521   2.073   1.756  14.781  0.0496 -0.3959 -2.0954
 9010TIP3    H248522   2.045   1.610  14.808 -1.3497  0.2697  0.4005
 9011TIP3   OH248523   1.885   3.701  14.482  0.4201 -0.0171  0.3745
 9011TIP3    H148524   1.967   3.715  14.435  0.5051  1.0848  0.8232
 9011TIP3    H248525   1.912   3.679  14.571  0.2260  0.3122  0.5142
 9012TIP3   OH248526   4.512   2.548  14.469  0.6698 -0.0350 -0.0236
 9012TIP3    H148527   4.419   2.532  14.483  0.5679  1.2833  0.9515
 9012TIP3    H248528   4.538   2.482  14.404 -0.5295 -1.5729  0.9903
 9013TIP3   OH248529   1.293   4.405  15.062 -0.0440  0.0561  0.0770
 9013TIP3    H148530   1.236   4.403  14.985 -0.5153  2.4803  0.2808
 9013TIP3    H248531   1.381   4.391  15.027 -0.2332  1.2100 -0.9590
 9014TIP3   OH248532   1.304   2.321  10.407  0.1007 -0.2837 -0.2277
 9014TIP3    H148533   1.228   2.330  10.465  0.3922  0.9916 -0.0111
 9014TIP3    H248534   1.375   2.296  10.466  0.3021  0.5953 -0.0809
 9015TIP3   OH248535   3.261   2.560   2.695  0.2499  0.1978 -0.1472
 9015TIP3    H148536   3.270   2.623   2.624 -0.5168  0.3237 -0.1409
 9015TIP3    H248537   3.205   2.604   2.760 -0.4535 -0.5470 -0.2269
 9016TIP3   OH248538   5.558   5.977  16.454 -0.0653 -0.0383  0.4603
 9016TIP3    H148539   5.473   6.011  16.428  0.9350  1.1136 -1.5590
 9016TIP3    H248540   5.618   6.007  16.385  1.9409 -0.9728  1.7051
 9017TIP3   OH248541   2.008   3.702   1.473 -0.5507 -0.3951  0.1393
 9017TIP3    H148542   1.971   3.785   1.445  1.4816  0.4689 -0.1047
 9017TIP3    H248543   1.957   3.636   1.426 -0.6991  0.8065 -1.4684
 9018TIP3   OH248544   3.571   5.308   4.166 -0.0784  0.5694 -0.0127
 9018TIP3    H148545   3.555   5.260   4.084  2.1313  1.7161 -1.2053
 9018TIP3    H248546   3.566   5.400   4.141  0.3271  0.9399  1.2183
 9019TIP3   OH248547   1.722   3.984  15.279  0.0846 -0.2677 -0.3197
 9019TIP3    H148548   1.668   3.993  15.357  0.2446 -2.0942  0.0400
 9019TIP3    H248549   1.669   3.933  15.218 -0.1708  1.4032 -1.5823
 9020TIP3   OH248550   6.686   5.507  11.206 -0.4117  0.8953  0.2912
 9020TIP3    H148551   6.732   5.591  11.213  0.3885  0.4989 -0.1097
 9020TIP3    H248552   6.717   5.457  11.281 -0.2824  0.6720  0.0898
 9021TIP3   OH248553   6.278   4.423  11.346  0.6892 -0.0254  0.0683
 9021TIP3    H148554   6.297   4.481  11.420 -0.8136 -0.4977  0.8631
 9021TIP3    H248555   6.216   4.471  11.292  1.7700  0.3101 -0.9013
 9022TIP3   OH248556   3.572   0.698   3.688 -0.8066  0.3181  0.2185
 9022TIP3    H148557   3.515   0.741   3.625 -2.8824 -2.4493  0.0579
 9022TIP3    H248558   3.573   0.606   3.662 -0.1193 -0.5730  3.0249
 9023TIP3   OH248559   5.648   3.526  14.381  0.2244  0.5953  0.3850
 9023TIP3    H148560   5.563   3.567  14.365 -0.2057 -0.8012 -1.2425
 9023TIP3    H248561   5.712   3.596  14.367 -0.6338  1.7720  2.0400
 9024TIP3   OH248562   2.169   6.734   4.481  0.3490  0.1930 -0.1634
 9024TIP3    H148563   2.163   6.828   4.496  1.1341 -0.0338  1.9815
 9024TIP3    H248564   2.114   6.695   4.549  2.5868 -0.9241  1.1652
 9025TIP3   OH248565   5.606   6.560  14.161 -0.6789 -0.3685  0.0281
 9025TIP3    H148566   5.569   6.509  14.234 -0.1664  0.3943  0.8477
 9025TIP3    H248567   5.689   6.593  14.196 -1.3819  1.7198 -0.1738
 9026TIP3   OH248568   4.467   5.614  14.971 -0.1264 -0.1507  0.1603
 9026TIP3    H148569   4.471   5.528  14.929 -1.4679 -0.5267  0.7562
 9026TIP3    H248570   4.541   5.614  15.032 -1.9808 -2.3052  2.6780
 9027TIP3   OH248571   0.707   3.762  15.785 -0.6736 -0.3257  0.0977
 9027TIP3    H148572   0.635   3.824  15.799 -0.0302  0.3865  0.3543
 9027TIP3    H248573   0.727   3.728  15.873  0.6024  0.9897  0.3580
 9028TIP3   OH248574   1.665   2.903   1.955  0.6350 -0.5819 -0.1874
 9028TIP3    H148575   1.722   2.833   1.988  0.3626 -0.0336  1.5854
 9028TIP3    H248576   1.650   2.881   1.863  0.7705 -2.6982  0.2389
 9029TIP3   OH248577   1.447   3.267  13.043 -0.2214  0.0437  0.1537
 9029TIP3    H148578   1.499   3.334  13.088 -0.3653  2.1006 -2.4737
 9029TIP3    H248579   1.504   3.233  12.975 -1.5187  0.7689 -1.3785
 9030TIP3   OH248580   1.560   0.389   4.387 -0.3976 -0.2452  0.0244
 9030TIP3    H148581   1.574   0.481   4.410  1.1488  0.0619 -1.8538
 9030TIP3    H248582   1.555   0.343   4.471 -0.7038  1.4716  0.9859
 9031TIP3   OH248583   4.234   1.519   0.186  0.9282  0.1240 -0.8091
 9031TIP3    H148584   4.241   1.497   0.279  0.3743 -2.6425 -1.3467
 9031TIP3    H248585   4.292   1.457   0.142  0.3261  0.6418 -2.4022
 9032TIP3   OH248586   3.447   4.377   4.312  0.5506  0.7559 -0.5171
 9032TIP3    H148587   3.494   4.301   4.279 -0.8858 -0.2877 -0.2785
 9032TIP3    H248588   3.356   4.348   4.319 -0.3891  3.0413 -2.0924
 9033TIP3   OH248589   2.672   5.013  14.606 -0.5599  0.1913  0.3352
 9033TIP3    H148590   2.720   5.047  14.530  1.2560  0.6243  1.5903
 9033TIP3    H248591   2.608   5.081  14.627  0.3666  1.0548  0.4451
 9034TIP3   OH248592   4.857   1.983   4.425 -0.4325 -0.3689  0.0713
 9034TIP3    H148593   4.860   1.922   4.351 -0.7497 -0.3191  0.0167
 9034TIP3    H248594   4.902   2.061   4.393 -0.5708 -0.3467 -0.0725
 9035TIP3   OH248595   1.922   6.485   3.615  0.5135  0.3566 -0.4809
 9035TIP3    H148596   1.955   6.555   3.670  0.0609  0.9852 -0.9961
 9035TIP3    H248597   1.983   6.481   3.541  2.0852 -1.5767  0.8014
 9036TIP3   OH248598   5.387   2.083   2.095 -0.5074 -0.4058 -0.0994
 9036TIP3    H148599   5.379   2.051   2.005  1.1929 -1.8850  0.2240
 9036TIP3    H248600   5.481   2.101   2.106 -0.4541 -1.5072  1.7479
 9037TIP3   OH248601   0.628   4.211   2.305  0.5885 -0.0560 -0.0996
 9037TIP3    H148602   0.580   4.129   2.313  1.8994 -0.7345  1.4825
 9037TIP3    H248603   0.591   4.267   2.374 -0.4980  0.8385 -1.3520
 9038TIP3   OH248604   4.674   0.899  14.460  0.5040 -0.6017 -0.1554
 9038TIP3    H148605   4.626   0.839  14.516 -0.0434  0.7406  0.8719
 9038TIP3    H248606   4.619   0.910  14.382 -0.1939 -0.1812  0.3856
 9039TIP3   OH248607   3.969   1.705  15.814  0.0519  0.3631  0.0058
 9039TIP3    H148608   3.964   1.634  15.750 -1.3870  1.2450 -0.9159
 9039TIP3    H248609   3.880   1.738  15.821  0.7868  2.5240 -0.1296
 9040TIP3   OH248610   5.863   1.145  17.229 -0.0185  0.5215 -0.0810
 9040TIP3    H148611   5.890   1.093  17.153  2.5236  0.3549  0.8465
 9040TIP3    H248612   5.781   1.105  17.258  1.4483 -2.5720  0.1590
 9041TIP3   OH248613   5.202   5.070  10.339 -0.2621  0.3473 -0.0186
 9041TIP3    H148614   5.154   5.153  10.338  0.5950  0.8898  1.1424
 9041TIP3    H248615   5.294   5.096  10.330  0.3473 -0.1489  3.4525
 9042TIP3   OH248616   0.160   5.118   5.433  0.2380 -0.2979 -0.1119
 9042TIP3    H148617   0.121   5.151   5.353  1.6123 -0.7569 -1.0160
 9042TIP3    H248618   0.174   5.025   5.416 -1.9947 -1.0916  1.7355
 9043TIP3   OH248619   1.149   4.023  11.779  0.4480 -0.0098 -0.1027
 9043TIP3    H148620   1.142   3.953  11.714  2.1675  0.4799 -0.8810
 9043TIP3    H248621   1.133   3.979  11.863  1.1562 -1.2912 -0.6092
 9044TIP3   OH248622   2.010   1.945  14.418  0.1861  0.0029 -0.1422
 9044TIP3    H148623   2.076   1.939  14.349 -0.5848 -1.9534 -0.7678
 9044TIP3    H248624   1.945   1.879  14.395 -1.5773  1.2812  0.9190
 9045TIP3   OH248625   6.468   0.237  13.230 -0.3046 -0.4379 -0.4797
 9045TIP3    H148626   6.411   0.177  13.278 -1.3522  0.9745  0.1170
 9045TIP3    H248627   6.460   0.211  13.138 -0.0106 -1.7623 -0.1524
 9046TIP3   OH248628   4.277   2.151   0.159  0.4348  0.2920 -0.1511
 9046TIP3    H148629   4.269   2.225   0.219 -1.6601  0.7825 -0.9409
 9046TIP3    H248630   4.228   2.080   0.201 -0.3416  0.3818 -0.8945
 9047TIP3   OH248631   0.103   4.833   3.736 -0.2683  0.3556 -0.1025
 9047TIP3    H148632   0.197   4.846   3.721 -0.1701  1.1358  1.0720
 9047TIP3    H248633   0.062   4.913   3.705 -0.1748  1.4958  2.4916
 9048TIP3   OH248634   4.388   4.224   4.956  0.7604 -0.4626  0.5511
 9048TIP3    H148635   4.463   4.278   4.930  1.4322 -1.1849  0.9269
 9048TIP3    H248636   4.317   4.286   4.971  1.7834  0.4141  1.9748
 9049TIP3   OH248637   2.619   2.821   4.259 -0.2980  0.2617  0.0486
 9049TIP3    H148638   2.663   2.898   4.297  1.7670 -0.3624 -0.9501
 9049TIP3    H248639   2.540   2.812   4.311  1.3599  0.6900  2.8669
 9050TIP3   OH248640   6.132   3.563   3.264 -0.1770 -0.4011  0.4789
 9050TIP3    H148641   6.117   3.642   3.317 -0.2915  0.4524 -0.7963
 9050TIP3    H248642   6.195   3.590   3.197  1.0254 -1.8379  0.9739
 9051TIP3   OH248643   5.099   6.670  13.389 -0.4747  0.0945  0.2366
 9051TIP3    H148644   5.080   6.689  13.481 -0.3760 -1.3174  0.5782
 9051TIP3    H248645   5.177   6.721  13.370  0.0981 -0.3651  1.2483
 9052TIP3   OH248646   0.450   0.371   1.117  0.1752  0.2405  0.1113
 9052TIP3    H148647   0.520   0.388   1.181  0.2590 -2.2599  0.7734
 9052TIP3    H248648   0.470   0.285   1.081 -0.8534  0.8466 -2.0439
 9053TIP3   OH248649   1.740   1.006   1.734  0.0676  0.2537  0.0640
 9053TIP3    H148650   1.731   1.095   1.768 -1.8438  0.9200 -1.9313
 9053TIP3    H248651   1.827   1.005   1.693  0.5872  0.8037  1.1245
 9054TIP3   OH248652   2.638   2.643   2.370  0.3982 -0.4233 -0.0578
 9054TIP3    H148653   2.638   2.674   2.461 -1.1313  0.4380 -0.3266
 9054TIP3    H248654   2.703   2.699   2.326  1.6923 -1.3310  0.6251
 9055TIP3   OH248655   1.700   4.822  12.391  0.0230 -0.3553  0.0284
 9055TIP3    H148656   1.711   4.860  12.478 -1.4551  1.4005 -0.4861
 9055TIP3    H248657   1.647   4.744  12.404 -0.1492 -0.1264  0.6971
 9056TIP3   OH248658   3.064   3.467  12.031 -0.2588  0.5142 -0.0194
 9056TIP3    H148659   3.152   3.503  12.045  1.2816 -3.0958  0.6141
 9056TIP3    H248660   3.074   3.373  12.044 -4.0320 -0.2001 -1.0970
 9057TIP3   OH248661   5.362   1.624   3.801  0.0705 -0.0668 -0.2263
 9057TIP3    H148662   5.454   1.600   3.803  0.5525  1.7208  1.2566
 9057TIP3    H248663   5.319   1.549   3.759  2.0290 -1.4194  0.0446
 9058TIP3   OH248664   2.053   0.390  13.840  0.5252 -0.3773  0.1218
 9058TIP3    H148665   2.058   0.297  13.865  1.8873 -0.8682 -1.7746
 9058TIP3    H248666   2.043   0.389  13.745  0.4772  1.4249  0.0766
 9059TIP3   OH248667   0.091   2.429   5.173 -0.4423 -0.1642 -0.4323
 9059TIP3    H148668   0.111   2.389   5.088 -0.6007  1.2186 -1.1413
 9059TIP3    H248669   0.014   2.381   5.203 -0.1251 -0.9683 -0.8436
 9060TIP3   OH248670   0.510   5.098  13.892  0.3874  0.0296 -0.0656
 9060TIP3    H148671   0.491   5.189  13.866  1.5994  0.3570  0.1389
 9060TIP3    H248672   0.433   5.049  13.863 -1.7021  1.5496  2.3873
 9061TIP3   OH248673   5.547   2.888  16.744  0.9633 -0.1628 -0.4117
 9061TIP3    H148674   5.498   2.812  16.713  0.6596  0.9233 -2.7974
 9061TIP3    H248675   5.507   2.910  16.828 -1.3122 -0.5663 -1.3215
 9062TIP3   OH248676   4.124   4.325  10.644 -0.1014 -0.1961  0.3476
 9062TIP3    H148677   4.049   4.353  10.697 -1.0336 -1.7738 -0.0807
 9062TIP3    H248678   4.126   4.388  10.571 -2.2501 -1.2042 -0.6952
 9063TIP3   OH248679   6.339   4.197  10.496 -0.4278  0.0950 -0.5834
 9063TIP3    H148680   6.423   4.217  10.456 -0.1018 -1.4034 -0.6854
 9063TIP3    H248681   6.352   4.112  10.539 -1.4320  0.5783  0.7453
 9064TIP3   OH248682   0.925   3.943  12.615 -0.5103 -0.1569  0.6168
 9064TIP3    H148683   1.016   3.955  12.642 -0.5096 -0.2033  0.6347
 9064TIP3    H248684   0.879   3.918  12.695 -0.6368  0.3637  0.7119
 9065TIP3   OH248685   4.646   4.435  13.709  0.7854 -0.1215 -0.0112
 9065TIP3    H148686   4.719   4.483  13.672  0.4347 -0.1992 -0.8275
 9065TIP3    H248687   4.649   4.350  13.665 -0.7144  0.4128 -1.2341
 9066TIP3   OH248688   4.046   1.779   1.087 -0.2473 -0.0361 -0.0524
 9066TIP3    H148689   4.106   1.822   1.149  0.6217  0.0979 -0.9555
 9066TIP3    H248690   3.959   1.809   1.113  0.3498  2.6196 -0.8884
 9067TIP3   OH248691   2.518   4.971  13.643 -0.1297  0.0173  1.0648
 9067TIP3    H148692   2.608   4.966  13.612 -0.9578  0.8630 -1.8197
 9067TIP3    H248693   2.513   5.055  13.690 -0.1452  1.7581 -1.8315
 9068TIP3   OH248694   0.115   0.084  11.835 -0.4083  0.6199 -0.1401
 9068TIP3    H148695   0.204   0.072  11.868 -0.3941 -0.4102 -0.4955
 9068TIP3    H248696   0.093   0.174  11.856  1.9868  2.0373 -3.0537
 9069TIP3   OH248697   5.101   2.099  12.493 -0.2446 -0.8002 -0.2395
 9069TIP3    H148698   5.156   2.028  12.526  1.2970 -0.1627 -1.3186
 9069TIP3    H248699   5.050   2.059  12.423 -1.0417 -1.3483  0.6290
 9070TIP3   OH248700   0.954   5.657   5.594  0.6164  0.3037  0.0400
 9070TIP3    H148701   0.983   5.677   5.683  1.6629  1.2071 -0.4802
 9070TIP3    H248702   0.883   5.594   5.606  1.2459 -0.1881  1.4738
 9071TIP3   OH248703   0.281   4.225  12.013 -0.3112  0.2633 -0.0539
 9071TIP3    H148704   0.376   4.218  12.005 -0.2012 -1.0818  1.7585
 9071TIP3    H248705   0.264   4.319  12.017  1.2022  0.5098  1.7552
 9072TIP3   OH248706   3.124   1.158   0.247  0.4217 -0.1227 -0.6836
 9072TIP3    H148707   3.108   1.077   0.197 -1.2616 -0.5289  0.4399
 9072TIP3    H248708   3.121   1.130   0.338  1.1741  1.0087 -0.3018
 9073TIP3   OH248709   6.794   5.468  11.457 -0.6084  0.5129 -0.2612
 9073TIP3    H148710   6.794   5.561  11.480 -1.2421  0.9732 -2.0087
 9073TIP3    H248711   6.882   5.452  11.424 -0.5675  0.5354 -0.1656
 9074TIP3   OH248712   4.817   4.026  14.921 -0.6049 -0.2088 -0.0407
 9074TIP3    H148713   4.866   3.944  14.924  2.3533  1.4166  2.1676
 9074TIP3    H248714   4.800   4.047  15.013  0.2526  2.3982 -0.3914
 9075TIP3   OH248715   3.083   2.040   4.116 -0.2127  0.4991 -0.0879
 9075TIP3    H148716   3.091   2.051   4.021  1.4690 -0.5787 -0.1107
 9075TIP3    H248717   3.172   2.057   4.149 -0.6601  0.3153  1.2350
 9076TIP3   OH248718   6.031   6.638   3.207 -0.0336 -0.9243 -0.2573
 9076TIP3    H148719   6.083   6.576   3.156 -0.1637 -1.1420 -0.1255
 9076TIP3    H248720   5.946   6.640   3.163  0.4033  0.2026 -1.0803
 9077TIP3   OH248721   1.074   2.080   4.250 -0.2554 -0.4601  0.4863
 9077TIP3    H148722   1.097   2.028   4.327 -0.0761 -0.1555  0.6384
 9077TIP3    H248723   1.055   2.167   4.285  0.5367 -0.1241  0.1029
 9078TIP3   OH248724   0.848   0.991  11.245 -0.2333 -0.2375 -0.4710
 9078TIP3    H148725   0.780   0.926  11.262  1.2128 -2.1274 -1.4956
 9078TIP3    H248726   0.923   0.962  11.296  0.5730  0.3779 -1.2672
 9079TIP3   OH248727   4.779   6.636  13.373  0.1696  0.1962  0.1046
 9079TIP3    H148728   4.871   6.626  13.351  0.1722  0.6606 -0.1057
 9079TIP3    H248729   4.764   6.731  13.374  0.0748  0.1975  1.7081
 9080TIP3   OH248730   1.118   2.496   0.997 -0.5253 -0.2103 -0.3321
 9080TIP3    H148731   1.202   2.539   1.011 -0.2063 -0.7669 -0.4890
 9080TIP3    H248732   1.133   2.437   0.923 -0.5059 -1.7509  0.8402
 9081TIP3   OH248733   3.692   3.028  15.408 -0.4458  0.4337  0.2066
 9081TIP3    H148734   3.633   3.004  15.480 -0.2880  2.8147  1.2099
 9081TIP3    H248735   3.780   3.015  15.443 -0.3254 -1.0023 -0.5422
 9082TIP3   OH248736   5.679   0.969   0.025  0.5935  0.2987  0.2915
 9082TIP3    H148737   5.741   0.898   0.011 -1.4724 -1.5115 -0.1704
 9082TIP3    H248738   5.653   0.961   0.117  0.3661  0.4667  0.2440
 9083TIP3   OH248739   0.547   1.033  16.722  0.3541 -0.5938  0.2423
 9083TIP3    H148740   0.597   0.953  16.707 -0.1182 -0.5856 -1.5841
 9083TIP3    H248741   0.611   1.104  16.711  0.0215 -0.5875 -1.9716
 9084TIP3   OH248742   3.839   2.855   2.458 -0.0195  0.5264  0.8714
 9084TIP3    H148743   3.775   2.826   2.393 -0.1549  0.2180  1.1436
 9084TIP3    H248744   3.923   2.823   2.425  0.2717  2.3622 -0.3826
 9085TIP3   OH248745   5.094   4.540  11.534  0.2725  0.1056  0.5954
 9085TIP3    H148746   5.137   4.605  11.478 -2.5719  2.0871  0.5072
 9085TIP3    H248747   5.072   4.468  11.475  0.1017  0.7787 -0.1804
 9086TIP3   OH248748   5.838   4.570  16.758 -0.2985  0.6008 -0.7480
 9086TIP3    H148749   5.805   4.578  16.848 -1.3326  1.7561 -1.1942
 9086TIP3    H248750   5.928   4.604  16.763 -0.8213  1.9984 -0.3930
 9087TIP3   OH248751   6.002   5.280   3.386  0.0987 -0.1403  0.1783
 9087TIP3    H148752   6.091   5.249   3.369 -0.3384 -1.3541  0.0583
 9087TIP3    H248753   6.012   5.375   3.394  1.4297 -0.2722  0.3614
 9088TIP3   OH248754   1.448   4.280  13.085  0.1522 -0.1584 -0.4366
 9088TIP3    H148755   1.418   4.208  13.029  2.2265  0.6430 -2.7966
 9088TIP3    H248756   1.515   4.241  13.141  0.8685 -0.2327 -1.3168
 9089TIP3   OH248757   1.837   0.283  13.418  0.5447 -0.3993  0.2499
 9089TIP3    H148758   1.783   0.344  13.367  1.5103 -0.7007 -1.1968
 9089TIP3    H248759   1.790   0.273  13.501 -0.9832  0.2885 -0.4890
 9090TIP3   OH248760   0.702   1.725  17.146  0.0235 -0.4467  0.3941
 9090TIP3    H148761   0.634   1.733  17.079 -1.1050 -0.7925  1.4573
 9090TIP3    H248762   0.722   1.631  17.148  1.2698 -0.2296 -0.5886
 9091TIP3   OH248763   2.964   0.971  16.376 -0.7144 -0.1009 -0.3102
 9091TIP3    H148764   2.959   0.928  16.290  1.1148 -2.3986  0.6257
 9091TIP3    H248765   2.873   0.982  16.403 -1.2980 -0.1491 -2.1327
 9092TIP3   OH248766   2.369   2.777   2.540  0.5356 -0.2360 -0.0158
 9092TIP3    H148767   2.423   2.814   2.470  2.8238  1.3349  2.3461
 9092TIP3    H248768   2.364   2.847   2.605 -1.6604 -1.5325  1.3192
 9093TIP3   OH248769   4.613   6.400  11.463 -0.9685 -0.2802 -0.5181
 9093TIP3    H148770   4.605   6.442  11.377 -1.9521 -1.7259 -1.1804
 9093TIP3    H248771   4.564   6.318  11.454  0.3993 -1.3043  0.8815
 9094TIP3   OH248772   0.105   0.118  13.971  0.5405  0.0566  0.2247
 9094TIP3    H148773   0.057   0.167  13.905  0.9634 -0.3295 -0.3822
 9094TIP3    H248774   0.041   0.056  14.006 -0.1870  1.4286  1.4654
 9095TIP3   OH248775   6.672   5.670   0.565 -0.4275 -0.2168 -0.3113
 9095TIP3    H148776   6.761   5.659   0.531  0.4638  0.8410  1.5486
 9095TIP3    H248777   6.672   5.621   0.647 -1.6690 -0.4285 -0.4231
 9096TIP3   OH248778   6.187   2.712  16.566 -0.6177  0.2569 -0.0660
 9096TIP3    H148779   6.137   2.654  16.623  1.8389 -1.1493  0.7614
 9096TIP3    H248780   6.277   2.683  16.574 -0.1262 -0.8729 -5.5508
 9097TIP3   OH248781   6.646   1.227  14.666 -0.4375 -0.0977  0.1686
 9097TIP3    H148782   6.603   1.175  14.734 -1.7002 -0.3833 -0.7961
 9097TIP3    H248783   6.706   1.284  14.713 -0.2691 -1.2416  1.3994
 9098TIP3   OH248784   0.571   4.915   5.114 -0.0089 -0.0868  0.4507
 9098TIP3    H148785   0.578   4.948   5.203  2.1379 -1.0172  0.6962
 9098TIP3    H248786   0.650   4.947   5.070  0.6539 -2.3268 -0.1295
 9099TIP3   OH248787   2.801   3.283  12.456  0.9333 -0.0888  0.3774
 9099TIP3    H148788   2.849   3.246  12.381 -0.0277 -0.0173 -0.2869
 9099TIP3    H248789   2.709   3.267  12.436  0.6084  0.8289  1.0620
 9100TIP3   OH248790   5.139   6.279   3.085 -0.4402 -0.6579 -0.1364
 9100TIP3    H148791   5.077   6.216   3.122 -2.0331  1.2795  0.6259
 9100TIP3    H248792   5.140   6.352   3.146  1.4177  0.0746 -0.9535
 9101TIP3   OH248793   5.325   1.874   6.452  0.1207 -0.2008 -0.7392
 9101TIP3    H148794   5.347   1.885   6.544  2.4617  0.0711 -1.2682
 9101TIP3    H248795   5.363   1.790   6.427 -1.1411 -0.6280 -1.2950
 9102TIP3   OH248796   6.066   1.385   1.776  0.8166 -0.5465  0.2196
 9102TIP3    H148797   6.028   1.473   1.770  0.2479 -0.8133 -0.3462
 9102TIP3    H248798   6.083   1.361   1.685 -4.2763 -3.1973 -0.4369
 9103TIP3   OH248799   4.289   5.289   1.080 -0.2651 -0.4199 -0.3490
 9103TIP3    H148800   4.358   5.225   1.096  0.7563  0.6714 -0.1708
 9103TIP3    H248801   4.335   5.373   1.077 -1.5069  0.2734 -0.9188
 9104TIP3   OH248802   4.687   3.311  14.108 -0.2192  0.0451  0.0806
 9104TIP3    H148803   4.674   3.335  14.200 -0.5509  0.2326 -0.0132
 9104TIP3    H248804   4.661   3.388  14.059 -0.9041 -0.3585 -0.2042
 9105TIP3   OH248805   4.065   2.469   2.920  0.3364 -0.2314 -0.0932
 9105TIP3    H148806   4.056   2.546   2.975 -1.1861  0.2718 -0.9984
 9105TIP3    H248807   4.137   2.419   2.960 -0.4147  0.3231  2.0574
 9106TIP3   OH248808   0.927   5.772   4.086 -0.1914  0.4193 -0.1078
 9106TIP3    H148809   0.919   5.760   4.181 -1.5148  1.2290 -0.0909
 9106TIP3    H248810   0.935   5.866   4.074  0.0268  0.3160 -0.7986
 9107TIP3   OH248811   1.366   3.728   2.156 -0.2570  0.1884 -0.3654
 9107TIP3    H148812   1.313   3.729   2.236 -0.2147 -1.2412 -0.2976
 9107TIP3    H248813   1.332   3.801   2.105 -1.9824 -0.3599 -0.0917
 9108TIP3   OH248814   1.207   0.952  13.475 -0.5761 -0.2367 -0.1475
 9108TIP3    H148815   1.244   1.029  13.432 -2.6864  0.8221 -0.2246
 9108TIP3    H248816   1.282   0.897  13.496  0.9349  1.4993 -0.7682
 9109TIP3   OH248817   6.688   2.936  15.134  0.7668  0.1602  0.0751
 9109TIP3    H148818   6.726   2.974  15.214 -1.8058  3.2008  0.0427
 9109TIP3    H248819   6.638   2.860  15.165  0.7817  0.5873  1.1782
 9110TIP3   OH248820   6.725   3.264  15.752 -0.1774 -0.7040 -0.0936
 9110TIP3    H148821   6.811   3.285  15.716 -0.1740  0.5332  0.5723
 9110TIP3    H248822   6.664   3.281  15.681 -0.0809  0.7762  0.1465
 9111TIP3   OH248823   3.408   3.398   0.333 -0.0584 -0.2647 -0.1255
 9111TIP3    H148824   3.496   3.388   0.296 -0.3346 -0.2829 -0.8035
 9111TIP3    H248825   3.351   3.398   0.256 -0.5963  0.4006  0.2736
 9112TIP3   OH248826   5.075   1.425  16.283  0.1893  0.4487 -0.2816
 9112TIP3    H148827   5.013   1.373  16.335 -0.3110  1.4213  0.1396
 9112TIP3    H248828   5.136   1.461  16.348 -0.5252  1.7912 -0.3167
 9113TIP3   OH248829   3.924   4.570   1.901  0.2068 -0.0725 -0.1184
 9113TIP3    H148830   4.019   4.577   1.912  0.4783 -2.4146 -0.5317
 9113TIP3    H248831   3.909   4.598   1.811  0.0952  2.8347  0.6944
 9114TIP3   OH248832   4.857   1.742  13.647 -0.0170  0.1729  0.3249
 9114TIP3    H148833   4.918   1.762  13.718  1.1966  0.5667 -0.7993
 9114TIP3    H248834   4.839   1.826  13.605 -1.2616  0.0462  0.5510
 9115TIP3   OH248835   4.654   0.509  10.713 -0.3579 -0.8505 -0.3337
 9115TIP3    H148836   4.561   0.498  10.731 -0.6464  0.8048 -0.6420
 9115TIP3    H248837   4.670   0.603  10.725  1.8766 -1.4519  2.4849
 9116TIP3   OH248838   4.008   4.511  16.407 -0.4247 -0.6262 -0.1498
 9116TIP3    H148839   3.966   4.583  16.360 -0.4821 -0.0508  0.7445
 9116TIP3    H248840   3.956   4.501  16.487  0.5271 -0.5752  0.4979
 9117TIP3   OH248841   4.024   1.697  12.415  0.1734  0.3880 -0.2603
 9117TIP3    H148842   4.048   1.649  12.336  1.0877 -1.5917  1.1527
 9117TIP3    H248843   4.087   1.769  12.419 -0.8646  1.5057 -2.1004
 9118TIP3   OH248844   1.006   4.435   2.457  0.1257 -0.1335  0.2327
 9118TIP3    H148845   0.927   4.390   2.426  1.6096 -1.4695 -1.9032
 9118TIP3    H248846   0.974   4.519   2.489 -2.0473 -0.0559 -1.8342
 9119TIP3   OH248847   3.015   1.148  13.044 -0.4744 -0.1277 -0.1898
 9119TIP3    H148848   3.040   1.239  13.028 -0.3782  0.1459  1.3585
 9119TIP3    H248849   2.975   1.119  12.962  0.3514  1.0076 -1.0150
 9120TIP3   OH248850   4.990   6.761   4.797  0.3380  0.0148  0.2170
 9120TIP3    H148851   4.969   6.848   4.831  0.0161  0.6118 -1.4213
 9120TIP3    H248852   4.920   6.742   4.734 -1.0507 -2.5529  2.2754
 9121TIP3   OH248853   3.414   0.744  15.453  0.1754  0.4831 -0.1887
 9121TIP3    H148854   3.505   0.765  15.471 -0.0900 -0.2700  2.4350
 9121TIP3    H248855   3.417   0.657  15.413  0.5843 -1.1293  2.9778
 9122TIP3   OH248856   0.731   5.353   3.293  0.5073  0.0654  0.0443
 9122TIP3    H148857   0.688   5.401   3.364  1.6839  0.0603  0.7767
 9122TIP3    H248858   0.665   5.349   3.224 -0.8420 -0.3459  1.3025
 9123TIP3   OH248859   0.473   4.097   1.376  0.0994  0.1988  0.1483
 9123TIP3    H148860   0.529   4.167   1.410 -0.1896  0.2942  0.4272
 9123TIP3    H248861   0.452   4.044   1.453 -1.6242  1.1515  0.3731
 9124TIP3   OH248862   6.769   0.500   4.267  0.7246 -0.1879  0.1097
 9124TIP3    H148863   6.725   0.546   4.195  0.0561 -0.1027  0.5713
 9124TIP3    H248864   6.790   0.414   4.230  0.5526 -0.0809 -0.2482
 9125TIP3   OH248865   0.426   6.518   0.663  0.8067 -0.0843 -0.1132
 9125TIP3    H148866   0.515   6.525   0.696  0.6137  0.2727  0.3451
 9125TIP3    H248867   0.406   6.424   0.666  1.0492 -0.1283  0.0884
 9126TIP3   OH248868   2.112   2.499   1.911  0.1616 -0.2135  0.3155
 9126TIP3    H148869   2.059   2.420   1.926 -2.5979  1.5536  0.6300
 9126TIP3    H248870   2.122   2.537   1.998  0.3550  0.4284  0.0156
 9127TIP3   OH248871   4.892   5.307   3.860 -0.3416 -0.3088 -0.6709
 9127TIP3    H148872   4.947   5.384   3.850 -0.7076 -0.2103 -2.1178
 9127TIP3    H248873   4.814   5.326   3.809  0.4170 -2.4140 -2.8173
 9128TIP3   OH248874   6.195   4.721  15.995 -0.0391 -0.4227 -0.5037
 9128TIP3    H148875   6.223   4.792  15.937  1.5349  0.5485  1.3231
 9128TIP3    H248876   6.272   4.665  16.002 -0.4464 -0.9120  0.0815
 9129TIP3   OH248877   3.635   5.392  16.701  0.6700  0.3039  0.4037
 9129TIP3    H148878   3.602   5.325  16.642 -1.6238  2.1083 -0.5078
 9129TIP3    H248879   3.684   5.452  16.644  1.2934  0.3116  0.9289
 9130TIP3   OH248880   3.405   5.084  12.563  0.1573  0.4498 -0.3925
 9130TIP3    H148881   3.468   5.012  12.557 -1.2698 -0.8413 -0.5124
 9130TIP3    H248882   3.453   5.161  12.533  1.5773 -0.5474 -0.7717
 9131TIP3   OH248883   0.724   6.380  13.948  0.3936  0.4914 -0.5291
 9131TIP3    H148884   0.652   6.433  13.980 -0.3236 -0.0086 -1.2836
 9131TIP3    H248885   0.800   6.438  13.949 -0.2744  1.3828 -0.8848
 9132TIP3   OH248886   1.820   4.462  15.942  0.2738  0.1204  0.4760
 9132TIP3    H148887   1.800   4.414  16.022  1.6945  0.3802  1.0289
 9132TIP3    H248888   1.844   4.549  15.972  1.7695 -0.0512 -0.1036
 9133TIP3   OH248889   4.209   1.257   6.386  0.5550 -0.0476  0.0321
 9133TIP3    H148890   4.228   1.314   6.460  1.4716 -0.6353  0.2610
 9133TIP3    H248891   4.290   1.257   6.335  0.4150 -0.7934 -0.1996
 9134TIP3   OH248892   2.200   4.400   1.341  0.4878  0.0816 -0.3357
 9134TIP3    H148893   2.107   4.412   1.359  0.2945 -0.9000 -0.6361
 9134TIP3    H248894   2.230   4.337   1.407  0.2653 -1.8397 -1.9877
 9135TIP3   OH248895   5.454   0.785   1.268  0.0512  0.3120  0.1058
 9135TIP3    H148896   5.411   0.804   1.185 -0.2447  1.7847  0.5661
 9135TIP3    H248897   5.547   0.800   1.251  0.0097  0.4460 -0.0035
 9136TIP3   OH248898   3.389   0.353  13.419 -0.3094 -0.3544 -0.3413
 9136TIP3    H148899   3.472   0.309  13.400 -0.5126  0.3280 -3.1512
 9136TIP3    H248900   3.404   0.444  13.396 -0.5405  0.8222  3.4664
 9137TIP3   OH248901   2.535   2.451  11.539 -0.6664  0.4653  0.4111
 9137TIP3    H148902   2.582   2.479  11.618  2.1517  0.0498 -0.9909
 9137TIP3    H248903   2.531   2.530  11.485 -0.0864  0.1204 -0.1489
 9138TIP3   OH248904   4.180   4.000   0.522  0.6797 -0.3240 -0.6749
 9138TIP3    H148905   4.244   4.054   0.475  0.6389 -0.8750 -1.3755
 9138TIP3    H248906   4.096   4.024   0.484  0.6939 -1.0888 -1.1970
 9139TIP3   OH248907   6.668   1.533  16.069 -0.1054  0.0810  0.4730
 9139TIP3    H148908   6.586   1.514  16.025  0.3619  0.1484 -0.4625
 9139TIP3    H248909   6.675   1.629  16.067  1.4229  0.0449 -2.2997
 9140TIP3   OH248910   2.469   3.058   1.035  0.0823 -0.1088 -0.2826
 9140TIP3    H148911   2.550   3.007   1.037 -0.8630 -1.6649 -0.6694
 9140TIP3    H248912   2.414   3.019   1.103 -0.9032 -0.0142 -1.0106
 9141TIP3   OH248913   3.302   4.461  15.752  0.2111  0.1889 -0.1990
 9141TIP3    H148914   3.254   4.388  15.712  3.9923 -2.0550 -1.1785
 9141TIP3    H248915   3.343   4.423  15.830  1.1377  1.6734  0.0730
 9142TIP3   OH248916   4.246   3.339   5.782  0.6219 -0.6776 -0.4786
 9142TIP3    H148917   4.260   3.405   5.849  0.4766  0.4949 -1.5573
 9142TIP3    H248918   4.187   3.276   5.822  1.5999 -0.7336  0.9363
 9143TIP3   OH248919   2.943   2.910  15.642 -0.4208  0.0343 -0.1669
 9143TIP3    H148920   2.993   2.889  15.721 -0.8523 -1.1292 -0.1876
 9143TIP3    H248921   2.975   2.997  15.616  0.8288 -0.2254  0.4080
 9144TIP3   OH248922   1.020   2.991   4.645  0.3853 -0.4815 -0.3680
 9144TIP3    H148923   1.105   3.035   4.637  0.5665 -0.6133  0.6756
 9144TIP3    H248924   0.968   3.028   4.574  0.5976  1.3057  0.3411
 9145TIP3   OH248925   6.278   5.777   2.703 -0.1516  0.8054  0.1517
 9145TIP3    H148926   6.202   5.743   2.656 -0.1139  0.3306  0.4348
 9145TIP3    H248927   6.330   5.821   2.636 -1.3445  2.3425  0.1723
 9146TIP3   OH248928   1.970   0.305   4.807  0.7392 -0.3215 -0.0559
 9146TIP3    H148929   2.038   0.245   4.778  0.6687 -1.2229  1.5206
 9146TIP3    H248930   1.890   0.274   4.765  0.9888 -0.3473 -0.5125
 9147TIP3   OH248931   5.211   3.576   5.790  0.3999 -0.7194  0.1061
 9147TIP3    H148932   5.149   3.636   5.747 -0.3783 -1.5849 -0.0275
 9147TIP3    H248933   5.226   3.507   5.725  2.4134  0.0534 -0.2953
 9148TIP3   OH248934   2.135   3.117   0.629  0.3077 -0.0534 -0.4714
 9148TIP3    H148935   2.058   3.067   0.657  0.4154 -0.0700 -0.1999
 9148TIP3    H248936   2.209   3.064   0.657  0.4968  1.3489  2.0656
 9149TIP3   OH248937   0.188   2.623   4.202 -0.1954  0.4011 -0.3624
 9149TIP3    H148938   0.121   2.691   4.205  0.6468  1.2041  1.2884
 9149TIP3    H248939   0.261   2.658   4.252 -0.5230 -2.5373  2.5079
 9150TIP3   OH248940   3.177   5.588  10.720 -0.3868 -0.0364  0.4246
 9150TIP3    H148941   3.153   5.654  10.656 -0.0583  0.0270  0.3650
 9150TIP3    H248942   3.272   5.590  10.723 -0.3332 -1.0198 -0.1203
 9151TIP3   OH248943   4.673   2.002   5.703 -0.1754 -0.0504  0.2152
 9151TIP3    H148944   4.643   1.965   5.620 -2.0924 -0.1145  0.8959
 9151TIP3    H248945   4.655   1.934   5.767 -1.4311  1.0839  1.1106
 9152TIP3   OH248946   5.155   4.904  15.690 -0.8535 -0.3079 -0.4754
 9152TIP3    H148947   5.065   4.922  15.665 -0.9514 -2.0508 -1.5919
 9152TIP3    H248948   5.160   4.808  15.695  0.9605 -0.2644 -0.5856
 9153TIP3   OH248949   0.443   3.652  15.428 -0.2375  0.2292 -0.0543
 9153TIP3    H148950   0.386   3.715  15.472  0.4771 -0.0478  1.3334
 9153TIP3    H248951   0.394   3.626  15.350 -1.6012  0.6779  0.6162
 9154TIP3   OH248952   4.735   1.452   3.381 -0.4253 -0.2859  0.1316
 9154TIP3    H148953   4.710   1.535   3.340 -0.0594  0.0152  0.5123
 9154TIP3    H248954   4.756   1.474   3.471 -1.5133 -0.9994  0.5780
 9155TIP3   OH248955   4.834   4.454   4.454 -0.0112 -0.1686  0.7808
 9155TIP3    H148956   4.891   4.506   4.397  0.5088 -0.7788  0.7392
 9155TIP3    H248957   4.812   4.376   4.402 -0.3901 -0.2278  1.0242
 9156TIP3   OH248958   0.709   0.977  13.527 -0.0073 -0.0553  0.3280
 9156TIP3    H148959   0.779   1.040  13.516  0.9421 -1.2029 -0.4505
 9156TIP3    H248960   0.730   0.932  13.609  1.4838 -1.9365 -1.0095
 9157TIP3   OH248961   1.634   5.146   5.112  0.2571 -0.6525 -0.2258
 9157TIP3    H148962   1.707   5.197   5.077  0.0026  0.3258  0.5932
 9157TIP3    H248963   1.596   5.102   5.036 -0.1374  1.2094 -1.1741
 9158TIP3   OH248964   3.729   1.211  15.201 -0.2875  0.0054  0.4783
 9158TIP3    H148965   3.822   1.233  15.203 -0.4978  0.8971  1.1759
 9158TIP3    H248966   3.684   1.296  15.198 -1.0969 -0.3709  1.3242
 9159TIP3   OH248967   5.417   0.721  15.036 -0.3653 -0.7025  0.5160
 9159TIP3    H148968   5.391   0.655  15.101  1.0574 -2.4813 -0.6479
 9159TIP3    H248969   5.505   0.748  15.064 -1.3732  1.6818  1.6637
 9160TIP3   OH248970   5.590   3.010  11.718 -0.5601  0.2292 -0.0436
 9160TIP3    H148971   5.550   2.936  11.764 -0.0587  0.4227  0.7151
 9160TIP3    H248972   5.670   2.973  11.679  0.8181  0.8029  2.0846
 9161TIP3   OH248973   5.722   5.271  13.324 -0.1032 -1.2592  0.0890
 9161TIP3    H148974   5.668   5.322  13.264  0.0196  0.1816  1.1615
 9161TIP3    H248975   5.800   5.248  13.273  2.0681  3.5457  0.6881
 9162TIP3   OH248976   1.498   1.389  15.519  0.1744  0.7567 -0.5689
 9162TIP3    H148977   1.559   1.410  15.590 -3.5508  2.6921  2.4354
 9162TIP3    H248978   1.512   1.459  15.455  2.8302 -0.3916 -1.3761
 9163TIP3   OH248979   4.589   4.130   5.575  0.4296 -0.3395  0.1157
 9163TIP3    H148980   4.633   4.114   5.658 -0.2135  1.4917  0.8509
 9163TIP3    H248981   4.497   4.115   5.593  0.2789  0.1402 -0.2425
 9164TIP3   OH248982   2.983   0.942  13.527 -0.6682  0.0375  0.0739
 9164TIP3    H148983   3.003   0.955  13.434 -2.5614  0.1792 -0.3447
 9164TIP3    H248984   2.988   1.030  13.565  0.0339 -0.0114  0.1210
 9165TIP3   OH248985   2.459   6.632  14.762 -0.5282 -0.3568  0.4077
 9165TIP3    H148986   2.414   6.693  14.821 -0.9771  0.7054 -0.9866
 9165TIP3    H248987   2.529   6.684  14.723 -0.2229 -1.0498  0.0128
 9166TIP3   OH248988   2.286   0.568   2.147 -0.3891  0.2760  0.0912
 9166TIP3    H148989   2.206   0.592   2.193 -1.1143 -1.3503 -0.2455
 9166TIP3    H248990   2.356   0.606   2.199 -1.3809  2.5954 -0.1525
 9167TIP3   OH248991   3.870   6.003   1.706  0.7962 -0.5286  0.2181
 9167TIP3    H148992   3.812   5.928   1.693  1.1840 -0.5012 -2.1412
 9167TIP3    H248993   3.944   5.969   1.755  0.5341 -1.4738 -0.0236
 9168TIP3   OH248994   5.465   3.641   2.946 -0.2939 -0.1756  0.1245
 9168TIP3    H148995   5.495   3.588   3.019 -0.5948  0.5708  0.7982
 9168TIP3    H248996   5.536   3.703   2.930  0.1993 -0.9563 -0.8753
 9169TIP3   OH248997   6.626   3.177   5.434  0.6379  0.0059  0.4996
 9169TIP3    H148998   6.654   3.112   5.498  1.5022  1.0678  1.2264
 9169TIP3    H248999   6.568   3.235   5.482  1.0590  0.6390  0.2514
 9170TIP3   OH249000   6.644   2.560   1.947 -0.0783 -0.1473 -0.0171
 9170TIP3    H149001   6.595   2.636   1.980  1.4582 -0.1765  2.6256
 9170TIP3    H249002   6.596   2.484   1.982  0.5434 -0.2396  0.6637
 9171TIP3   OH249003   3.306   1.406  13.554 -0.1639  0.4596  0.1908
 9171TIP3    H149004   3.229   1.452  13.520 -1.5856 -2.6804 -1.2354
 9171TIP3    H249005   3.288   1.396  13.648  0.1212  2.5059  0.5200
 9172TIP3   OH249006   6.171   1.379   4.088  0.3660  0.6371  0.4766
 9172TIP3    H149007   6.157   1.342   4.001 -0.0888  1.6804  0.0921
 9172TIP3    H249008   6.264   1.365   4.105  0.1289 -1.0923  0.5607
 9173TIP3   OH249009   0.368   0.658  14.224  0.0804 -0.3293  0.3452
 9173TIP3    H149010   0.353   0.671  14.130 -0.8735 -0.9596  0.3961
 9173TIP3    H249011   0.436   0.722  14.247  1.9074 -1.6152 -1.2150
 9174TIP3   OH249012   2.035   5.571   1.348 -0.7128  0.1566 -0.2421
 9174TIP3    H149013   2.121   5.561   1.389 -0.7109  0.6128 -0.1367
 9174TIP3    H249014   2.000   5.652   1.384 -1.9788 -0.9421  1.1172
 9175TIP3   OH249015   5.683   5.292   4.729  0.4223 -0.1513 -0.0740
 9175TIP3    H149016   5.763   5.342   4.745  1.1292 -1.9730  2.8820
 9175TIP3    H249017   5.613   5.350   4.756  0.5000  1.8218 -3.5593
 9176TIP3   OH249018   2.931   2.312  16.339  0.6077  0.2468  0.0222
 9176TIP3    H149019   2.919   2.274  16.426 -1.6800  2.0669  0.5856
 9176TIP3    H249020   2.889   2.249  16.280 -0.9236  0.6338  0.6516
 9177TIP3   OH249021   1.724   3.679   2.579 -0.6761 -0.6200 -0.2375
 9177TIP3    H149022   1.659   3.709   2.517 -0.2618 -1.1505 -0.9421
 9177TIP3    H249023   1.726   3.584   2.568 -0.3129 -0.6828  0.2993
 9178TIP3   OH249024   1.465   0.669  15.408  0.1019  0.1379  0.0395
 9178TIP3    H149025   1.413   0.723  15.468  0.9082 -0.8473  1.6905
 9178TIP3    H249026   1.527   0.623  15.464  0.6835 -1.1001 -1.5295
 9179TIP3   OH249027   6.789   3.798   1.755  0.1571 -0.0250  0.0917
 9179TIP3    H149028   6.866   3.811   1.699  2.0884 -3.2136  1.7247
 9179TIP3    H249029   6.718   3.780   1.693  1.5668 -0.7285 -1.4131
 9180TIP3   OH249030   1.110   5.523  16.473  0.4368  0.0176 -0.0370
 9180TIP3    H149031   1.034   5.470  16.451 -0.7282  1.8074 -0.5101
 9180TIP3    H249032   1.177   5.496  16.410 -0.3518 -0.3980 -0.7191
 9181TIP3   OH249033   3.564   4.203   6.740  0.6022 -0.4288 -0.1787
 9181TIP3    H149034   3.510   4.281   6.749  1.8190  0.4917 -0.6595
 9181TIP3    H249035   3.609   4.196   6.824  2.2867  0.7912 -0.9316
 9182TIP3   OH249036   5.945   1.010   3.336  0.0257  0.2488 -0.9910
 9182TIP3    H149037   5.933   0.954   3.412  0.7763  0.8947 -0.3775
 9182TIP3    H249038   5.859   1.049   3.320 -0.1585  0.0231 -0.5500
 9183TIP3   OH249039   1.399   5.379   1.098  0.2430 -0.4419  0.4214
 9183TIP3    H149040   1.381   5.435   1.174  0.8745  0.3499  0.0051
 9183TIP3    H249041   1.410   5.440   1.026  1.9672 -1.0299  0.1538
 9184TIP3   OH249042   1.012   5.776  13.461  0.0347 -0.3475 -0.1635
 9184TIP3    H149043   1.098   5.809  13.435  0.0456  0.1477  0.4732
 9184TIP3    H249044   0.975   5.845  13.515 -0.7831 -0.5479 -0.4566
 9185TIP3   OH249045   2.706   6.077   4.010 -0.2563 -0.2872 -0.1641
 9185TIP3    H149046   2.612   6.094   4.004 -0.2167 -0.2364 -0.7112
 9185TIP3    H249047   2.737   6.082   3.919  0.1381 -1.0752 -0.0765
 9186TIP3   OH249048   2.944   4.107  12.377 -0.0659  0.1338 -0.0233
 9186TIP3    H149049   3.027   4.060  12.378  0.5245  1.1189 -0.7789
 9186TIP3    H249050   2.935   4.138  12.286 -0.1147  1.9772  0.5735
 9187TIP3   OH249051   6.291   1.071  16.697  0.5969  0.5453  0.7504
 9187TIP3    H149052   6.225   1.140  16.705  0.6532  0.8522 -0.9694
 9187TIP3    H249053   6.338   1.092  16.616 -0.5770 -2.4544 -0.8948
 9188TIP3   OH249054   2.589   5.070  14.889 -0.5193  0.1467 -0.2429
 9188TIP3    H149055   2.664   5.030  14.845 -0.6854 -0.4734  0.0389
 9188TIP3    H249056   2.527   5.089  14.818 -1.3698 -2.0958 -0.1484
 9189TIP3   OH249057   3.725   4.647  16.996 -0.1082 -0.2720  0.4007
 9189TIP3    H149058   3.697   4.675  16.908  2.2574  0.4906 -0.1926
 9189TIP3    H249059   3.765   4.725  17.034  1.9049 -1.4298  0.8078
 9190TIP3   OH249060   4.478   0.703  11.324 -0.1438 -0.2967 -0.5213
 9190TIP3    H149061   4.551   0.754  11.359 -0.3663 -1.0772  1.1728
 9190TIP3    H249062   4.408   0.766  11.312  0.3625  0.2179 -0.8149
 9191TIP3   OH249063   3.271   4.694  17.169  0.1623 -0.5991 -0.1336
 9191TIP3    H149064   3.177   4.691  17.152  0.4573 -1.0692 -1.9804
 9191TIP3    H249065   3.294   4.786  17.159 -0.2049 -0.3637  1.0802
 9192TIP3   OH249066   6.640   5.732  12.471  0.3036  0.1724 -0.2323
 9192TIP3    H149067   6.699   5.808  12.479 -1.7150  1.6658  1.7162
 9192TIP3    H249068   6.645   5.689  12.556 -1.0088  0.0529 -0.1997
 9193TIP3   OH249069   3.055   3.025   2.332 -0.0465 -0.0114 -0.4118
 9193TIP3    H149070   3.053   3.120   2.337 -1.7601  0.0256 -1.0232
 9193TIP3    H249071   3.088   3.006   2.244  0.4189  0.0070 -0.2433
 9194TIP3   OH249072   3.737   5.664   2.946  0.0877 -0.5009 -0.2513
 9194TIP3    H149073   3.780   5.641   3.028  0.7517 -0.1158 -0.4821
 9194TIP3    H249074   3.736   5.760   2.946 -0.0204 -0.5005 -0.6430
 9195TIP3   OH249075   5.207   2.413   2.109 -0.4790  0.2036  0.6950
 9195TIP3    H149076   5.161   2.497   2.106 -0.9472 -0.0373  1.0401
 9195TIP3    H249077   5.164   2.360   2.042  0.3678  0.5089 -0.1078
 9196TIP3   OH249078   0.338   1.220  16.977 -0.3176  0.1376  0.0049
 9196TIP3    H149079   0.433   1.228  16.989  0.0314  0.9320 -2.5277
 9196TIP3    H249080   0.325   1.129  16.950 -0.2309  0.1173  0.0297
 9197TIP3   OH249081   0.248   0.533   3.504 -0.2505 -0.6297  0.0674
 9197TIP3    H149082   0.261   0.439   3.519  1.3585 -0.8485 -2.1632
 9197TIP3    H249083   0.191   0.561   3.575 -2.4279 -3.7068 -0.2689
 9198TIP3   OH249084   0.809   5.758   0.386 -0.3223  0.2455 -0.0062
 9198TIP3    H149085   0.720   5.729   0.405  0.4794 -1.8865  0.7215
 9198TIP3    H249086   0.797   5.841   0.339 -2.6660  0.1249  0.2576
 9199TIP3   OH249087   6.185   2.743  13.330  0.4106  0.5315  0.1375
 9199TIP3    H149088   6.270   2.786  13.336 -0.7958  3.2352 -0.5329
 9199TIP3    H249089   6.186   2.698  13.246  0.3284  2.7595 -1.1339
 9200TIP3   OH249090   1.833   0.899   6.085  0.3801 -0.1087 -0.1018
 9200TIP3    H149091   1.856   0.836   6.153 -3.2745 -0.5594  0.9033
 9200TIP3    H249092   1.777   0.963   6.129  1.1506  1.9188 -1.8697
 9201TIP3   OH249093   4.274   5.245   3.841  0.3123 -0.6178 -0.0876
 9201TIP3    H149094   4.240   5.308   3.904 -0.3706 -1.4297  0.3635
 9201TIP3    H249095   4.367   5.237   3.862  0.5471  0.6863 -0.5418
 9202TIP3   OH249096   4.610   6.543   1.680  0.2344 -0.6099 -0.7598
 9202TIP3    H149097   4.592   6.453   1.653  0.7547 -0.7397 -0.6983
 9202TIP3    H249098   4.706   6.548   1.681  0.2143  0.1726 -1.5347
 9203TIP3   OH249099   2.264   0.214   1.841  0.0480 -0.1977  0.6850
 9203TIP3    H149100   2.325   0.228   1.913 -0.7728 -0.2077  1.4126
 9203TIP3    H249101   2.317   0.221   1.762  0.9974 -0.3084  1.2929
 9204TIP3   OH249102   3.117   1.854   5.360  0.2067 -0.0451 -0.0148
 9204TIP3    H149103   3.104   1.940   5.321  0.8817  0.2115  0.2965
 9204TIP3    H249104   3.176   1.870   5.434  0.0764 -0.7266  0.2474
 9205TIP3   OH249105   6.183   0.939  13.465  0.5582  0.7193  0.0496
 9205TIP3    H149106   6.239   1.016  13.470 -0.0211  1.1015  1.6001
 9205TIP3    H249107   6.168   0.926  13.372  3.3447  0.4682 -0.4524
 9206TIP3   OH249108   1.069   2.951   4.935 -0.1220  0.1262 -0.3240
 9206TIP3    H149109   1.013   2.993   4.870  0.6128 -0.8732 -1.6735
 9206TIP3    H249110   1.158   2.971   4.906  0.2385 -1.6854 -0.6220
 9207TIP3   OH249111   4.172   3.461  13.169 -0.1637  0.1068 -0.1982
 9207TIP3    H149112   4.219   3.478  13.088  0.6965  0.4528  0.3651
 9207TIP3    H249113   4.224   3.395  13.214 -1.5298 -1.3829 -0.6764
 9208TIP3   OH249114   0.561   6.285  11.847 -0.4779  0.2057  0.4835
 9208TIP3    H149115   0.491   6.281  11.912  0.1400 -1.0471  1.1111
 9208TIP3    H249116   0.608   6.365  11.868 -0.2556 -0.2041  1.6500
 9209TIP3   OH249117   3.081   2.928  11.167  0.2369  0.8343 -0.0159
 9209TIP3    H149118   3.105   2.837  11.154 -0.9794  0.5296 -0.2522
 9209TIP3    H249119   3.054   2.959  11.080 -2.4853  0.4337  0.5806
 9210TIP3   OH249120   4.369   2.263   5.761 -0.1330  0.1660  0.3303
 9210TIP3    H149121   4.460   2.287   5.741 -0.1349  0.5722  0.8150
 9210TIP3    H249122   4.372   2.167   5.770  0.0564  0.0713 -0.6243
 9211TIP3   OH249123   1.722   6.434   4.918  0.2125  0.0129 -0.2003
 9211TIP3    H149124   1.700   6.483   4.839 -0.8251 -1.5639 -0.9379
 9211TIP3    H249125   1.812   6.406   4.906 -0.1941 -0.9169 -1.2352
 9212TIP3   OH249126   1.481   5.737  15.944  0.7205  0.1682 -0.2186
 9212TIP3    H149127   1.572   5.727  15.974  0.7712 -1.3671 -0.7815
 9212TIP3    H249128   1.476   5.828  15.913  2.6599 -0.2361 -2.0095
 9213TIP3   OH249129   1.134   1.939  14.834 -0.4858 -0.1294  0.0441
 9213TIP3    H149130   1.064   1.908  14.892 -0.2959  0.7252  0.7662
 9213TIP3    H249131   1.198   1.977  14.894  0.2738 -0.2770 -0.6610
 9214TIP3   OH249132   2.147   5.561  14.724  0.2425 -0.0105 -0.2657
 9214TIP3    H149133   2.187   5.488  14.676  0.7438 -0.0132  0.1509
 9214TIP3    H249134   2.075   5.589  14.668  0.4837 -0.3663 -0.7655
 9215TIP3   OH249135   0.585   2.143  12.598  0.4712 -0.2303  0.4360
 9215TIP3    H149136   0.630   2.208  12.652  1.2168 -0.5574  0.2195
 9215TIP3    H249137   0.656   2.092  12.557 -0.0946 -0.8313  0.1850
 9216TIP3   OH249138   2.801   2.867   5.495  0.4161  0.2272  0.3800
 9216TIP3    H149139   2.760   2.817   5.565  0.3491 -0.9908 -0.4853
 9216TIP3    H249140   2.791   2.958   5.521 -0.6104 -0.1495  1.3955
 9217TIP3   OH249141   4.542   3.189  10.282  0.3915 -0.1206  0.0204
 9217TIP3    H149142   4.576   3.153  10.364 -0.5486  0.5140  0.7073
 9217TIP3    H249143   4.492   3.117  10.244 -0.1259 -0.0612  0.5787
 9218TIP3   OH249144   0.971   1.490   2.290 -0.2763  0.0047  0.2403
 9218TIP3    H149145   1.055   1.504   2.334 -0.0854 -0.0275 -0.1121
 9218TIP3    H249146   0.980   1.536   2.207  0.0274 -1.4117 -0.5483
 9219TIP3   OH249147   5.845   6.656  16.686 -0.0730 -0.0753  0.3911
 9219TIP3    H149148   5.880   6.620  16.605  0.2703  0.1896  0.4171
 9219TIP3    H249149   5.898   6.734  16.702  0.0777 -0.3054  1.0423
 9220TIP3   OH249150   6.540   2.621   3.420  0.3081  0.2993 -0.0383
 9220TIP3    H149151   6.618   2.569   3.403 -0.0043 -0.1704 -0.0375
 9220TIP3    H249152   6.498   2.630   3.335  0.6114  0.9620 -0.1248
 9221TIP3   OH249153   2.640   3.362  15.858  0.2783 -0.6115  0.0358
 9221TIP3    H149154   2.646   3.298  15.930  2.5570 -3.5980 -2.5099
 9221TIP3    H249155   2.696   3.435  15.887 -1.6777  0.0080  2.6558
 9222TIP3   OH249156   0.884   0.498  11.795 -0.0546  0.2878  0.1505
 9222TIP3    H149157   0.929   0.560  11.737  0.3871  0.7063  0.9216
 9222TIP3    H249158   0.873   0.546  11.877 -2.5895  0.4844 -0.2019
 9223TIP3   OH249159   5.626   0.990  16.630  0.0343  0.0938  0.3114
 9223TIP3    H149160   5.562   1.051  16.667  0.9940  0.3292  1.6357
 9223TIP3    H249161   5.639   0.924  16.698  1.6879  0.4258  0.3622
 9224TIP3   OH249162   1.206   2.784   6.135 -0.4375 -0.1911  0.1566
 9224TIP3    H149163   1.116   2.785   6.169 -0.4148  2.8037  0.4064
 9224TIP3    H249164   1.196   2.800   6.041 -0.1911 -0.9979 -0.0123
 9225TIP3   OH249165   0.339   1.938  13.552  0.4855 -0.2848 -0.6876
 9225TIP3    H149166   0.395   1.952  13.629 -2.2131 -0.1438  1.4196
 9225TIP3    H249167   0.324   2.026  13.518  0.8325 -0.2383 -0.7261
 9226TIP3   OH249168   5.013   0.535   5.041 -0.3519 -0.4143 -0.2285
 9226TIP3    H149169   5.054   0.464   4.991 -0.4543 -0.3751 -0.3692
 9226TIP3    H249170   5.087   0.580   5.082 -0.4099 -1.8732  1.5846
 9227TIP3   OH249171   5.067   3.465   1.955 -0.0162 -0.2017  0.0529
 9227TIP3    H149172   5.085   3.554   1.982  1.9260  0.2194 -2.3048
 9227TIP3    H249173   5.001   3.474   1.885 -1.0268 -0.7933  0.8965
 9228TIP3   OH249174   2.302   5.874   4.782 -0.4959 -0.2776  0.0909
 9228TIP3    H149175   2.213   5.904   4.801 -0.9558 -1.6053  0.1380
 9228TIP3    H249176   2.308   5.788   4.824  1.6233  0.7489  2.1555
 9229TIP3   OH249177   0.048   2.622   0.344 -0.0624  0.8115  0.3511
 9229TIP3    H149178   0.045   2.689   0.412 -0.8723  2.0650 -0.8661
 9229TIP3    H249179  -0.025   2.564   0.364  1.1828 -0.2909  1.9355
 9230TIP3   OH249180   4.174   4.935   2.082 -0.1590  0.2396  0.1204
 9230TIP3    H149181   4.079   4.938   2.068 -0.0917  2.0202 -0.2021
 9230TIP3    H249182   4.184   4.909   2.173 -0.8392 -2.8006 -0.5635
 9231TIP3   OH249183   3.202   4.508   5.864 -0.2953 -0.0671 -0.2247
 9231TIP3    H149184   3.239   4.423   5.887 -0.8249 -0.0436  0.7796
 9231TIP3    H249185   3.135   4.488   5.799  0.6229 -0.2404 -1.1364
 9232TIP3   OH249186   2.187   2.002   5.844 -0.2267 -0.0238 -0.2255
 9232TIP3    H149187   2.211   1.925   5.793  0.3690  1.6642 -2.6863
 9232TIP3    H249188   2.270   2.036   5.878 -0.5411 -0.7060  1.2907
 9233TIP3   OH249189   3.807   4.152   6.052 -0.0611 -0.1889  0.5949
 9233TIP3    H149190   3.740   4.171   6.118 -0.0874 -1.4210  0.9508
 9233TIP3    H249191   3.794   4.059   6.031  0.8818 -0.1831 -0.0872
 9234TIP3   OH249192   6.416   5.791   1.494  0.3167  0.3610  0.0844
 9234TIP3    H149193   6.334   5.840   1.484  1.0379  1.2019 -2.3439
 9234TIP3    H249194   6.441   5.767   1.405  1.6249 -1.7556  0.9583
 9235TIP3   OH249195   2.222   6.153  16.422  0.2898 -0.5911 -0.0539
 9235TIP3    H149196   2.243   6.167  16.515 -0.0732  0.1452 -0.0728
 9235TIP3    H249197   2.305   6.130  16.382  0.8876  1.2311  0.0597
 9236TIP3   OH249198   2.751   0.032   5.439 -0.1408  0.2167 -0.2545
 9236TIP3    H149199   2.773   0.079   5.358  0.9777  0.5513  0.2170
 9236TIP3    H249200   2.687  -0.033   5.412 -1.1669  1.5021 -1.0844
 9237TIP3   OH249201   4.266   0.961  16.885 -0.5993  0.1003  0.1006
 9237TIP3    H149202   4.246   1.004  16.802  0.2900 -1.6443 -1.0809
 9237TIP3    H249203   4.227   0.874  16.877  0.8247 -0.6398  0.8787
 9238TIP3   OH249204   1.956   4.011  13.420 -0.0178 -0.5663 -0.5207
 9238TIP3    H149205   1.923   4.064  13.347  0.1564  0.4555  0.1266
 9238TIP3    H249206   1.887   3.948  13.437 -1.6195  1.3743  0.6577
 9239TIP3   OH249207   2.916   4.365  14.519  0.3998 -0.0950 -0.1456
 9239TIP3    H149208   2.976   4.416  14.465 -0.3327  0.9467 -0.0021
 9239TIP3    H249209   2.845   4.426  14.541 -0.1359 -0.9681  0.6339
 9240TIP3   OH249210   1.208   3.490   4.713  0.0317 -0.2398  0.4104
 9240TIP3    H149211   1.287   3.480   4.765 -0.6635 -1.5421  1.2746
 9240TIP3    H249212   1.138   3.499   4.777 -0.5211  1.0870 -0.3392
 9241TIP3   OH249213   4.883   0.659  12.650  0.0354  0.4098  0.7504
 9241TIP3    H149214   4.824   0.687  12.720  0.0110  0.6632  0.6299
 9241TIP3    H249215   4.922   0.741  12.618 -0.8570  0.4363 -0.3474
 9242TIP3   OH249216   5.133   1.541   4.088  0.4093 -0.4783  0.1387
 9242TIP3    H149217   5.193   1.477   4.049 -0.4930 -3.1914  2.8291
 9242TIP3    H249218   5.189   1.615   4.112  1.8911 -1.1149 -1.1937
 9243TIP3   OH249219   3.755   4.776  11.603  0.0673  0.1873  0.6001
 9243TIP3    H149220   3.756   4.859  11.555  0.4869 -0.1813 -0.0402
 9243TIP3    H249221   3.665   4.766  11.632 -0.8638 -0.8453 -2.3172
 9244TIP3   OH249222   2.981   5.583  13.657 -0.0487  0.1942 -0.0919
 9244TIP3    H149223   3.040   5.655  13.680  0.1283  0.5304 -1.5170
 9244TIP3    H249224   2.972   5.533  13.739  0.3854  1.4193  0.7363
 9245TIP3   OH249225   0.091   2.621  16.515 -0.0376  0.2963 -0.5623
 9245TIP3    H149226   0.030   2.686  16.479 -1.2909 -0.3661  0.2947
 9245TIP3    H249227   0.062   2.609  16.606  0.8245 -0.7107 -0.4032
 9246TIP3   OH249228   5.348   3.401   2.895 -0.1439  0.0115 -0.5592
 9246TIP3    H149229   5.361   3.494   2.918  1.9677 -0.1500 -0.8598
 9246TIP3    H249230   5.374   3.395   2.803 -1.1268 -0.7423 -0.8055
 9247TIP3   OH249231   1.997   4.680  10.631 -0.4173  0.1449  1.0623
 9247TIP3    H149232   2.088   4.672  10.602 -1.2845 -0.4570 -1.8513
 9247TIP3    H249233   1.969   4.589  10.646 -0.7564  0.2533  1.0833
 9248TIP3   OH249234   4.815   5.308   1.188  0.2937 -0.3084  0.3616
 9248TIP3    H149235   4.788   5.259   1.265  2.2203 -2.9136 -0.4482
 9248TIP3    H249236   4.906   5.281   1.173 -0.2131 -0.5992 -3.2360
 9249TIP3   OH249237   2.220   3.662   1.924  0.3156 -0.8342  0.3848
 9249TIP3    H149238   2.140   3.670   1.873 -1.4031  0.8505  3.0679
 9249TIP3    H249239   2.291   3.669   1.860 -1.6298 -0.9100 -1.9178
 9250TIP3   OH249240   4.411   0.278   0.599  0.0815 -0.0873 -0.2402
 9250TIP3    H149241   4.423   0.257   0.506 -0.6915  1.7815 -0.8222
 9250TIP3    H249242   4.499   0.275   0.636  0.7557  1.3692 -1.5892
 9251TIP3   OH249243   4.638   4.544  14.181 -0.0177  0.5458  0.0954
 9251TIP3    H149244   4.608   4.589  14.102 -0.6071 -3.1852 -2.0900
 9251TIP3    H249245   4.728   4.573  14.194 -0.5711  2.7445 -0.6997
 9252TIP3   OH249246   6.478   0.261   2.689  0.0678 -0.2655 -0.1704
 9252TIP3    H149247   6.404   0.226   2.638  1.6353 -1.7448 -1.5456
 9252TIP3    H249248   6.531   0.309   2.625  0.3954  0.6969  0.7813
 9253TIP3   OH249249   6.544   2.102  15.935 -0.5516 -0.5058 -0.1926
 9253TIP3    H149250   6.511   2.117  15.846 -0.3622 -1.1939 -0.3829
 9253TIP3    H249251   6.501   2.169  15.988 -0.1152  0.3724 -0.9231
 9254TIP3   OH249252   6.541   0.418   5.679  0.2366 -0.1728  0.5257
 9254TIP3    H149253   6.452   0.450   5.696  0.2355 -0.2267  0.6181
 9254TIP3    H249254   6.550   0.424   5.584  0.4687  0.7211  0.5929
 9255TIP3   OH249255   6.136   6.091   3.005 -0.2288  0.1905  0.2153
 9255TIP3    H149256   6.081   6.041   2.945 -1.5771  0.1938  1.4019
 9255TIP3    H249257   6.119   6.183   2.982 -0.0329  0.1782  0.0106
 9256TIP3   OH249258   5.523   2.228   1.413 -0.2625 -0.1685  0.7212
 9256TIP3    H149259   5.511   2.318   1.384  0.2947 -0.0317  0.9117
 9256TIP3    H249260   5.463   2.177   1.358 -0.2207  0.2552  0.2767
 9257TIP3   OH249261   4.612   0.714  15.627 -0.8784  0.4368  0.3925
 9257TIP3    H149262   4.566   0.641  15.670 -1.3280  0.0676 -0.6870
 9257TIP3    H249263   4.544   0.779  15.612 -1.0208 -0.0059 -0.9825
 9258TIP3   OH249264   3.034   1.413  13.179 -0.3739  0.0910 -0.4677
 9258TIP3    H149265   2.972   1.342  13.198 -0.0088 -0.0666  0.1880
 9258TIP3    H249266   3.029   1.469  13.256  0.8484 -0.3311 -0.0617
 9259TIP3   OH249267   1.342   6.637  15.224 -0.0328  0.2330 -0.3059
 9259TIP3    H149268   1.364   6.669  15.311  1.4292  1.7301 -1.1699
 9259TIP3    H249269   1.248   6.617  15.229 -0.0707  0.6895  1.4741
 9260TIP3   OH249270   1.317   5.537  13.123 -0.0475 -0.6330 -0.9560
 9260TIP3    H149271   1.240   5.587  13.098 -0.2694 -0.3891  0.1664
 9260TIP3    H249272   1.391   5.596  13.106 -0.4082  0.8758  2.0424
 9261TIP3   OH249273   2.964   5.338  13.384  0.2132 -0.5291  0.4394
 9261TIP3    H149274   2.917   5.422  13.386  0.5200 -0.2544 -1.3958
 9261TIP3    H249275   2.987   5.321  13.475  1.0767  1.9202  0.7640
 9262TIP3   OH249276   5.601   4.781   4.190 -0.5636  0.4608 -0.2043
 9262TIP3    H149277   5.616   4.776   4.284 -0.1692 -0.8792 -0.3083
 9262TIP3    H249278   5.643   4.862   4.163  1.6407 -0.4000  0.4114
 9263TIP3   OH249279   1.900   5.784   3.755 -0.3363  0.4186  0.5352
 9263TIP3    H149280   1.829   5.840   3.786  0.0777  1.2509  0.0230
 9263TIP3    H249281   1.948   5.759   3.834  0.2913  1.9400  0.6801
 9264TIP3   OH249282   4.736   2.997   3.538  0.2701 -0.0595 -0.3765
 9264TIP3    H149283   4.785   2.997   3.456 -1.2948 -1.5200 -1.3905
 9264TIP3    H249284   4.708   3.088   3.550  1.0619  0.2876 -1.1135
 9265TIP3   OH249285   6.297   3.428   2.522  0.1879  0.1296 -0.2959
 9265TIP3    H149286   6.266   3.345   2.558 -0.7131  1.1077  1.3198
 9265TIP3    H249287   6.356   3.403   2.451  0.1883 -1.8855  0.3502
 9266TIP3   OH249288   0.430   1.667   5.282 -0.1622  0.6952 -0.0442
 9266TIP3    H149289   0.447   1.686   5.374  1.5737 -2.9819  0.5651
 9266TIP3    H249290   0.514   1.680   5.238 -0.0445 -0.9226 -0.3682
 9267TIP3   OH249291   0.332   2.994  13.814  0.1975  0.1821  0.0483
 9267TIP3    H149292   0.270   3.053  13.857  0.1069  0.9801 -1.1407
 9267TIP3    H249293   0.361   2.935  13.884 -2.7040 -0.9507  0.4390
 9268TIP3   OH249294   1.109   6.692   1.207  0.7048 -0.1213  0.0723
 9268TIP3    H149295   1.184   6.685   1.148  1.3400 -0.3124  0.8881
 9268TIP3    H249296   1.145   6.732   1.287 -0.1971  0.4058  0.2290
 9269TIP3   OH249297   3.218   1.689   5.617  0.2585  0.2153 -0.2129
 9269TIP3    H149298   3.299   1.643   5.595  0.2796 -0.4517  1.1406
 9269TIP3    H249299   3.169   1.691   5.535  1.4735  0.3014 -0.9675
 9270TIP3   OH249300   1.590   5.324  13.775 -0.0991  0.4637  0.0468
 9270TIP3    H149301   1.545   5.313  13.858 -0.1251  1.8151  0.2335
 9270TIP3    H249302   1.520   5.333  13.710 -0.1073  1.1919  0.1450
 9271TIP3   OH249303   0.444   4.853  14.879  0.3967 -0.1503  0.0753
 9271TIP3    H149304   0.448   4.847  14.783  0.2477  1.6529 -0.0807
 9271TIP3    H249305   0.522   4.904  14.902  0.3499 -0.4482  0.8960
 9272TIP3   OH249306   6.270   3.143   2.597 -0.1001  0.0373 -0.9409
 9272TIP3    H149307   6.310   3.074   2.544 -0.3489 -1.4702  0.7521
 9272TIP3    H249308   6.177   3.138   2.577 -0.5037 -1.9367  1.0452
 9273TIP3   OH249309   0.771   5.191   5.999  0.5831  0.5698  0.1618
 9273TIP3    H149310   0.731   5.256   6.058  0.3884 -1.4476  2.4256
 9273TIP3    H249311   0.706   5.121   5.993  1.8529 -0.6380  0.0398
 9274TIP3   OH249312   6.516   1.379   4.752 -0.9832 -0.0435  0.5497
 9274TIP3    H149313   6.492   1.377   4.845  1.1443 -2.5415  1.1610
 9274TIP3    H249314   6.445   1.427   4.710 -1.3669  2.3424  3.5981
 9275TIP3   OH249315   0.319   3.794  12.950 -0.2401 -0.3289 -0.2791
 9275TIP3    H149316   0.271   3.841  13.018 -0.1706 -0.6424 -0.0044
 9275TIP3    H249317   0.402   3.771  12.992  1.2826  2.4170 -1.5252
 9276TIP3   OH249318   0.758   4.317   0.325  0.2289 -0.4585 -0.1119
 9276TIP3    H149319   0.708   4.396   0.345 -0.4843 -1.0968  0.7027
 9276TIP3    H249320   0.711   4.276   0.253  0.2436 -0.4679 -0.1161
 9277TIP3   OH249321   5.031   0.385  12.973 -0.4402  0.5017 -0.2589
 9277TIP3    H149322   5.021   0.478  12.954  1.9606  0.6076 -1.4032
 9277TIP3    H249323   5.109   0.379  13.028 -0.7822 -0.7996  0.1310
 9278TIP3   OH249324   3.274   4.909  15.431  0.7053 -0.3103  0.5654
 9278TIP3    H149325   3.274   4.920  15.336 -0.2580 -2.4693  0.2546
 9278TIP3    H249326   3.223   4.830  15.446 -0.5956  0.8796  3.0172
 9279TIP3   OH249327   1.359   5.435   5.094 -0.2031 -0.7004  0.0787
 9279TIP3    H149328   1.300   5.478   5.033  0.2766  0.4194  0.3764
 9279TIP3    H249329   1.304   5.371   5.139 -1.2974  0.5460  0.5981
 9280TIP3   OH249330   5.182   5.222   0.089 -0.6039 -0.4866 -0.3279
 9280TIP3    H149331   5.183   5.143   0.035 -1.4310 -0.6531 -0.1089
 9280TIP3    H249332   5.263   5.218   0.139  0.2226 -0.2934 -1.5937
 9281TIP3   OH249333   5.897   3.040   5.677  0.2638 -0.2035 -0.4242
 9281TIP3    H149334   5.902   3.099   5.752 -2.4074  0.0793 -0.3651
 9281TIP3    H249335   5.987   3.010   5.663  0.6846 -1.5092  3.8642
 9282TIP3   OH249336   2.876   5.579   1.108  0.1354 -0.1518  0.0729
 9282TIP3    H149337   2.798   5.601   1.056 -0.3074  2.0678  1.5381
 9282TIP3    H249338   2.947   5.577   1.043 -0.7646  0.1953 -0.9619
 9283TIP3   OH249339   1.594   6.751   0.504  0.4850 -0.2929 -0.4679
 9283TIP3    H149340   1.537   6.758   0.581  1.7360 -1.2077  0.5960
 9283TIP3    H249341   1.665   6.693   0.532  1.1662 -0.3663 -2.2202
 9284TIP3   OH249342   0.435   6.553   4.564  0.2690  0.0376 -0.2894
 9284TIP3    H149343   0.394   6.467   4.551  0.0099 -0.0090  0.7255
 9284TIP3    H249344   0.366   6.616   4.545  1.0470  0.1406 -3.2153
 9285TIP3   OH249345   1.550   6.301   3.254 -0.3616  0.2847  0.0823
 9285TIP3    H149346   1.549   6.282   3.161  1.8560 -2.2827  0.4784
 9285TIP3    H249347   1.638   6.333   3.272 -0.5245  0.0802  1.3829
 9286TIP3   OH249348   6.818   0.044   0.881  0.5189 -0.2431 -0.1446
 9286TIP3    H149349   6.787  -0.026   0.938  1.2051 -0.2316  0.2398
 9286TIP3    H249350   6.866   0.103   0.939 -1.2508  1.3206 -0.1731
 9287TIP3   OH249351   6.618   1.608  16.878 -0.4546 -0.0553 -0.6248
 9287TIP3    H149352   6.641   1.638  16.965  2.6096  0.9486 -1.6543
 9287TIP3    H249353   6.542   1.660  16.853 -1.1178 -0.0740  1.2380
 9288TIP3   OH249354   0.191   0.325   6.147 -0.2694 -0.0139  0.1111
 9288TIP3    H149355   0.281   0.357   6.157 -0.9226  1.7635  0.6182
 9288TIP3    H249356   0.137   0.393   6.187 -2.1024  0.6312 -3.1290
 9289TIP3   OH249357   4.062   5.292   3.405 -0.5139  0.3814  0.0933
 9289TIP3    H149358   4.010   5.277   3.326 -0.1398  0.1695 -0.1206
 9289TIP3    H249359   4.134   5.349   3.376  1.1754 -1.8402 -0.3944
 9290TIP3   OH249360   5.203   2.975   5.057 -0.8115 -0.1209 -0.1651
 9290TIP3    H149361   5.124   2.922   5.058  0.0186 -1.4169 -0.0259
 9290TIP3    H249362   5.258   2.934   4.990 -1.1360  2.1306 -1.9363
 9291TIP3   OH249363   4.735   2.335   5.425 -0.0420  0.0626 -0.2425
 9291TIP3    H149364   4.823   2.350   5.459  0.2512 -0.2968 -0.8207
 9291TIP3    H249365   4.684   2.409   5.457  1.0051  1.5024 -1.7716
 9292TIP3   OH249366   0.398   4.896  14.352 -0.0483  0.9818 -0.1122
 9292TIP3    H149367   0.402   4.844  14.273  1.7484  0.8650  0.0289
 9292TIP3    H249368   0.349   4.842  14.414 -0.1264  0.4218 -0.6541
 9293TIP3   OH249369   5.001   0.932  12.930 -0.0149  0.1043  0.0318
 9293TIP3    H149370   5.038   0.854  12.970 -3.6007 -1.6827  0.2419
 9293TIP3    H249371   4.975   0.987  13.003  2.1977  1.4923 -0.1161
 9294TIP3   OH249372   6.564   1.382   2.081 -0.2411  0.6315 -0.1801
 9294TIP3    H149373   6.577   1.316   2.012  0.0827  1.1904 -0.6678
 9294TIP3    H249374   6.532   1.460   2.034  0.1397  1.0703  0.2748
 9295TIP3   OH249375   5.844   6.609   1.342  0.2094  0.1993 -0.2295
 9295TIP3    H149376   5.902   6.565   1.281  0.1249  0.1901 -0.3033
 9295TIP3    H249377   5.827   6.545   1.411  0.6948  0.3714  0.0586
 9296TIP3   OH249378   1.739   5.424  11.656  0.3173 -0.1387 -0.5708
 9296TIP3    H149379   1.695   5.416  11.741  0.1359 -0.5814 -0.7054
 9296TIP3    H249380   1.673   5.395  11.592  1.3325 -2.4633 -0.6527
 9297TIP3   OH249381   4.378   4.408   2.373  0.0160 -0.0803 -0.2016
 9297TIP3    H149382   4.395   4.315   2.385 -1.2270 -0.7431 -2.7961
 9297TIP3    H249383   4.328   4.434   2.451 -0.8136 -1.9392 -0.0645
 9298TIP3   OH249384   6.322   3.935  14.484 -0.4993 -0.2504  0.5458
 9298TIP3    H149385   6.341   4.024  14.453  1.0310 -0.7212  0.0100
 9298TIP3    H249386   6.243   3.944  14.537 -0.7593  1.3108 -0.0575
 9299TIP3   OH249387   5.909   5.788   0.591  0.5670  0.0436  0.2609
 9299TIP3    H149388   5.911   5.868   0.538  1.5245 -1.1267 -1.5522
 9299TIP3    H249389   5.879   5.818   0.677  0.8209  2.3319 -0.3721
 9300TIP3   OH249390   1.898   3.753   3.189 -0.2921  0.0374 -0.3000
 9300TIP3    H149391   1.978   3.805   3.200  0.5346 -1.1568 -0.4793
 9300TIP3    H249392   1.913   3.703   3.109 -1.1768 -0.2998 -0.2616
 9301TIP3   OH249393   2.528   1.857   1.684  0.1928  0.2068  1.0421
 9301TIP3    H149394   2.573   1.786   1.731 -1.0710 -1.0318  0.4462
 9301TIP3    H249395   2.439   1.824   1.672  0.5655  0.1799 -2.7413
 9302TIP3   OH249396   3.455   3.582  13.706 -0.3359  0.1920 -0.9270
 9302TIP3    H149397   3.464   3.487  13.705 -0.0481  0.2082 -0.4033
 9302TIP3    H249398   3.544   3.615  13.700 -0.4267  0.4280 -0.9939
 9303TIP3   OH249399   1.589   2.269   0.820  0.2703  0.3747  0.1946
 9303TIP3    H149400   1.583   2.272   0.724 -1.3328 -0.1178  0.2362
 9303TIP3    H249401   1.670   2.221   0.837 -0.3152 -1.1612 -0.9783
 9304TIP3   OH249402   3.995   2.361  14.328  0.6730 -0.5632  0.3003
 9304TIP3    H149403   3.915   2.411  14.309  0.0790 -0.8491  1.8615
 9304TIP3    H249404   3.964   2.271  14.339  1.4744 -0.9767 -0.7488
 9305TIP3   OH249405   4.473   4.704  16.997  0.4624 -0.5310 -0.1427
 9305TIP3    H149406   4.439   4.694  16.908 -1.3867  0.0778  0.4404
 9305TIP3    H249407   4.523   4.786  16.995  0.6002 -0.6303 -0.6790
 9306TIP3   OH249408   1.816   6.675   2.515  0.3743 -0.6235  0.1050
 9306TIP3    H149409   1.800   6.618   2.440 -0.3774  0.6034 -0.7137
 9306TIP3    H249410   1.865   6.749   2.479 -0.1445  0.0650  0.7670
 9307TIP3   OH249411   5.737   3.752   1.512  0.2997  0.5954  0.2498
 9307TIP3    H149412   5.758   3.746   1.419  3.4732  0.1522  0.8879
 9307TIP3    H249413   5.699   3.667   1.534 -0.0667  0.5518 -0.5518
 9308TIP3   OH249414   5.256   6.463   4.233  0.3023 -0.3058  0.5265
 9308TIP3    H149415   5.251   6.469   4.138  2.5410  1.1466  0.4262
 9308TIP3    H249416   5.174   6.501   4.264 -0.3721 -0.6282 -0.7817
 9309TIP3   OH249417   2.720   4.654  10.908 -0.0693 -0.5512 -0.4012
 9309TIP3    H149418   2.802   4.610  10.886  0.5120  0.6310 -0.6716
 9309TIP3    H249419   2.653   4.587  10.896  1.0833 -2.4417  2.7354
 9310TIP3   OH249420   1.426   2.847   0.038  0.4324  0.0295 -0.4100
 9310TIP3    H149421   1.474   2.883  -0.036 -1.1564  1.9156 -0.6049
 9310TIP3    H249422   1.493   2.818   0.099  1.7706 -0.5700 -2.0814
 9311TIP3   OH249423   3.259   3.126   3.296  0.5288 -0.2611 -0.0612
 9311TIP3    H149424   3.230   3.186   3.364  2.4188 -0.2025  0.7530
 9311TIP3    H249425   3.336   3.169   3.258  0.3813 -0.9869 -1.2213
 9312TIP3   OH249426   5.647   1.780  15.622  0.2386 -0.1309 -0.4480
 9312TIP3    H149427   5.660   1.866  15.660 -0.6966  0.0688 -0.5446
 9312TIP3    H249428   5.555   1.780  15.592  0.6978 -0.5531 -1.9748
 9313TIP3   OH249429   4.566   5.412  14.072 -0.0619 -0.0045 -0.6204
 9313TIP3    H149430   4.534   5.326  14.044 -1.2038 -0.5468  2.0713
 9313TIP3    H249431   4.615   5.394  14.152 -0.7962  1.9050  0.2974
 9314TIP3   OH249432   2.270   3.283  15.048  0.4281  0.0219  0.2499
 9314TIP3    H149433   2.365   3.281  15.039  0.3020  0.6159 -1.4772
 9314TIP3    H249434   2.249   3.376  15.054 -0.1583 -0.0315 -0.8541
 9315TIP3   OH249435   3.468   4.608  14.609 -0.0441 -0.0938 -0.0558
 9315TIP3    H149436   3.544   4.628  14.663  0.1351  1.1147 -0.7326
 9315TIP3    H249437   3.470   4.513  14.599 -2.7315 -1.2353  5.9422
 9316TIP3   OH249438   0.174   5.025  10.609  0.0515 -0.1279 -0.7016
 9316TIP3    H149439   0.208   5.100  10.560 -0.8643 -0.4725 -1.8966
 9316TIP3    H249440   0.113   4.982  10.550 -1.1655 -0.5292  0.7675
 9317TIP3   OH249441   4.040   4.276  11.308  0.0432 -0.0169 -0.5166
 9317TIP3    H149442   3.985   4.331  11.365 -0.3071 -0.7903 -0.0953
 9317TIP3    H249443   4.126   4.316  11.313 -0.2380  0.5813 -0.3256
 9318TIP3   OH249444   1.268   0.495   1.963  0.4390  0.2711  0.4942
 9318TIP3    H149445   1.279   0.421   1.903  0.9635 -0.5095  1.5257
 9318TIP3    H249446   1.299   0.571   1.914 -0.8220 -0.0445 -0.8673
 9319TIP3   OH249447   2.271   4.499   0.400 -0.2503 -0.0292 -0.5401
 9319TIP3    H149448   2.205   4.532   0.461  0.1836  0.4784 -0.3394
 9319TIP3    H249449   2.311   4.425   0.446  0.3436  0.5913 -0.0320
 9320TIP3   OH249450   4.842   5.305  13.849 -0.5484 -0.6575 -0.1218
 9320TIP3    H149451   4.764   5.272  13.805  0.2650 -0.7944 -1.5131
 9320TIP3    H249452   4.814   5.320  13.939 -1.6707 -2.5255 -0.1121
 9321TIP3   OH249453   0.133   4.604   4.215  0.0183  0.1646 -0.0574
 9321TIP3    H149454   0.059   4.644   4.260  2.1420  3.1265  1.1187
 9321TIP3    H249455   0.103   4.590   4.125 -2.0195  0.9704  0.4588
 9322TIP3   OH249456   6.352   6.390   3.800  0.2210  0.1153  0.5242
 9322TIP3    H149457   6.272   6.338   3.806  0.4886 -0.1518  2.0468
 9322TIP3    H249458   6.323   6.481   3.808  0.1141 -0.0104  1.6346
 9323TIP3   OH249459   6.388   5.150   2.007 -0.3232  0.4772  0.1516
 9323TIP3    H149460   6.325   5.105   1.952 -0.1585 -0.3564  0.6363
 9323TIP3    H249461   6.473   5.117   1.979 -0.1703  0.8016  0.2228
 9324TIP3   OH249462   6.101   2.834  12.917  0.1192 -0.7889 -0.0728
 9324TIP3    H149463   6.102   2.778  12.995 -0.1317 -1.6241 -0.6562
 9324TIP3    H249464   6.102   2.773  12.843 -1.0824 -0.0437 -0.7282
 9325TIP3   OH249465   3.637   2.688  13.595  0.2191 -0.6038  0.4159
 9325TIP3    H149466   3.565   2.626  13.583 -0.0546 -0.4400  1.1466
 9325TIP3    H249467   3.711   2.634  13.624 -0.1372 -0.5500  1.4619
 9326TIP3   OH249468   6.277   3.836  12.089 -0.2160 -0.3333 -0.7029
 9326TIP3    H149469   6.291   3.920  12.131  1.6112 -0.8708 -0.1361
 9326TIP3    H249470   6.280   3.773  12.161  2.2044 -1.1986 -1.4546
 9327TIP3   OH249471   2.087   5.381  14.212 -0.2675  0.1650 -0.3067
 9327TIP3    H149472   2.021   5.333  14.261  0.8733 -0.3676  0.7590
 9327TIP3    H249473   2.135   5.314  14.163  0.5720  0.3297  0.2683
 9328TIP3   OH249474   2.598   4.779  12.835  0.1325 -0.3649  0.1069
 9328TIP3    H149475   2.633   4.698  12.799 -1.4375 -0.7543 -0.6238
 9328TIP3    H249476   2.660   4.846  12.808  2.1943 -1.4413  1.8491
 9329TIP3   OH249477   6.401   6.500   2.828 -0.3003 -0.7935  0.2675
 9329TIP3    H149478   6.446   6.545   2.899 -0.1693 -1.1463  0.4109
 9329TIP3    H249479   6.314   6.540   2.826  0.1753  0.2657 -0.3592
 9330TIP3   OH249480   4.093   4.303   5.660  0.1111 -0.5458  0.0830
 9330TIP3    H149481   4.119   4.303   5.753  0.1334 -2.2049  0.1032
 9330TIP3    H249482   4.157   4.360   5.617  0.0800  0.2763  1.0795
 9331TIP3   OH249483   5.263   6.413   4.609  0.4843  0.2351 -0.0748
 9331TIP3    H149484   5.221   6.469   4.675 -0.1811 -0.1464 -0.1693
 9331TIP3    H249485   5.308   6.475   4.551  0.0265  0.6589  0.0112
 9332TIP3   OH249486   0.753   0.838   1.864 -0.2756  0.1193 -0.2347
 9332TIP3    H149487   0.781   0.746   1.870 -0.9788 -0.1581 -0.9587
 9332TIP3    H249488   0.795   0.881   1.938  0.4019 -0.7039 -0.1249
 9333TIP3   OH249489   3.291   0.261   3.521 -0.1528 -0.0150 -0.5982
 9333TIP3    H149490   3.290   0.351   3.554 -0.0533 -0.0034 -0.6252
 9333TIP3    H249491   3.286   0.206   3.599  0.2669  0.0096 -0.5475
 9334TIP3   OH249492   3.683   0.048   0.272  0.2950 -0.2292 -0.2700
 9334TIP3    H149493   3.742   0.097   0.329  0.7937 -0.9934 -0.1174
 9334TIP3    H249494   3.733  -0.029   0.245 -0.1455 -0.1831 -1.2631
 9335TIP3   OH249495   3.803   3.618  15.956 -0.0386  0.0984  0.3383
 9335TIP3    H149496   3.816   3.684  16.024 -1.2284  0.4103  0.2817
 9335TIP3    H249497   3.710   3.596  15.961  0.0240 -0.4601 -0.6583
 9336TIP3   OH249498   1.061   3.341   1.754 -0.4368 -0.3215 -0.2051
 9336TIP3    H149499   1.058   3.274   1.822 -0.2862 -0.2033 -0.0791
 9336TIP3    H249500   1.136   3.317   1.699  0.0700  0.1489  0.2713
 9337TIP3   OH249501   6.772   4.264  10.306  0.4776  0.2388 -0.0362
 9337TIP3    H149502   6.728   4.340  10.345 -0.9197  1.2613 -3.2160
 9337TIP3    H249503   6.703   4.199  10.296  0.1946  0.7907 -2.4816
 9338TIP3   OH249504   0.926   1.050  16.629 -0.0191  0.3392 -0.0199
 9338TIP3    H149505   0.898   1.086  16.545  2.5441  0.8366 -0.7404
 9338TIP3    H249506   1.012   1.012  16.611  1.1020  1.4294  2.6115
 9339TIP3   OH249507   1.737   3.868   0.374  0.1681 -0.2758 -0.4193
 9339TIP3    H149508   1.763   3.881   0.465 -1.4477  0.9410 -0.0862
 9339TIP3    H249509   1.726   3.773   0.365  0.7981 -0.4439  0.5183
 9340TIP3   OH249510   4.342   1.225   1.184 -0.2582 -0.1685  0.3399
 9340TIP3    H149511   4.399   1.215   1.108  0.3288 -1.3126  0.9037
 9340TIP3    H249512   4.395   1.271   1.249 -1.0238  1.5421 -0.1894
 9341TIP3   OH249513   5.646   6.453   4.632  0.2057 -0.1278 -0.3021
 9341TIP3    H149514   5.586   6.528   4.633  0.4361  0.0572  0.3004
 9341TIP3    H249515   5.589   6.378   4.617 -0.7539 -0.3618  3.4124
 9342TIP3   OH249516   1.528   1.062  10.709  0.0854  0.1990 -0.4752
 9342TIP3    H149517   1.535   1.087  10.617 -0.9409 -1.1584 -0.9543
 9342TIP3    H249518   1.510   0.968  10.707  0.0674  0.1471  1.1128
 9343TIP3   OH249519   3.290   3.590   4.926  0.0611 -0.1578  0.3452
 9343TIP3    H149520   3.199   3.594   4.896  0.7589 -1.3622 -2.1589
 9343TIP3    H249521   3.288   3.531   5.001 -1.1901 -0.3536  0.1790
 9344TIP3   OH249522   6.185   4.946  16.593 -0.2383  0.2223 -0.4167
 9344TIP3    H149523   6.221   4.985  16.673 -0.1523  0.2112 -0.4508
 9344TIP3    H249524   6.172   5.020  16.534 -0.0266  0.1934 -0.4998
 9345TIP3   OH249525   4.302   0.988  14.004  0.3051  0.1692 -0.2688
 9345TIP3    H149526   4.222   1.015  13.958 -0.1390 -1.0599 -0.2593
 9345TIP3    H249527   4.280   0.996  14.097  0.3152  0.1716 -0.2673
 9346TIP3   OH249528   4.213   2.418  16.060 -0.2812  0.5082  0.1618
 9346TIP3    H149529   4.179   2.362  16.130  1.1090  2.2054  2.3311
 9346TIP3    H249530   4.247   2.357  15.995 -2.8540 -1.1578  0.2425
 9347TIP3   OH249531   2.408   4.554  12.704 -1.1299 -0.0358  0.4076
 9347TIP3    H149532   2.437   4.641  12.732 -0.5092  0.1536 -0.7904
 9347TIP3    H249533   2.455   4.537  12.623 -2.7888 -0.6358 -0.4729
 9348TIP3   OH249534   3.529   5.202   1.521 -0.2904  0.1939  0.9190
 9348TIP3    H149535   3.450   5.255   1.526 -0.6552  0.4216 -3.2849
 9348TIP3    H249536   3.595   5.260   1.483  1.2425 -0.6794  2.0912
 9349TIP3   OH249537   4.893   3.159  17.184 -0.7216 -0.7236 -0.4413
 9349TIP3    H149538   4.918   3.067  17.198 -2.2313 -1.2218 -0.8644
 9349TIP3    H249539   4.972   3.208  17.207  0.3229 -2.1523 -0.7806
 9350TIP3   OH249540   6.261   5.122   3.693 -0.2774 -0.2042 -0.0617
 9350TIP3    H149541   6.225   5.158   3.613  0.0974  2.2145  0.7842
 9350TIP3    H249542   6.339   5.074   3.665  1.2741  2.6441 -0.9796
 9351TIP3   OH249543   5.831   5.528   1.050  0.2794 -0.2613 -0.1818
 9351TIP3    H149544   5.925   5.536   1.034  0.0152  1.1828 -1.2248
 9351TIP3    H249545   5.817   5.435   1.064  2.0595 -0.3618  1.4275
 9352TIP3   OH249546   3.118   5.817   0.208  0.2380 -0.0982 -0.0419
 9352TIP3    H149547   3.107   5.722   0.216  1.3288 -0.1292  1.6353
 9352TIP3    H249548   3.032   5.850   0.183  0.1761 -1.6359 -2.1217
 9353TIP3   OH249549   3.351   3.848   2.954 -0.3876  0.0791  0.2662
 9353TIP3    H149550   3.428   3.895   2.922 -2.4381  1.8261 -2.5505
 9353TIP3    H249551   3.303   3.824   2.874 -1.7970 -2.7345  1.8247
 9354TIP3   OH249552   4.847   4.557   1.895 -0.3276 -0.4744  0.0403
 9354TIP3    H149553   4.839   4.490   1.828  0.5533 -2.2712  1.6326
 9354TIP3    H249554   4.756   4.575   1.922 -0.5455 -1.7695  0.2468
 9355TIP3   OH249555   5.137   2.808   6.269 -0.1832 -0.2609  0.2821
 9355TIP3    H149556   5.136   2.713   6.282 -1.4018 -0.1845  0.9430
 9355TIP3    H249557   5.201   2.840   6.332 -0.1959 -0.6043  0.4764
 9356TIP3   OH249558   5.165   2.281   0.434 -0.0863  0.2027 -0.3601
 9356TIP3    H149559   5.155   2.293   0.528 -0.7390 -1.6234 -0.1510
 9356TIP3    H249560   5.090   2.327   0.396  0.9647  2.2041 -0.1458
 9357TIP3   OH249561   2.379   5.463   0.346  0.1102  0.2157 -0.2276
 9357TIP3    H149562   2.352   5.396   0.284 -0.7072  1.6339 -1.4625
 9357TIP3    H249563   2.393   5.416   0.428  2.0145 -1.8421 -1.6318
 9358TIP3   OH249564   2.856   5.246  15.161 -0.2470 -0.4296 -0.2084
 9358TIP3    H149565   2.906   5.228  15.081 -1.1785 -0.1709 -0.8713
 9358TIP3    H249566   2.879   5.336  15.184 -0.0968 -0.4486 -0.2850
 9359TIP3   OH249567   6.498   6.270  14.724  0.0002 -0.6902 -0.3835
 9359TIP3    H149568   6.469   6.183  14.694  1.5046 -2.2874  2.4038
 9359TIP3    H249569   6.429   6.298  14.785  1.2904 -1.8175  1.7214
 9360TIP3   OH249570   4.463   5.276   2.566  0.4130  0.2402 -0.6635
 9360TIP3    H149571   4.517   5.277   2.645  0.1597  1.2321 -0.4868
 9360TIP3    H249572   4.376   5.248   2.596  0.3219  0.5982 -0.5807
 9361TIP3   OH249573   4.479   3.847  11.650 -0.2442  0.7967  0.0339
 9361TIP3    H149574   4.417   3.851  11.577  1.1932  1.3552 -1.2134
 9361TIP3    H249575   4.456   3.922  11.705 -0.2575  1.4011 -0.7766
 9362TIP3   OH249576   1.986   4.735   3.576  0.1266  0.0145 -0.3752
 9362TIP3    H149577   2.068   4.685   3.579 -1.3359 -2.4845  0.9100
 9362TIP3    H249578   1.973   4.764   3.667 -0.9767 -0.6362 -0.3152
 9363TIP3   OH249579   1.269   1.772  15.659  0.6890  0.0490  0.0821
 9363TIP3    H149580   1.260   1.731  15.573  1.8426 -1.4685  0.6375
 9363TIP3    H249581   1.307   1.704  15.714  2.0613  1.6654  1.2344
 9364TIP3   OH249582   3.783   3.931  12.472  0.0465 -0.7493 -0.1579
 9364TIP3    H149583   3.752   3.861  12.414 -0.6379 -0.5329 -0.0657
 9364TIP3    H249584   3.706   3.986  12.486  1.0100  1.1476 -1.8083
 9365TIP3   OH249585   6.518   5.383   0.349  0.2360 -1.0105 -0.3733
 9365TIP3    H149586   6.444   5.322   0.355  0.9250 -1.8682 -0.4420
 9365TIP3    H249587   6.560   5.362   0.266  0.1827 -0.0847 -0.6408
 9366TIP3   OH249588   3.595   1.548  16.067 -0.1291  0.0634  0.0795
 9366TIP3    H149589   3.635   1.635  16.066  0.7205 -0.3141 -1.6147
 9366TIP3    H249590   3.644   1.497  16.002  0.3409 -2.1461  2.0179
 9367TIP3   OH249591   0.061   3.802   4.888  0.0152  0.0467 -0.0257
 9367TIP3    H149592   0.039   3.842   4.972 -1.0203 -1.6926  0.5744
 9367TIP3    H249593   0.109   3.870   4.841 -0.2744  1.4055  1.5640
 9368TIP3   OH249594   5.185   4.907   5.181 -0.1685  0.6049 -0.1646
 9368TIP3    H149595   5.153   4.991   5.213  2.0027  2.0440 -1.5031
 9368TIP3    H249596   5.208   4.858   5.260 -1.0777  1.4120  0.6226
 9369TIP3   OH249597   1.190   4.751  13.235  0.4028  0.4737  0.6306
 9369TIP3    H149598   1.196   4.697  13.314  0.1231  0.7384  0.8345
 9369TIP3    H249599   1.197   4.841  13.267  0.6670  0.5672  0.3129
 9370TIP3   OH249600   1.985   5.599   0.981 -0.7617  0.2207  0.1315
 9370TIP3    H149601   2.005   5.595   0.887  0.2641  0.0624  0.3486
 9370TIP3    H249602   2.047   5.537   1.021  0.5969  2.1730  1.1892
 9371TIP3   OH249603   0.846   5.633   3.448 -0.8565 -0.2222 -0.1805
 9371TIP3    H149604   0.780   5.664   3.511 -0.7836  2.7054 -1.4205
 9371TIP3    H249605   0.809   5.654   3.363  1.0992  0.2418 -0.9552
 9372TIP3   OH249606   4.752   2.151  11.378  0.2229 -0.3716 -0.1910
 9372TIP3    H149607   4.729   2.075  11.431  2.0462 -1.5809 -1.0229
 9372TIP3    H249608   4.768   2.221  11.442 -4.1346  0.2521  0.4914
 9373TIP3   OH249609   1.794   1.906   5.009 -0.7167 -0.5156  0.4790
 9373TIP3    H149610   1.809   1.987   5.058 -1.0811 -1.0985  1.5818
 9373TIP3    H249611   1.717   1.924   4.957 -0.5660 -0.0197  0.4175
 9374TIP3   OH249612   2.797   6.001   0.779 -0.1693 -0.5907 -0.4435
 9374TIP3    H149613   2.786   6.021   0.686  3.2041 -0.9384 -1.0444
 9374TIP3    H249614   2.804   5.905   0.782 -0.2028 -0.5797  0.1391
 9375TIP3   OH249615   5.500   2.936   5.910  0.2224 -0.0635  0.1343
 9375TIP3    H149616   5.419   2.887   5.924 -0.9610  1.5028 -0.8352
 9375TIP3    H249617   5.531   2.956   5.998 -0.6944 -0.3028  0.5272
 9376TIP3   OH249618   0.520   5.776   3.049 -0.5805 -0.0039 -0.3034
 9376TIP3    H149619   0.483   5.703   2.998  1.9313 -1.4841 -0.2080
 9376TIP3    H249620   0.526   5.742   3.138  2.0303 -0.3395 -0.5445
 9377TIP3   OH249621   5.837   3.030   4.411  0.7147  0.0717 -0.2115
 9377TIP3    H149622   5.916   2.991   4.374 -0.1491  0.5868 -2.7515
 9377TIP3    H249623   5.840   3.121   4.384 -0.5210  0.2175  0.0900
 9378TIP3   OH249624   1.808   4.739  15.680 -0.1939 -0.1484  0.0480
 9378TIP3    H149625   1.832   4.818  15.632  0.3857 -0.7546 -0.6825
 9378TIP3    H249626   1.870   4.736  15.753  0.4588 -0.4795 -0.5172
 9379TIP3   OH249627   2.520   1.748  17.085  0.3315 -0.6455  0.5637
 9379TIP3    H149628   2.458   1.692  17.039  0.0636 -2.5380  3.0452
 9379TIP3    H249629   2.593   1.691  17.108  2.2605  1.1207 -0.7060
 9380TIP3   OH249630   2.515   2.710   0.353  0.3588 -0.1191  0.5718
 9380TIP3    H149631   2.444   2.766   0.322  0.4396 -0.6666 -0.6295
 9380TIP3    H249632   2.586   2.771   0.375  0.9129  0.2308 -1.9348
 9381TIP3   OH249633   4.752   3.953   5.287 -0.3296 -0.2870 -0.4065
 9381TIP3    H149634   4.711   4.037   5.306 -0.0488 -0.5064  1.3461
 9381TIP3    H249635   4.679   3.892   5.276 -0.5092 -0.1175 -0.1465
 9382TIP3   OH249636   2.590   6.679   2.573  0.3832 -0.1530  0.0717
 9382TIP3    H149637   2.611   6.660   2.664  0.2643 -0.2395  0.0799
 9382TIP3    H249638   2.574   6.594   2.533 -0.2526 -0.0680  0.1353
 9383TIP3   OH249639   0.990   0.705  16.879 -0.2951  0.3264  0.1171
 9383TIP3    H149640   0.954   0.658  16.804 -0.4975 -1.7011  1.3803
 9383TIP3    H249641   1.071   0.658  16.900 -0.8299  0.0861  1.8284
 9384TIP3   OH249642   6.286   4.275  12.286  0.1000  0.5697  0.5792
 9384TIP3    H149643   6.294   4.229  12.202  0.3165  0.6201  0.5705
 9384TIP3    H249644   6.344   4.227  12.345  0.2778  0.7899  0.5867
 9385TIP3   OH249645   6.284   5.333   5.746  0.2136  0.2780 -0.5304
 9385TIP3    H149646   6.207   5.322   5.690 -0.4510 -0.0020  0.4177
 9385TIP3    H249647   6.313   5.422   5.730  0.5562 -0.0602 -1.9599
 9386TIP3   OH249648   2.411   6.118   4.929 -0.4552  0.1190 -0.5308
 9386TIP3    H149649   2.400   6.032   4.888  2.5639  0.4486 -2.3019
 9386TIP3    H249650   2.356   6.176   4.876 -1.6758 -0.4967  0.0159
 9387TIP3   OH249651   3.708   5.590  14.414  0.1993 -0.1495  0.2645
 9387TIP3    H149652   3.646   5.611  14.485  0.9857  0.3410  0.8197
 9387TIP3    H249653   3.694   5.496  14.398 -0.6175 -0.0673  0.4502
 9388TIP3   OH249654   2.931   3.923   4.966  0.3250  0.3291  0.7224
 9388TIP3    H149655   2.896   3.968   5.043 -0.0292 -1.2242  1.5292
 9388TIP3    H249656   2.951   3.835   4.998  0.0973 -0.3800 -0.9935
 9389TIP3   OH249657   5.923   4.348  10.578 -0.4591 -0.4743  0.6906
 9389TIP3    H149658   5.957   4.279  10.521 -1.9849 -0.3297 -0.4463
 9389TIP3    H249659   5.895   4.301  10.657  0.8800 -0.7902  1.0039
 9390TIP3   OH249660   2.808   0.230   0.180  0.0259  0.5665 -0.0062
 9390TIP3    H149661   2.781   0.254   0.092 -0.7906 -3.8308 -1.1804
 9390TIP3    H249662   2.726   0.223   0.229  0.2916  0.7802  0.4800
 9391TIP3   OH249663   0.172   5.294   6.520 -0.0467  0.1876  0.0024
 9391TIP3    H149664   0.183   5.358   6.449  1.1556 -0.1246 -0.1027
 9391TIP3    H249665   0.139   5.346   6.593  0.8211  0.9316 -0.1161
 9392TIP3   OH249666   3.329   4.192   4.533 -0.3184 -0.6352  0.2480
 9392TIP3    H149667   3.377   4.115   4.565  1.1724  0.3669  0.5327
 9392TIP3    H249668   3.295   4.234   4.612  1.8280  0.8479  0.4724
 9393TIP3   OH249669   5.161   2.371  12.567 -0.1283 -0.0107  0.2442
 9393TIP3    H149670   5.151   2.279  12.545  4.1396 -0.7045  0.3508
 9393TIP3    H249671   5.160   2.373  12.663 -1.4349  0.3257  0.2478
 9394TIP3   OH249672   5.403   0.060   3.636 -0.2289  0.5224 -0.2360
 9394TIP3    H149673   5.494   0.075   3.609  0.3633  0.3623  1.5205
 9394TIP3    H249674   5.399  -0.034   3.654 -0.8118  0.4871 -0.5711
 9395TIP3   OH249675   2.172   4.983  16.900  0.1017 -0.2020 -0.2231
 9395TIP3    H149676   2.106   5.030  16.950  0.5840  1.6931 -1.2500
 9395TIP3    H249677   2.222   4.934  16.965 -0.0796  1.1725  1.0017
 9396TIP3   OH249678   4.461   1.039   2.465  0.4322  0.3752  0.9208
 9396TIP3    H149679   4.514   0.986   2.404 -2.7825  0.0579 -1.9155
 9396TIP3    H249680   4.484   1.129   2.444  1.9578  0.2440  1.8904
 9397TIP3   OH249681   4.976   1.473  14.639 -0.0519  0.0080  0.6717
 9397TIP3    H149682   4.898   1.422  14.618  0.3863 -0.8852  1.1339
 9397TIP3    H249683   4.955   1.517  14.721  0.2741 -1.0496  1.3479
 9398TIP3   OH249684   3.878   4.855  15.292 -0.5652  0.0055 -0.4633
 9398TIP3    H149685   3.854   4.933  15.341 -1.0378 -0.2568 -0.2698
 9398TIP3    H249686   3.884   4.786  15.358 -0.9884 -0.3022 -0.7434
 9399TIP3   OH249687   4.429   0.920  15.582 -0.3662 -0.5154  0.5293
 9399TIP3    H149688   4.334   0.903  15.581 -0.4692 -0.0374  1.3923
 9399TIP3    H249689   4.436   1.013  15.600  0.2817 -0.7274  1.4301
 9400TIP3   OH249690   2.543   5.309  12.736  0.3573 -0.6831  0.6785
 9400TIP3    H149691   2.513   5.254  12.808 -0.4203 -0.9631  0.1552
 9400TIP3    H249692   2.464   5.327  12.685  0.9164 -0.6401 -0.1996
 9401TIP3   OH249693   3.023   2.697  14.010  0.0649  0.3202 -0.0303
 9401TIP3    H149694   2.931   2.688  13.987 -0.0856  0.7342  0.3943
 9401TIP3    H249695   3.063   2.742  13.936 -0.1238  0.3557 -0.1094
 9402TIP3   OH249696   6.181   3.111   5.321 -0.0704 -0.2792  0.3667
 9402TIP3    H149697   6.223   3.030   5.290 -0.9524  0.1124 -2.0264
 9402TIP3    H249698   6.088   3.099   5.302 -0.0771  1.7515 -1.2020
 9403TIP3   OH249699   5.952   2.368  14.082  0.1210  0.1123 -0.0478
 9403TIP3    H149700   5.984   2.443  14.033  0.5880  0.2506  0.4677
 9403TIP3    H249701   6.030   2.326  14.117 -0.1331 -0.6175 -0.3262
 9404TIP3   OH249702   5.747   3.478   2.762  0.5768  0.1207  0.4630
 9404TIP3    H149703   5.771   3.557   2.810  1.9410 -0.5587  0.9385
 9404TIP3    H249704   5.748   3.408   2.827  0.0725 -0.4164 -0.0841
 9405TIP3   OH249705   6.128   6.195   2.674 -0.0783  0.0954 -0.3814
 9405TIP3    H149706   6.146   6.187   2.580 -0.9712 -0.5934 -0.5029
 9405TIP3    H249707   6.074   6.118   2.695 -0.0131  0.3198  0.6661
 9406TIP3   OH249708   4.577   5.883  13.025 -0.5604 -0.5394  0.0104
 9406TIP3    H149709   4.632   5.847  12.956 -1.2840  0.6675 -1.2358
 9406TIP3    H249710   4.525   5.808  13.056  1.7033 -1.7018  1.2292
 9407TIP3   OH249711   1.293   2.996   4.786  0.1435  0.6667  0.4858
 9407TIP3    H149712   1.351   3.071   4.779 -0.4333  0.9824 -1.5552
 9407TIP3    H249713   1.334   2.929   4.730 -0.3524  0.1373  0.7437
 9408TIP3   OH249714   5.643   2.170   2.127  0.1977 -0.7752 -0.0963
 9408TIP3    H149715   5.640   2.260   2.096 -0.1543 -0.3961  1.0005
 9408TIP3    H249716   5.715   2.129   2.077 -0.2627 -0.1738 -1.2971
 9409TIP3   OH249717   2.835   6.781  15.036  0.1050  0.1491 -0.1132
 9409TIP3    H149718   2.839   6.877  15.033  0.5057  0.3269  2.8857
 9409TIP3    H249719   2.744   6.761  15.055  0.2160 -0.0175  0.2407
 9410TIP3   OH249720   3.899   1.530   1.504  0.3104 -0.5974 -0.4480
 9410TIP3    H149721   3.992   1.538   1.482  0.6057 -2.0851  0.1318
 9410TIP3    H249722   3.854   1.534   1.420  0.7647  1.3451 -0.6554
 9411TIP3   OH249723   4.436   5.072   1.774 -0.3234  0.0622 -0.9777
 9411TIP3    H149724   4.451   5.140   1.840  1.6992  0.0149 -1.3194
 9411TIP3    H249725   4.518   5.068   1.725 -0.9715 -1.5291 -2.0074
 9412TIP3   OH249726   6.599   1.753  12.261 -0.4016  0.5311 -0.0576
 9412TIP3    H149727   6.552   1.805  12.195  0.3271  0.1451 -0.9054
 9412TIP3    H249728   6.557   1.667  12.258 -0.1152  0.3973 -0.3085
 9413TIP3   OH249729   0.592   6.765  15.238  0.1422  0.2795  0.1367
 9413TIP3    H149730   0.667   6.805  15.283 -0.6820  0.1112  1.7495
 9413TIP3    H249731   0.533   6.838  15.221 -0.1699  0.1426  0.6220
 9414TIP3   OH249732   4.209   0.934  14.702  0.0705  0.5005  0.2867
 9414TIP3    H149733   4.187   1.011  14.754 -2.8747 -0.1126  0.1406
 9414TIP3    H249734   4.126   0.887  14.692  1.2827 -1.4475 -1.6618
 9415TIP3   OH249735   0.471   1.397   4.060  0.2318 -0.6602  0.3588
 9415TIP3    H149736   0.552   1.443   4.083  0.3678 -0.8973  0.3506
 9415TIP3    H249737   0.462   1.410   3.966 -1.3418  1.9844  0.7778
 9416TIP3   OH249738   0.824   4.572  12.998 -0.2918 -0.5410  0.8709
 9416TIP3    H149739   0.869   4.649  12.965 -0.5958 -1.4241 -1.8952
 9416TIP3    H249740   0.731   4.593  12.990 -0.3700 -0.9225  0.7319
 9417TIP3   OH249741   3.236   4.816   5.275 -0.2193  0.0207  0.4550
 9417TIP3    H149742   3.215   4.864   5.195 -0.0645 -0.2178  0.2695
 9417TIP3    H249743   3.330   4.803   5.271 -0.3382 -0.8423  0.1919
 9418TIP3   OH249744   0.040   3.337   1.358 -0.1417 -0.4136 -0.2101
 9418TIP3    H149745   0.098   3.376   1.293  1.2348 -2.6120 -0.4191
 9418TIP3    H249746   0.099   3.295   1.420 -1.4572 -2.4053 -0.2183
 9419TIP3   OH249747   5.056   6.054  13.536 -0.1895 -0.3731  0.0966
 9419TIP3    H149748   4.970   6.012  13.532  0.1662 -1.0932 -0.1149
 9419TIP3    H249749   5.090   6.048  13.447 -0.6915  1.6004 -0.2807
 9420TIP3   OH249750   2.873   2.056  13.513  0.0620 -0.6215  0.1232
 9420TIP3    H149751   2.963   2.024  13.511  0.3481  0.1417  0.1458
 9420TIP3    H249752   2.876   2.135  13.459 -0.6621 -0.7545 -0.1149
 9421TIP3   OH249753   5.720   4.722   0.462  0.6942  0.6243  0.4948
 9421TIP3    H149754   5.785   4.713   0.532  1.9816 -2.5289 -0.9265
 9421TIP3    H249755   5.771   4.724   0.381 -0.9125 -0.1140 -0.5897
 9422TIP3   OH249756   3.598   3.538  11.287 -0.2344  0.0535  0.0791
 9422TIP3    H149757   3.607   3.585  11.370 -2.2687 -0.8797  0.8850
 9422TIP3    H249758   3.552   3.599  11.229  0.2199  0.2959 -0.0383
 9423TIP3   OH249759   5.722   6.128  12.146  0.0493  0.0886 -0.3756
 9423TIP3    H149760   5.737   6.036  12.166  0.8869 -0.4326 -2.9896
 9423TIP3    H249761   5.806   6.158  12.109 -1.4871  0.4794 -4.0226
 9424TIP3   OH249762   2.342   4.999   2.012  0.4249 -0.4947  0.5650
 9424TIP3    H149763   2.299   4.972   2.093  1.2696 -1.2868  0.7611
 9424TIP3    H249764   2.423   5.042   2.041 -0.1155  0.8021  0.1952
 9425TIP3   OH249765   5.742   6.739   6.251 -0.0545  1.0665 -0.4950
 9425TIP3    H149766   5.656   6.698   6.266  1.0585 -1.4410 -0.5359
 9425TIP3    H249767   5.794   6.713   6.327  1.2762  0.8012 -1.4777
 9426TIP3   OH249768   2.149   0.110   3.415 -0.5121  0.4584 -0.3201
 9426TIP3    H149769   2.210   0.041   3.443 -1.6938 -0.4008  0.1928
 9426TIP3    H249770   2.173   0.126   3.323 -0.2706 -0.6973 -0.4753
 9427TIP3   OH249771   0.454   0.973  13.448 -0.2942 -0.4326 -0.0345
 9427TIP3    H149772   0.437   1.065  13.470  0.4907 -0.5790  1.2955
 9427TIP3    H249773   0.545   0.958  13.476 -0.0649 -1.3401 -1.1862
 9428TIP3   OH249774   5.249   4.716  12.786 -0.1949 -0.3934  0.1445
 9428TIP3    H149775   5.293   4.705  12.870  1.5763  0.4405 -0.6212
 9428TIP3    H249776   5.311   4.767  12.733 -2.1227  0.9257 -0.9816
 9429TIP3   OH249777   0.134   2.955  11.901  0.0003  0.3580  0.0900
 9429TIP3    H149778   0.048   2.935  11.865 -0.2498 -0.4721  1.0938
 9429TIP3    H249779   0.190   2.883  11.872  0.1290  0.4022  0.2275
 9430TIP3   OH249780   2.245   3.510  11.365  0.8468  0.6289 -0.0589
 9430TIP3    H149781   2.332   3.533  11.333  0.7963  0.1019 -0.6188
 9430TIP3    H249782   2.209   3.591  11.400  1.5109  0.8787  0.0572
 9431TIP3   OH249783   5.853   1.718   5.033  0.2344  0.2395 -0.2602
 9431TIP3    H149784   5.785   1.705   5.098  1.4311  0.2539  1.0371
 9431TIP3    H249785   5.878   1.810   5.042  2.1495 -0.3518  1.0862
 9432TIP3   OH249786   4.887   2.158   5.226 -0.2883  0.0769 -0.2523
 9432TIP3    H149787   4.809   2.204   5.195 -1.0997  0.4433  2.1832
 9432TIP3    H249788   4.861   2.066   5.230 -0.0407 -0.0347 -0.9998
 9433TIP3   OH249789   3.932   5.348  12.427 -0.6801 -0.6602  0.3224
 9433TIP3    H149790   3.863   5.318  12.368  0.0279 -1.2677 -0.2224
 9433TIP3    H249791   3.971   5.424  12.382  0.5130 -1.7184 -0.5168
 9434TIP3   OH249792   4.966   5.266   4.303 -0.0048 -0.2815 -0.0612
 9434TIP3    H149793   5.009   5.341   4.264 -1.1796 -0.4524 -1.8100
 9434TIP3    H249794   5.031   5.196   4.300  0.1502 -0.1133 -1.2091
 9435TIP3   OH249795   1.002   4.790  13.006  0.0308 -0.4658  0.3215
 9435TIP3    H149796   1.074   4.753  13.056  2.3456  0.4062 -2.1341
 9435TIP3    H249797   1.011   4.885  13.015 -0.8388 -0.3413  0.0202
 9436TIP3   OH249798   3.515   0.667  12.827  0.1992  0.2833 -0.4368
 9436TIP3    H149799   3.589   0.630  12.779 -0.9069  0.0293 -2.0429
 9436TIP3    H249800   3.511   0.759  12.798  1.8328  1.2786  2.1527
 9437TIP3   OH249801   0.538   2.791  12.707 -0.3052 -0.7348 -0.5872
 9437TIP3    H149802   0.545   2.700  12.734 -0.3858 -1.4101 -2.7026
 9437TIP3    H249803   0.549   2.841  12.789  0.8550 -2.5716  0.4545
 9438TIP3   OH249804   1.757   3.474   5.310 -1.0640 -0.6908  0.0491
 9438TIP3    H149805   1.713   3.560   5.310  0.2655  0.1234  2.9629
 9438TIP3    H249806   1.758   3.449   5.402  1.4631 -2.3168 -0.3449
 9439TIP3   OH249807   1.723   3.502  14.345 -0.6714 -0.2405  0.0898
 9439TIP3    H149808   1.630   3.523  14.338 -0.6374 -0.5270 -1.7889
 9439TIP3    H249809   1.763   3.581  14.382 -1.4298  0.5537 -0.7436
 9440TIP3   OH249810   4.237   0.089   0.730 -0.4954  0.5990  0.2211
 9440TIP3    H149811   4.254   0.172   0.686 -2.3460  1.1337  0.4142
 9440TIP3    H249812   4.295   0.026   0.687  1.7619  2.1616  0.7971
 9441TIP3   OH249813   3.894   2.982  11.536 -0.0556  0.0017 -0.0498
 9441TIP3    H149814   3.855   3.047  11.478  0.0442  1.0394  1.0124
 9441TIP3    H249815   3.984   3.011  11.548  1.1199 -2.2415 -2.3011
 9442TIP3   OH249816   4.601   0.982  15.862 -0.5919  0.2913  0.2090
 9442TIP3    H149817   4.670   0.920  15.840  0.8660  1.5817  0.9465
 9442TIP3    H249818   4.559   0.945  15.940 -0.6316 -0.4209 -0.1466
 9443TIP3   OH249819   3.078   2.871  12.807  0.6237  0.3776 -0.4323
 9443TIP3    H149820   3.032   2.924  12.741 -1.1187 -0.8644 -0.3065
 9443TIP3    H249821   3.083   2.927  12.884  0.7107  1.0802 -0.9378
 9444TIP3   OH249822   6.335   2.435  11.529  0.1710  0.2700  0.0988
 9444TIP3    H149823   6.307   2.345  11.545  1.2263  0.0172  0.6209
 9444TIP3    H249824   6.378   2.432  11.444 -0.4835  0.4611 -0.2515
 9445TIP3   OH249825   4.877   1.406   0.019  0.2013 -0.4776  0.3631
 9445TIP3    H149826   4.883   1.418   0.113 -2.8947 -0.9685  0.7363
 9445TIP3    H249827   4.783   1.406   0.000  0.6777 -0.9787 -2.6538
 9446TIP3   OH249828   2.842   3.491   4.205 -0.3212 -0.0469  0.2334
 9446TIP3    H149829   2.789   3.412   4.215 -0.4105 -0.3238 -1.9246
 9446TIP3    H249830   2.787   3.562   4.239 -0.4356 -0.8186  1.7285
 9447TIP3   OH249831   0.077   1.403   5.641 -0.1532 -0.3838 -0.0750
 9447TIP3    H149832   0.145   1.335   5.637  0.3862  0.0458  1.2437
 9447TIP3    H249833   0.064   1.418   5.735 -1.8316 -0.1974 -0.3045
 9448TIP3   OH249834   6.342   2.274   6.854  0.3010 -0.2093 -0.0923
 9448TIP3    H149835   6.368   2.188   6.887  1.2477 -0.9868 -2.6242
 9448TIP3    H249836   6.417   2.331   6.873  1.3367 -0.9308 -1.7822
 9449TIP3   OH249837   3.771   5.936  13.345  0.2591  0.5952 -0.7385
 9449TIP3    H149838   3.752   5.885  13.424  0.8775  2.4244  0.6891
 9449TIP3    H249839   3.686   5.946  13.302 -0.7485  2.0855  1.3651
 9450TIP3   OH249840   0.046   5.578   0.190  0.1132 -0.1089 -0.1743
 9450TIP3    H149841   0.035   5.582   0.285  0.0150 -0.7334 -0.1516
 9450TIP3    H249842   0.020   5.489   0.167  3.5709 -1.2131 -0.3295
 9451TIP3   OH249843   2.206   2.666  16.349 -0.4658 -0.4805 -0.5579
 9451TIP3    H149844   2.117   2.644  16.323 -0.6462  0.1646 -0.5047
 9451TIP3    H249845   2.244   2.583  16.377 -1.0157 -0.7776 -0.6794
 9452TIP3   OH249846   6.063   0.790  15.869 -0.3610  0.3617 -0.4907
 9452TIP3    H149847   5.975   0.754  15.881 -0.0194 -0.5794 -0.6951
 9452TIP3    H249848   6.088   0.764  15.780 -0.5584  2.1632 -1.1128
 9453TIP3   OH249849   5.158   5.203  12.023  0.2004 -0.1271  0.1643
 9453TIP3    H149850   5.203   5.283  11.995  1.4801 -0.5050  1.0544
 9453TIP3    H249851   5.223   5.134  12.012 -0.3695 -0.7956  0.8904
 9454TIP3   OH249852   6.574   0.405  17.095  0.2759 -0.8151 -0.4960
 9454TIP3    H149853   6.588   0.495  17.123  0.5586 -1.3566  1.2262
 9454TIP3    H249854   6.579   0.354  17.176 -0.2954 -2.3295 -1.3797
 9455TIP3   OH249855   0.217   5.579  11.252  0.1674 -0.0731  0.3382
 9455TIP3    H149856   0.139   5.633  11.265 -0.7051 -1.3190  0.5126
 9455TIP3    H249857   0.290   5.639  11.263 -0.7403  0.8907  1.3973
 9456TIP3   OH249858   2.669   2.421   5.127  0.2163 -0.5612 -0.1199
 9456TIP3    H149859   2.742   2.458   5.078 -0.6514  0.9166 -0.3624
 9456TIP3    H249860   2.690   2.439   5.219  0.0855  0.0585 -0.2022
 9457TIP3   OH249861   2.532   6.471  14.345 -0.2475 -0.3120 -0.0151
 9457TIP3    H149862   2.449   6.423  14.351  0.4665 -1.4005  1.6395
 9457TIP3    H249863   2.506   6.564  14.350 -1.3108 -0.6489  1.1436
 9458TIP3   OH249864   5.719   2.828   1.286 -0.1810 -0.5864 -0.0243
 9458TIP3    H149865   5.679   2.790   1.364 -0.7156 -3.3569 -1.5459
 9458TIP3    H249866   5.790   2.768   1.264 -0.2605 -0.0579 -1.8692
 9459TIP3   OH249867   3.887   0.221   1.180  0.3172  0.7522 -0.1266
 9459TIP3    H149868   3.815   0.202   1.239  0.9061 -1.2571  0.0015
 9459TIP3    H249869   3.961   0.241   1.238  1.2295 -2.4276 -0.0294
 9460TIP3   OH249870   0.564   3.694   5.542 -0.0455 -0.0021  0.4783
 9460TIP3    H149871   0.546   3.601   5.555 -3.0779  0.2800 -0.7043
 9460TIP3    H249872   0.532   3.736   5.623 -1.2554  0.1995 -0.0867
 9461TIP3   OH249873   2.568   4.812   5.919 -0.0932  0.0167  0.0673
 9461TIP3    H149874   2.558   4.907   5.928  0.7479  0.0293  1.1275
 9461TIP3    H249875   2.653   4.793   5.959 -0.3634 -1.2172  0.0998
 9462TIP3   OH249876   3.437   5.561   0.807 -0.2443  0.0752  0.0641
 9462TIP3    H149877   3.419   5.632   0.746 -0.5149 -0.3848 -0.4031
 9462TIP3    H249878   3.478   5.493   0.754  0.8641  0.2344  0.6826
 9463TIP3   OH249879   1.386   5.782  14.978 -0.1045 -0.5634 -0.1930
 9463TIP3    H149880   1.316   5.802  15.040 -2.1109 -0.7927 -2.2494
 9463TIP3    H249881   1.343   5.732  14.908  1.8544  0.3399 -2.1772
 9464TIP3   OH249882   0.406   2.279  14.261  0.3933 -0.5715 -0.1663
 9464TIP3    H149883   0.444   2.357  14.219  0.3994 -1.1851 -1.3478
 9464TIP3    H249884   0.331   2.257  14.205  0.5134 -1.5285  0.0353
 9465TIP3   OH249885   3.793   5.800   4.282  0.0781  0.4156 -0.0530
 9465TIP3    H149886   3.778   5.894   4.296  0.1517  0.3648  0.3734
 9465TIP3    H249887   3.744   5.780   4.203  0.6181  0.9616 -0.5406
 9466TIP3   OH249888   1.017   0.628  16.106  0.4381 -0.1169 -0.0964
 9466TIP3    H149889   1.102   0.671  16.115  0.5601 -0.3670 -0.0442
 9466TIP3    H249890   1.010   0.571  16.183 -0.2355  0.6787  0.4418
 9467TIP3   OH249891   3.065   3.236  15.905  0.2664  0.0285 -0.2271
 9467TIP3    H149892   2.990   3.180  15.885  1.9995 -2.1326 -1.0367
 9467TIP3    H249893   3.040   3.323  15.874 -1.7700 -0.6840 -0.7027
 9468TIP3   OH249894   5.141   2.844  13.446 -0.4186  0.2858 -0.0076
 9468TIP3    H149895   5.171   2.855  13.536 -0.0582  1.2752 -0.2403
 9468TIP3    H249896   5.080   2.771  13.451  1.1463 -1.0468  0.6724
 9469TIP3   OH249897   6.538   4.897   2.924  0.4652 -0.0974  0.0595
 9469TIP3    H149898   6.448   4.874   2.944  0.8903 -1.7190  0.2487
 9469TIP3    H249899   6.591   4.828   2.964  1.6288 -0.7232 -2.3737
 9470TIP3   OH249900   0.123   5.606  12.162  0.1916  0.3239  0.0127
 9470TIP3    H149901   0.096   5.591  12.071  1.9050  0.9493 -0.6394
 9470TIP3    H249902   0.059   5.670  12.194 -1.5121 -1.2084 -0.1286
 9471TIP3   OH249903   4.356   1.840  15.118  0.6068 -0.0072  0.5110
 9471TIP3    H149904   4.310   1.784  15.055 -0.2908  0.6657  0.5464
 9471TIP3    H249905   4.286   1.874  15.174  1.0792  1.4394  0.2549
 9472TIP3   OH249906   5.278   1.618   0.860 -0.1503  0.8248  0.4005
 9472TIP3    H149907   5.308   1.598   0.771 -0.7298 -0.4725  0.4740
 9472TIP3    H249908   5.359   1.622   0.911  0.0490 -3.1146  0.6865
 9473TIP3   OH249909   0.897   2.951  13.427  0.5209 -0.4962 -0.6492
 9473TIP3    H149910   0.879   3.042  13.404 -0.9028 -0.0735  1.7865
 9473TIP3    H249911   0.912   2.953  13.522 -3.2218 -3.2328  0.2028
 9474TIP3   OH249912   0.963   4.180  14.706  0.5809  0.0150 -0.3179
 9474TIP3    H149913   0.912   4.222  14.637 -1.5282  1.4796  1.9230
 9474TIP3    H249914   0.936   4.088  14.703 -0.6521  0.3578 -0.5294
 9475TIP3   OH249915   2.492   5.190   3.037 -0.3590  0.1097  0.0093
 9475TIP3    H149916   2.491   5.211   2.944 -0.2425  0.4885  0.0924
 9475TIP3    H249917   2.556   5.120   3.046 -0.5865 -0.1317 -0.2378
 9476TIP3   OH249918   1.576   5.361  12.314 -0.0050  0.2547  0.4102
 9476TIP3    H149919   1.545   5.281  12.271  0.8333  0.8823 -1.4840
 9476TIP3    H249920   1.544   5.432  12.259  1.3782  1.0880  0.6203
 9477TIP3   OH249921   4.121   4.803   1.306  0.4738 -0.1261  0.2797
 9477TIP3    H149922   4.029   4.811   1.331  0.1705 -0.2455 -0.7568
 9477TIP3    H249923   4.151   4.894   1.297 -0.0043 -0.0837 -0.9902
 9478TIP3   OH249924   5.314   5.346  13.606 -0.2738  0.6964 -0.6296
 9478TIP3    H149925   5.248   5.401  13.650  0.1614  1.0543 -0.4144
 9478TIP3    H249926   5.388   5.346  13.666 -0.6388 -0.9996 -0.1391
 9479TIP3   OH249927   4.498   4.837   2.291  0.2330  0.0211 -0.2611
 9479TIP3    H149928   4.474   4.839   2.384  0.5658 -0.9620 -0.1460
 9479TIP3    H249929   4.414   4.831   2.245  0.0720  0.4508 -0.0333
 9480TIP3   OH249930   2.059   4.791   5.989  0.5237  0.4773  0.5586
 9480TIP3    H149931   2.007   4.758   5.916 -1.2105  2.1083  0.9955
 9480TIP3    H249932   2.101   4.713   6.026 -2.1781 -1.0545  0.6154
 9481TIP3   OH249933   0.604   0.333  13.236 -0.9713  0.2722  0.3629
 9481TIP3    H149934   0.684   0.289  13.267 -2.3899 -2.0313  1.0262
 9481TIP3    H249935   0.634   0.388  13.163  1.1821 -0.6622  0.4543
 9482TIP3   OH249936   2.382   0.963   4.866  0.5248 -0.0737  0.7539
 9482TIP3    H149937   2.379   0.877   4.825 -0.6273 -0.3946  1.4842
 9482TIP3    H249938   2.402   0.945   4.958  3.1762  0.6365  0.4113
 9483TIP3   OH249939   0.300   3.675   2.145  0.0432  0.0368 -0.6445
 9483TIP3    H149940   0.227   3.613   2.150 -1.4513  1.7070 -0.8634
 9483TIP3    H249941   0.267   3.754   2.187  1.4766  1.0780 -1.4091
 9484TIP3   OH249942   0.565   4.872   0.591  0.4203  0.1648 -0.5222
 9484TIP3    H149943   0.478   4.891   0.555  0.1206  2.0242  0.9924
 9484TIP3    H249944   0.559   4.782   0.622 -1.7473  0.8654  1.4224
 9485TIP3   OH249945   6.697   0.564   3.175 -0.9951 -0.7822  0.0599
 9485TIP3    H149946   6.662   0.653   3.173  0.0045 -0.3963 -0.6872
 9485TIP3    H249947   6.710   0.545   3.268  1.4649  0.9517  0.1491
 9486TIP3   OH249948   0.321   1.577  13.246  0.2526  0.2634  0.2106
 9486TIP3    H149949   0.296   1.647  13.186 -1.0550 -0.6729 -0.3791
 9486TIP3    H249950   0.245   1.519  13.249  0.7644 -0.3925  1.7971
 9487TIP3   OH249951   6.787   6.752   5.733 -0.5786  0.4389  0.4856
 9487TIP3    H149952   6.739   6.816   5.785  0.3304  0.4845  1.2879
 9487TIP3    H249953   6.858   6.802   5.693  1.4106 -0.3736  2.7667
 9488TIP3   OH249954   6.634   0.984   5.528 -0.4291 -0.0873  0.0763
 9488TIP3    H149955   6.588   1.045   5.471  1.7258  1.5849  0.0133
 9488TIP3    H249956   6.690   0.933   5.469 -1.5232 -1.5472  0.2395
 9489TIP3   OH249957   6.484   2.756   3.817  0.1801  0.5268 -0.1535
 9489TIP3    H149958   6.416   2.775   3.752  0.8780 -0.4056 -1.1899
 9489TIP3    H249959   6.537   2.688   3.776  2.2853  1.8542  0.2513
 9490TIP3   OH249960   6.136   0.329  11.224  0.8922  0.0201 -0.1444
 9490TIP3    H149961   6.047   0.313  11.256  1.0388  1.5941  1.1627
 9490TIP3    H249962   6.134   0.298  11.133 -0.4632 -1.6118  0.3818
 9491TIP3   OH249963   2.817   3.077   3.205  0.0363 -0.3362  0.4652
 9491TIP3    H149964   2.877   3.151   3.198 -0.7671  0.3103  0.2168
 9491TIP3    H249965   2.808   3.045   3.115  1.1929 -1.4259  0.7021
 9492TIP3   OH249966   6.760   3.755  16.609  0.0536 -0.3525 -0.4458
 9492TIP3    H149967   6.739   3.725  16.697 -0.6190  0.0622 -0.4560
 9492TIP3    H249968   6.855   3.759  16.607  0.0807 -0.5883  0.1883
 9493TIP3   OH249969   3.013   1.387  12.867 -0.0922 -0.7085  0.3169
 9493TIP3    H149970   2.929   1.397  12.910  0.3774 -0.3115  1.1761
 9493TIP3    H249971   3.053   1.474  12.871  0.6400 -1.0472  0.5313
 9494TIP3   OH249972   0.253   4.894   3.060 -0.1836  0.4469 -0.4454
 9494TIP3    H149973   0.345   4.869   3.071  0.5839  3.0024 -0.4734
 9494TIP3    H249974   0.228   4.930   3.145  0.0945  3.2780 -1.4625
 9495TIP3   OH249975   0.846   2.380  15.012  0.2987  0.5378 -0.3084
 9495TIP3    H149976   0.927   2.431  15.015 -0.2631  1.5422 -1.4825
 9495TIP3    H249977   0.777   2.445  14.998 -0.7376 -0.2950  0.7375
 9496TIP3   OH249978   2.231   1.936  16.662  0.3104 -0.7096  0.0215
 9496TIP3    H149979   2.200   1.888  16.738  0.9827 -2.1346 -0.5754
 9496TIP3    H249980   2.151   1.955  16.612  0.1649 -2.9806 -0.7227
 9497TIP3   OH249981   5.675   5.221   3.386  0.3501 -0.4024 -1.1162
 9497TIP3    H149982   5.752   5.278   3.384 -1.0017  1.4582 -1.9412
 9497TIP3    H249983   5.671   5.184   3.298  1.2568 -1.9301 -0.5702
 9498TIP3   OH249984   0.500   5.576   4.643  0.5040 -1.1573 -0.1283
 9498TIP3    H149985   0.558   5.520   4.591  0.5568 -2.3706  1.1869
 9498TIP3    H249986   0.534   5.570   4.732  0.5491  1.0506  0.0561
 9499TIP3   OH249987   6.387   4.275   5.104  0.1755 -0.0373 -0.3437
 9499TIP3    H149988   6.313   4.269   5.044  1.0116 -0.5866 -1.3516
 9499TIP3    H249989   6.357   4.229   5.182 -0.4922 -0.3968 -0.7964
 9500TIP3   OH249990   0.897   5.250   0.040 -0.0746 -0.0427  0.1121
 9500TIP3    H149991   0.971   5.199   0.006  0.3643  0.9440 -0.4328
 9500TIP3    H249992   0.820   5.201   0.012  0.2942  0.3766 -1.7555
 9501TIP3   OH249993   1.874   4.385  15.093 -0.0353 -0.0750  0.5607
 9501TIP3    H149994   1.962   4.355  15.072  0.1912  0.4631  0.7303
 9501TIP3    H249995   1.819   4.346  15.025  0.2434 -0.9038  0.7977
 9502TIP3   OH249996   0.093   4.608   2.986  0.0381 -0.0433 -0.3132
 9502TIP3    H149997   0.098   4.554   3.066 -1.6681 -0.5523 -0.4914
 9502TIP3    H249998   0.149   4.683   3.004 -1.0602  0.3589  1.8018
 9503TIP3   OH249999   1.802   4.955  15.960  0.2680 -0.0535  0.0909
 9503TIP3    H150000   1.790   5.023  15.893  1.0286 -1.0585 -1.0937
 9503TIP3    H250001   1.832   5.003  16.037  0.9212  0.9553 -0.7620
 9504TIP3   OH250002   3.381   3.509  15.732  0.0310  0.3514  0.1031
 9504TIP3    H150003   3.439   3.521  15.657  0.8149 -0.3937  0.5554
 9504TIP3    H250004   3.433   3.539  15.807 -0.6457  0.8563  0.3790
 9505TIP3   OH250005   1.668   1.398   3.991 -0.0598  0.0224 -0.2392
 9505TIP3    H150006   1.659   1.479   3.940  2.2420 -0.4921 -1.6345
 9505TIP3    H250007   1.719   1.340   3.934  0.2253 -1.6248  1.5876
 9506TIP3   OH250008   2.235   6.605  14.114 -0.5647  0.9690 -0.1760
 9506TIP3    H150009   2.210   6.654  14.193  2.2451  1.3463  0.5918
 9506TIP3    H250010   2.229   6.513  14.139 -0.1964  1.0800  0.3388
 9507TIP3   OH250011   2.621   5.385   1.753 -0.1086  0.2521 -0.0670
 9507TIP3    H150012   2.527   5.383   1.769  0.1873 -0.1285  1.8813
 9507TIP3    H250013   2.643   5.295   1.729 -0.1115  0.0858  0.5185
 9508TIP3   OH250014   1.440   1.292  14.932  0.5353 -0.3147  0.8079
 9508TIP3    H150015   1.472   1.217  14.983  1.1921  0.0827  1.0005
 9508TIP3    H250016   1.345   1.290  14.943  0.4882 -1.4273  0.3763
 9509TIP3   OH250017   6.192   5.993   5.842  0.3692 -0.2018 -0.6899
 9509TIP3    H150018   6.138   6.050   5.788 -0.4308  1.2717  1.5378
 9509TIP3    H250019   6.264   6.049   5.872 -1.2039  0.1980  2.7096
 9510TIP3   OH250020   5.397   4.978   4.246 -0.6365  0.7315 -0.2075
 9510TIP3    H150021   5.399   4.896   4.295 -1.2795  0.0444 -1.2986
 9510TIP3    H250022   5.488   5.009   4.248  0.2591 -1.5054 -2.1872
 9511TIP3   OH250023   0.819   4.645   0.732  0.0846  0.6594  0.5955
 9511TIP3    H150024   0.862   4.655   0.646  0.8022 -1.3207  0.6816
 9511TIP3    H250025   0.890   4.617   0.790 -0.9049 -0.6169  1.2231
 9512TIP3   OH250026   2.732   6.126  15.256  0.5443 -0.1108 -0.3061
 9512TIP3    H150027   2.747   6.080  15.173  0.5399 -1.5117  0.4445
 9512TIP3    H250028   2.653   6.085  15.292  2.2409 -1.7757  1.8513
 9513TIP3   OH250029   4.060   3.162   5.840  0.4347 -0.1407 -0.3717
 9513TIP3    H150030   4.073   3.133   5.750 -2.8543 -0.4925 -0.8449
 9513TIP3    H250031   4.054   3.081   5.891 -0.5770 -0.0651 -0.3478
 9514TIP3   OH250032   5.071   5.521  12.284  0.5102 -0.5988  0.0169
 9514TIP3    H150033   5.053   5.516  12.190 -0.2413 -1.1833  0.1874
 9514TIP3    H250034   5.166   5.512  12.291  0.4550 -1.8111 -0.6047
 9515TIP3   OH250035   4.557   6.172   3.755  0.5663 -0.2248 -0.3518
 9515TIP3    H150036   4.525   6.126   3.833  1.3062  1.1231  0.7907
 9515TIP3    H250037   4.495   6.148   3.686  0.0302 -1.6405  0.5905
 9516TIP3   OH250038   4.481   2.162   0.622 -0.2726  0.4224  0.2349
 9516TIP3    H150039   4.568   2.200   0.632 -0.2993  0.8524 -1.0207
 9516TIP3    H250040   4.496   2.079   0.576  0.0171 -2.2880  4.6432
 9517TIP3   OH250041   5.778   6.675   3.088  0.2691  0.2429  0.2391
 9517TIP3    H150042   5.754   6.620   3.013 -3.5867  1.0668  0.6570
 9517TIP3    H250043   5.779   6.764   3.053  1.5070  0.3776  0.5827
 9518TIP3   OH250044   0.026   2.463  12.943 -0.2624 -0.3787  0.0968
 9518TIP3    H150045  -0.028   2.514  13.003 -0.7511  0.0310 -0.6609
 9518TIP3    H250046   0.102   2.436  12.994 -0.5652  0.1361  0.8285
 9519TIP3   OH250047   3.449   4.051   0.620  0.1996 -0.1155  0.5478
 9519TIP3    H150048   3.396   3.975   0.643 -1.2629  0.9762  0.9695
 9519TIP3    H250049   3.509   4.063   0.694 -0.8851  0.2562  1.3934
 9520TIP3   OH250050   1.457   2.419  14.151 -0.5750 -0.0341 -0.0952
 9520TIP3    H150051   1.362   2.410  14.159 -0.3353 -2.7303  0.7178
 9520TIP3    H250052   1.488   2.431  14.241 -0.1640  1.9679 -0.4499
 9521TIP3   OH250053   6.294   0.028  12.656 -0.0141  0.1855 -0.1793
 9521TIP3    H150054   6.311   0.100  12.595  2.2596 -0.5312 -0.4996
 9521TIP3    H250055   6.379   0.009  12.696 -0.8066 -1.4616  0.8632
 9522TIP3   OH250056   1.373   2.637   4.341  0.4337 -0.2677  0.0793
 9522TIP3    H150057   1.303   2.702   4.337  0.1679 -0.5709 -0.2550
 9522TIP3    H250058   1.330   2.557   4.370  0.9445 -0.0558  1.4725
 9523TIP3   OH250059   2.392   2.846  16.312  0.1845  0.2097  0.2292
 9523TIP3    H150060   2.444   2.845  16.392  0.0197 -1.5368  0.3481
 9523TIP3    H250061   2.323   2.782  16.327 -1.7100  2.0568 -0.1497
 9524TIP3   OH250062   3.599   0.926  11.754 -0.3257 -0.2850 -0.2590
 9524TIP3    H150063   3.611   0.958  11.843  1.7583  0.0113 -0.5806
 9524TIP3    H250064   3.521   0.870  11.758 -0.2804 -0.2725  1.7380
 9525TIP3   OH250065   3.208   4.762   0.193  0.0747 -0.2686  0.1193
 9525TIP3    H150066   3.113   4.755   0.203  0.1720 -1.3380  0.4750
 9525TIP3    H250067   3.227   4.717   0.110  0.3765 -1.1232  0.6351
 9526TIP3   OH250068   1.107   6.489   0.813  0.2345  0.6825 -0.2335
 9526TIP3    H150069   1.193   6.521   0.840  0.5385  0.2100 -0.6142
 9526TIP3    H250070   1.119   6.395   0.802 -0.0528  0.7462 -1.2886
 9527TIP3   OH250071   5.600   6.230  16.937  0.2318  0.1490  0.4928
 9527TIP3    H150072   5.521   6.180  16.956  0.0297  0.0868 -0.4470
 9527TIP3    H250073   5.672   6.172  16.965 -0.0513  0.8773  2.8812
 9528TIP3   OH250074   6.597   2.061  13.150  0.3303 -0.0567 -0.2122
 9528TIP3    H150075   6.559   2.141  13.114  1.1225 -0.1942 -1.4380
 9528TIP3    H250076   6.575   1.993  13.086  0.0587 -0.7304  0.5863
 9529TIP3   OH250077   4.124   4.450  15.998  0.2450  0.1899  0.1041
 9529TIP3    H150078   4.183   4.464  16.071  2.3495 -1.5664 -1.1366
 9529TIP3    H250079   4.066   4.379  16.027 -0.0142  0.6061  0.6235
 9530TIP3   OH250080   6.441   4.786   1.038  0.1659  0.2816 -0.0704
 9530TIP3    H150081   6.407   4.848   0.973  0.3974 -0.0324 -0.4909
 9530TIP3    H250082   6.508   4.836   1.084  0.5146  0.2728 -0.5645
 9531TIP3   OH250083   1.309   2.404  13.076  0.7302 -0.3209 -0.0168
 9531TIP3    H150084   1.315   2.310  13.094  1.5515 -0.2374  0.1869
 9531TIP3    H250085   1.250   2.438  13.143  1.8804 -0.4082  1.0974
 9532TIP3   OH250086   2.519   1.776  14.468 -0.3853 -0.6367  0.4538
 9532TIP3    H150087   2.551   1.697  14.424 -1.0478 -0.9375  0.4952
 9532TIP3    H250088   2.459   1.744  14.535 -0.2389 -0.1213  0.8369
 9533TIP3   OH250089   1.960   1.954  16.814  0.6696 -0.1153  0.3559
 9533TIP3    H150090   2.056   1.957  16.818  0.7275  0.1907 -0.8370
 9533TIP3    H250091   1.931   2.007  16.889  1.4955  3.1812 -1.4692
 9534TIP3   OH250092   5.313   5.289  16.603  0.4427 -0.2481 -0.0056
 9534TIP3    H150093   5.288   5.369  16.557 -0.6260 -1.4953 -1.6914
 9534TIP3    H250094   5.397   5.264  16.564  0.2521 -0.5125 -0.2522
 9535TIP3   OH250095   4.863   5.386   3.100 -0.7647 -0.4186 -0.0692
 9535TIP3    H150096   4.950   5.361   3.069  0.7851 -0.8062  4.0298
 9535TIP3    H250097   4.817   5.303   3.110 -0.6851 -0.4229  0.2435
 9536TIP3   OH250098   0.149   1.736   0.221  0.2041 -0.1833 -0.4031
 9536TIP3    H150099   0.190   1.688   0.149 -0.4662 -1.4521  0.0507
 9536TIP3    H250100   0.223   1.771   0.272  0.7504 -2.0859  0.1700
 9537TIP3   OH250101   4.064   6.320   2.874 -0.3801 -0.0587 -0.4428
 9537TIP3    H150102   4.112   6.281   2.801 -1.8467 -5.2423  0.9125
 9537TIP3    H250103   4.125   6.318   2.947 -0.0973  1.5890 -0.5935
 9538TIP3   OH250104   5.357   2.798  11.910  0.3541  0.3728  0.2752
 9538TIP3    H150105   5.362   2.797  11.814 -2.4965  1.6170  0.0090
 9538TIP3    H250106   5.341   2.889  11.933 -2.3749 -0.3353  1.6027
 9539TIP3   OH250107   2.619   4.514   5.148 -0.4708 -0.0680 -0.2415
 9539TIP3    H150108   2.532   4.552   5.149 -0.5491 -0.1921 -1.1090
 9539TIP3    H250109   2.605   4.421   5.163 -0.5019 -0.1047 -0.4916
 9540TIP3   OH250110   3.624   5.820  17.208 -0.2654  0.5510  0.1932
 9540TIP3    H150111   3.561   5.799  17.139  0.6283 -1.9595  0.0046
 9540TIP3    H250112   3.664   5.902  17.181  0.0343 -0.3327 -2.3066
 9541TIP3   OH250113   1.924   0.224  14.703 -0.2751  0.1144 -0.4868
 9541TIP3    H150114   2.002   0.250  14.655 -1.0111 -0.2126 -1.9197
 9541TIP3    H250115   1.857   0.212  14.635 -2.2644  2.6394  0.8273
 9542TIP3   OH250116   1.918   4.491  16.561 -0.0753 -0.1398  0.0532
 9542TIP3    H150117   2.008   4.469  16.583 -0.0801  0.1516  0.3708
 9542TIP3    H250118   1.870   4.478  16.643 -0.0911  0.9787  0.2287
 9543TIP3   OH250119   2.441   2.873  12.474  0.1137  0.3486  0.0197
 9543TIP3    H150120   2.367   2.815  12.489  0.2217  0.2835  0.2985
 9543TIP3    H250121   2.491   2.830  12.405  0.3408 -0.0317  0.4136
 9544TIP3   OH250122   6.816   0.265   4.142  0.4875  0.3774  0.5409
 9544TIP3    H150123   6.887   0.201   4.147  0.5590  0.5197  1.9873
 9544TIP3    H250124   6.740   0.214   4.115  0.6491 -0.2429  1.2107
 9545TIP3   OH250125   4.102   5.310  11.770  0.7220  0.2822  0.0084
 9545TIP3    H150126   4.014   5.271  11.767 -0.1740  2.1500  0.3009
 9545TIP3    H250127   4.115   5.334  11.862  1.1472  0.8190 -0.1827
 9546TIP3   OH250128   5.763   2.476   2.669 -0.5581 -0.1011  0.0674
 9546TIP3    H150129   5.740   2.388   2.640 -2.7511 -0.5010  2.6312
 9546TIP3    H250130   5.773   2.526   2.588 -0.3393 -2.4239 -1.4179
 9547TIP3   OH250131   3.443   5.330   5.278 -0.1279 -0.0061  0.6472
 9547TIP3    H150132   3.381   5.403   5.277 -0.1446 -0.0314 -0.1555
 9547TIP3    H250133   3.391   5.255   5.248 -0.4692 -0.6561  2.6773
 9548TIP3   OH250134   5.285   1.343   3.963  0.2551  0.1442  0.0897
 9548TIP3    H150135   5.379   1.329   3.978  0.2234 -0.7971 -0.4851
 9548TIP3    H250136   5.242   1.282   4.023 -0.0185  1.1028  0.8901
 9549TIP3   OH250137   5.631   0.113   6.610 -0.4221 -0.3704 -0.3225
 9549TIP3    H150138   5.684   0.191   6.595 -2.0856  1.1136  1.1507
 9549TIP3    H250139   5.541   0.142   6.597 -1.0680 -2.1335 -0.0151
 9550TIP3   OH250140   5.139   5.790   3.116 -0.4834  0.0209  0.2022
 9550TIP3    H150141   5.143   5.869   3.062  1.9901 -1.3104 -1.7879
 9550TIP3    H250142   5.054   5.752   3.096 -1.0801  1.3797  0.0281
 9551TIP3   OH250143   2.301   3.099  15.872  0.1089  0.9032 -0.9909
 9551TIP3    H150144   2.297   3.026  15.934 -2.2064  0.4730 -1.5451
 9551TIP3    H250145   2.275   3.175  15.924  2.6499  1.4669 -0.3804
 9552TIP3   OH250146   6.599   1.903  13.415  0.4582 -0.6193  0.0074
 9552TIP3    H150147   6.688   1.868  13.408  1.0059  0.4794  1.1579
 9552TIP3    H250148   6.589   1.956  13.336  1.8297  1.3539  1.0761
 9553TIP3   OH250149   3.403   4.082  13.848 -0.1533 -0.1409 -0.4677
 9553TIP3    H150150   3.332   4.054  13.790 -0.7977  0.0768  0.1976
 9553TIP3    H250151   3.477   4.026  13.824  0.5449  1.7732 -3.4566
 9554TIP3   OH250152   2.637   1.093  17.077 -0.3663 -0.4519  0.1406
 9554TIP3    H150153   2.647   1.004  17.112  0.2477 -0.0863  0.8942
 9554TIP3    H250154   2.706   1.144  17.118 -1.1583  0.5559  0.2638
 9555TIP3   OH250155   3.601   3.810  14.389  0.1878  0.6295  0.0594
 9555TIP3    H150156   3.689   3.844  14.377 -0.1189  1.4135 -0.0407
 9555TIP3    H250157   3.612   3.731  14.442  1.2063 -0.7119 -2.0165
 9556TIP3   OH250158   5.472   1.705   1.034 -0.1804 -0.3125  0.4321
 9556TIP3    H150159   5.558   1.676   1.002 -0.9184 -1.9263 -0.1734
 9556TIP3    H250160   5.491   1.785   1.082  1.5789 -0.2493 -0.2755
 9557TIP3   OH250161   1.438   1.317  16.841 -0.3181  0.8604 -0.0506
 9557TIP3    H150162   1.395   1.271  16.913 -1.5097  1.0097 -0.6503
 9557TIP3    H250163   1.519   1.267  16.826  0.3779  1.3129  1.9138
 9558TIP3   OH250164   5.962   3.033   0.711  0.5032  0.0521 -0.3398
 9558TIP3    H150165   5.988   2.953   0.664  1.1535 -0.2484  0.4970
 9558TIP3    H250166   5.886   3.006   0.763 -0.7354  0.5976 -1.8054
 9559TIP3   OH250167   5.731   2.958   2.730 -0.1771 -0.3709 -0.8532
 9559TIP3    H150168   5.756   2.927   2.643 -0.3613  0.0653 -1.0648
 9559TIP3    H250169   5.695   3.045   2.715 -0.5449 -0.4385 -0.3796
 9560TIP3   OH250170   1.301   2.329   3.740  0.2542  0.2851 -0.3387
 9560TIP3    H150171   1.352   2.409   3.733 -0.4964  0.6455 -2.4472
 9560TIP3    H250172   1.222   2.355   3.787  0.2501  0.6736 -0.5567
 9561TIP3   OH250173   6.821   5.449  12.523 -0.2579 -0.3268  0.2717
 9561TIP3    H150174   6.834   5.490  12.608  0.2946 -0.9226  0.4806
 9561TIP3    H250175   6.899   5.473  12.473 -1.0093  0.8024 -0.3949
 9562TIP3   OH250176   0.745   3.310  14.991  0.1761  0.3597 -0.1020
 9562TIP3    H150177   0.816   3.362  15.029 -0.1987  0.2263  0.7849
 9562TIP3    H250178   0.681   3.375  14.963 -0.5612  0.3823  1.5441
 9563TIP3   OH250179   3.203   3.991  12.412 -0.3283 -0.3053 -0.3628
 9563TIP3    H150180   3.245   4.075  12.397 -0.2098 -0.1805  0.5995
 9563TIP3    H250181   3.273   3.935  12.447 -0.3665 -0.8595 -1.1242
 9564TIP3   OH250182   3.902   2.579  13.596 -0.5102  0.0078  0.2705
 9564TIP3    H150183   3.897   2.561  13.502 -1.4884 -0.7967  0.4678
 9564TIP3    H250184   3.984   2.538  13.623  0.4526  1.3441 -0.4367
 9565TIP3   OH250185   0.420   2.024  14.569  0.2881 -0.3358  0.1595
 9565TIP3    H150186   0.350   2.087  14.586  1.3165  1.0155 -0.3279
 9565TIP3    H250187   0.411   1.958  14.637 -2.0983 -0.8047 -0.5490
 9566TIP3   OH250188   1.486   3.479   4.804 -0.5008  0.0942 -0.3824
 9566TIP3    H150189   1.577   3.490   4.779 -0.5356  2.1143  0.1905
 9566TIP3    H250190   1.474   3.537   4.879 -1.8335 -1.4595  0.6943
 9567TIP3   OH250191   1.144   0.453  12.298 -0.0605 -0.7459 -0.0897
 9567TIP3    H150192   1.144   0.541  12.260  1.4315 -0.4440  0.5629
 9567TIP3    H250193   1.131   0.395  12.223  0.2467 -0.0320 -0.7052
 9568TIP3   OH250194   4.841   2.692   3.879 -0.0772  0.2818  0.0025
 9568TIP3    H150195   4.788   2.612   3.881  1.6433 -1.0543 -2.2101
 9568TIP3    H250196   4.845   2.715   3.786 -0.4859  2.9704  0.5798
 9569TIP3   OH250197   2.059   5.523  13.951 -0.0457  0.0681 -0.4307
 9569TIP3    H150198   2.097   5.486  14.030 -0.5788 -0.5165 -0.4348
 9569TIP3    H250199   1.970   5.487  13.948 -0.5345  1.2293 -0.5236
 9570TIP3   OH250200   6.673   4.295   4.057  0.2453  0.4582  0.6302
 9570TIP3    H150201   6.696   4.370   4.002  0.0872  0.3551  0.4189
 9570TIP3    H250202   6.747   4.235   4.050 -0.6676 -0.5738 -1.2830
 9571TIP3   OH250203   3.516   1.291   2.311 -0.0299  0.1701  0.0784
 9571TIP3    H150204   3.441   1.350   2.312  0.6922  1.1364 -0.9444
 9571TIP3    H250205   3.548   1.291   2.401 -1.8345 -1.0501  0.7640
 9572TIP3   OH250206   5.194   6.163  13.028 -0.2453  0.4048  0.6336
 9572TIP3    H150207   5.132   6.116  12.972 -2.8117  2.2888  1.6905
 9572TIP3    H250208   5.281   6.135  12.997 -1.5649 -1.0684 -2.0744
 9573TIP3   OH250209   6.605   2.672  13.759  0.2513 -0.1672  0.0424
 9573TIP3    H150210   6.693   2.707  13.776  0.4622 -0.7275  0.1475
 9573TIP3    H250211   6.585   2.700  13.670  2.1940 -3.2363 -1.5644
 9574TIP3   OH250212   6.536   3.372   4.947 -0.0948 -0.3611  0.3977
 9574TIP3    H150213   6.491   3.433   4.888 -0.3823 -1.9043 -1.0530
 9574TIP3    H250214   6.629   3.390   4.933 -0.1501 -0.9030 -0.7729
 9575TIP3   OH250215   2.446   1.754   0.622 -0.4495  0.0166  0.4213
 9575TIP3    H150216   2.490   1.718   0.545 -0.3478 -0.5027  0.7179
 9575TIP3    H250217   2.499   1.723   0.696 -0.4864  0.5997  0.6942
 9576TIP3   OH250218   1.009   1.570   4.556  0.3159  0.1616  0.0758
 9576TIP3    H150219   1.049   1.485   4.574 -1.2147 -0.5807  0.1194
 9576TIP3    H250220   1.010   1.615   4.640  1.5021  0.3825 -0.0313
 9577TIP3   OH250221   3.960   5.332  16.860  0.2369  0.1128 -0.0028
 9577TIP3    H150222   3.996   5.419  16.843  1.1733  0.2128  2.1318
 9577TIP3    H250223   3.866   5.345  16.864  0.3704  1.0548  0.3540
 9578TIP3   OH250224   3.782   5.952  11.474 -0.3083  0.6560  0.3673
 9578TIP3    H150225   3.834   5.878  11.504 -0.5841  0.5462  0.5761
 9578TIP3    H250226   3.844   6.025  11.471 -0.2535  0.6462  1.1055
 9579TIP3   OH250227   0.638   5.900  15.168 -0.2224  0.2689  0.3460
 9579TIP3    H150228   0.601   5.816  15.195 -0.3142 -0.8892 -2.9346
 9579TIP3    H250229   0.733   5.888  15.174 -0.2373  0.6485  1.6766
 9580TIP3   OH250230   5.884   1.961  11.726  0.2239 -0.0055  0.4022
 9580TIP3    H150231   5.901   1.885  11.782 -1.0687 -0.4372  0.2319
 9580TIP3    H250232   5.847   1.924  11.646 -0.5776  0.8109  0.3796
 9581TIP3   OH250233   4.247   0.839   0.346  0.4782  0.2698  0.3108
 9581TIP3    H150234   4.234   0.794   0.263  2.4190  0.3248 -0.0506
 9581TIP3    H250235   4.161   0.877   0.366 -0.8251 -2.2070 -0.1657
 9582TIP3   OH250236   1.166   4.887   3.787  0.0830 -0.1634  0.0471
 9582TIP3    H150237   1.110   4.938   3.846  0.2741  1.1130 -0.8302
 9582TIP3    H250238   1.105   4.836   3.733 -0.4242  2.2159 -1.8285
 9583TIP3   OH250239   5.168   2.507   1.712  0.2544  0.1735  0.2552
 9583TIP3    H150240   5.239   2.543   1.659  0.8715  0.6412  1.3701
 9583TIP3    H250241   5.119   2.452   1.651  0.9642  0.6515 -0.7882
 9584TIP3   OH250242   0.400   0.092  12.829  0.4756 -0.1883  0.1490
 9584TIP3    H150243   0.351   0.017  12.796 -2.3574  1.5261  0.1839
 9584TIP3    H250244   0.398   0.083  12.924 -0.2696  0.1728  0.1685
 9585TIP3   OH250245   0.927   1.146   4.620 -0.0666 -0.0677 -0.0911
 9585TIP3    H150246   0.985   1.208   4.576 -1.1462  0.6151 -0.6104
 9585TIP3    H250247   0.981   1.069   4.637  1.4395  1.1594  0.9438
 9586TIP3   OH250248   2.398   5.182  17.110  0.1227 -0.5130 -0.6162
 9586TIP3    H150249   2.436   5.122  17.047  0.8037 -0.4137 -0.3031
 9586TIP3    H250250   2.430   5.268  17.084  0.8719 -0.5331  0.1906
 9587TIP3   OH250251   6.650   5.854  13.308  0.1754  0.0348 -0.5549
 9587TIP3    H150252   6.680   5.935  13.267  1.6136  0.1048  0.5219
 9587TIP3    H250253   6.598   5.882  13.383  0.2294 -0.0438 -0.4873
 9588TIP3   OH250254   6.146   2.569   0.027 -0.4952 -0.4006  0.6629
 9588TIP3    H150255   6.067   2.578   0.080 -0.4436 -0.5256  0.7605
 9588TIP3    H250256   6.132   2.628  -0.047 -0.5914 -0.2645  0.7872
 9589TIP3   OH250257   2.436   6.720  14.414  0.2787  0.6452 -0.2021
 9589TIP3    H150258   2.486   6.759  14.486  0.9322  0.3355 -0.4896
 9589TIP3    H250259   2.349   6.761  14.422  0.8943  2.0780 -0.4156
 9590TIP3   OH250260   5.999   6.196  12.070 -0.6926  0.7130 -0.5012
 9590TIP3    H150261   6.093   6.214  12.060 -0.2171 -0.1698  1.6983
 9590TIP3    H250262   5.963   6.278  12.106 -0.6166  0.8202 -0.6696
 9591TIP3   OH250263   5.064   2.870   1.251 -0.0279  0.1697 -0.4701
 9591TIP3    H150264   5.035   2.786   1.285 -1.0262  0.6209 -0.1750
 9591TIP3    H250265   5.058   2.862   1.156 -2.0666  0.5516 -0.4062
 9592TIP3   OH250266   5.248   3.225  15.331  0.0030 -0.3862 -0.3067
 9592TIP3    H150267   5.229   3.259  15.418 -0.4240  1.5958 -1.1141
 9592TIP3    H250268   5.168   3.180  15.305 -0.4026  0.2683 -0.2205
 9593TIP3   OH250269   4.337   5.916  13.196  0.0086 -0.4019 -0.3496
 9593TIP3    H150270   4.305   5.916  13.287 -0.1249 -1.0860 -0.3881
 9593TIP3    H250271   4.425   5.953  13.202  0.4689 -1.5421  0.2440
 9594TIP3   OH250272   1.572   6.234  13.614  0.1480  0.6310  0.2375
 9594TIP3    H150273   1.518   6.261  13.540 -0.9178  0.5333  0.9559
 9594TIP3    H250274   1.591   6.141  13.598  2.4622  1.2882 -1.4061
 9595TIP3   OH250275   4.697   5.765   5.517 -0.2129 -0.1377  0.5073
 9595TIP3    H150276   4.694   5.715   5.435  0.1636 -0.4821  0.6988
 9595TIP3    H250277   4.791   5.775   5.535 -0.2323  1.6651 -0.1420
 9596TIP3   OH250278   4.794   4.815   5.554  0.6778 -0.1420 -0.1499
 9596TIP3    H150279   4.784   4.751   5.625 -1.6307 -0.3398 -0.5722
 9596TIP3    H250280   4.789   4.762   5.474  1.2562  0.2994 -0.4784
 9597TIP3   OH250281   3.613   3.509  11.939  0.2234 -0.7480 -0.0310
 9597TIP3    H150282   3.550   3.505  11.867  0.7976 -1.1010 -0.5270
 9597TIP3    H250283   3.670   3.582  11.918 -2.1864  2.0839  2.2936
 9598TIP3   OH250284   2.345   6.526   6.162  0.1250  0.1037  0.0544
 9598TIP3    H150285   2.370   6.460   6.227 -1.4084 -1.4839 -0.8734
 9598TIP3    H250286   2.341   6.479   6.079 -0.5317  1.4703 -0.7339
 9599TIP3   OH250287   5.703   3.807  13.904  0.4317  0.0144 -0.6587
 9599TIP3    H150288   5.711   3.712  13.894  0.5825 -0.0052 -0.3727
 9599TIP3    H250289   5.787   3.834  13.944  0.5633  0.3229 -1.1328
 9600TIP3   OH250290   5.425   0.834  13.929  0.1456  0.6725  0.3406
 9600TIP3    H150291   5.381   0.749  13.934  0.6281  0.3659 -0.4668
 9600TIP3    H250292   5.432   0.852  13.836 -0.3993  1.8442  0.5107
 9601TIP3   OH250293   4.957   6.179   1.752  0.6913 -0.5343 -0.2340
 9601TIP3    H150294   5.029   6.189   1.814  0.2856  1.0126  0.0410
 9601TIP3    H250295   4.968   6.092   1.715  1.9393 -0.8185  0.7566
 9602TIP3   OH250296   2.965   3.143  15.336 -0.4368  0.2360  0.5307
 9602TIP3    H150297   3.015   3.066  15.364  1.7618  1.3800  0.0072
 9602TIP3    H250298   2.948   3.192  15.416 -0.0958  0.1783  0.6396
 9603TIP3   OH250299   1.717   0.925   2.276 -0.0886 -0.1634 -0.1746
 9603TIP3    H150300   1.737   0.946   2.185 -0.5541 -0.6956 -0.4046
 9603TIP3    H250301   1.801   0.898   2.313 -0.0703 -0.8537 -0.7031
 9604TIP3   OH250302   0.348   5.155   0.043  0.0518 -0.2343 -0.3396
 9604TIP3    H150303   0.344   5.066   0.009  0.3624  0.0065 -1.0119
 9604TIP3    H250304   0.261   5.191   0.026 -0.3496 -0.6675  0.6836
 9605TIP3   OH250305   1.992   0.022  15.465  0.8255  0.2759 -0.1685
 9605TIP3    H150306   2.035   0.086  15.524 -0.4110  1.8058 -0.8653
 9605TIP3    H250307   1.974  -0.053  15.522  0.8721  1.1731  1.0929
 9606TIP3   OH250308   2.434   5.624  14.266  0.2706  0.3255  0.4721
 9606TIP3    H150309   2.462   5.533  14.255 -0.0463  0.2256  0.4720
 9606TIP3    H250310   2.476   5.652  14.347  0.4226  0.1987  0.4373
 9607TIP3   OH250311   1.662   1.194  13.833  0.3179  0.5841  0.2358
 9607TIP3    H150312   1.730   1.214  13.769  0.9423  2.1024  1.3028
 9607TIP3    H250313   1.704   1.131  13.892  0.2051  0.2147 -0.0761
 9608TIP3   OH250314   5.093   4.550   1.458 -0.2351 -0.0471 -0.4773
 9608TIP3    H150315   5.014   4.523   1.505 -0.4018 -0.2009 -0.8443
 9608TIP3    H250316   5.114   4.637   1.494 -0.6047  0.0195 -0.4204
 9609TIP3   OH250317   6.060   0.225  15.086 -0.3459 -0.3737 -0.0188
 9609TIP3    H150318   5.977   0.263  15.057 -0.2743  0.6565  1.0780
 9609TIP3    H250319   6.056   0.134  15.056 -3.0264 -1.1125  2.1706
 9610TIP3   OH250320   6.040   3.759   5.253  0.0053  0.0005  0.4431
 9610TIP3    H150321   6.047   3.675   5.298  0.1759  0.4726  1.3471
 9610TIP3    H250322   5.947   3.783   5.260 -0.0661 -0.1703  0.0779
 9611TIP3   OH250323   1.746   6.301   4.209 -0.0496 -0.8532 -0.1160
 9611TIP3    H150324   1.657   6.336   4.214  1.2859  3.1360 -0.3108
 9611TIP3    H250325   1.761   6.286   4.115  0.5249  2.0752 -0.5968
 9612TIP3   OH250326   2.380   1.864   0.015 -0.2531 -0.4590 -0.6533
 9612TIP3    H150327   2.439   1.892   0.084  0.7999  0.2102 -1.7757
 9612TIP3    H250328   2.435   1.810  -0.043 -0.8368 -0.1593 -1.5022
 9613TIP3   OH250329   2.237   5.502   4.557  0.4097  0.1211  0.6887
 9613TIP3    H150330   2.246   5.476   4.465  2.2991  1.2075  0.5157
 9613TIP3    H250331   2.148   5.536   4.562  0.1602 -0.2395 -0.6684
 9614TIP3   OH250332   1.807   3.046   0.477  0.3793  0.6336 -0.2865
 9614TIP3    H150333   1.825   3.138   0.462 -1.1609  0.5913 -2.8754
 9614TIP3    H250334   1.814   3.005   0.391  0.1898 -1.5314  0.6505
 9615TIP3   OH250335   1.656   1.341  16.129 -0.7058  0.3424  0.4209
 9615TIP3    H150336   1.718   1.279  16.089  0.6741  1.9698 -0.0855
 9615TIP3    H250337   1.615   1.291  16.199  0.3950 -1.1375  0.0733
 9616TIP3   OH250338   0.870   5.115  14.771 -0.6232 -0.1133 -0.0559
 9616TIP3    H150339   0.849   5.191  14.717 -1.1013 -0.0196  0.2544
 9616TIP3    H250340   0.901   5.049  14.708  0.1927  0.4733 -0.2773
 9617TIP3   OH250341   5.520   5.891  11.499 -0.1813  0.0538 -0.0128
 9617TIP3    H150342   5.584   5.947  11.453  0.9795 -1.3143 -0.1366
 9617TIP3    H250343   5.477   5.842  11.429 -1.3073  0.8815  0.0829
 9618TIP3   OH250344   4.161   0.174   3.701  0.0310 -0.1873  0.2848
 9618TIP3    H150345   4.119   0.253   3.666 -0.4566 -0.0846  1.0527
 9618TIP3    H250346   4.217   0.206   3.771 -2.1763 -0.6787  2.4401
 9619TIP3   OH250347   4.035   1.952  10.477 -0.7466 -0.7069 -0.5574
 9619TIP3    H150348   3.982   1.968  10.399  0.9391 -0.7891 -1.7815
 9619TIP3    H250349   4.014   1.862  10.502 -0.0960 -1.2810 -1.9494
 9620TIP3   OH250350   0.437   2.285   0.370  0.1593 -0.4806  0.3386
 9620TIP3    H150351   0.439   2.319   0.280  0.9633  0.4188  0.6904
 9620TIP3    H250352   0.358   2.323   0.408  0.1103 -0.4301  0.1869
 9621TIP3   OH250353   3.334   5.718  13.825  0.0052  0.2117 -0.1940
 9621TIP3    H150354   3.280   5.795  13.842 -0.9100 -0.5513  0.5149
 9621TIP3    H250355   3.343   5.715  13.730 -0.7968  0.6261 -0.2884
 9622TIP3   OH250356   4.886   0.552   2.140  0.2396 -0.3075  0.0018
 9622TIP3    H150357   4.805   0.595   2.113 -0.2369 -1.5093 -0.5404
 9622TIP3    H250358   4.873   0.459   2.119  2.2273 -0.3629 -1.2792
 9623TIP3   OH250359   2.544   3.371  15.055  0.6251 -0.9299 -0.6782
 9623TIP3    H150360   2.593   3.430  15.114  0.4747 -1.7663  0.3082
 9623TIP3    H250361   2.612   3.329  15.002  0.9412 -1.6509  0.2838
 9624TIP3   OH250362   5.553   6.175   3.978  0.1596 -0.3136  0.2717
 9624TIP3    H150363   5.480   6.144   3.924 -0.3817 -0.2868  0.9749
 9624TIP3    H250364   5.563   6.267   3.953 -0.6729 -0.0572  0.8380
 9625TIP3   OH250365   4.257   3.305  12.279 -0.0937 -1.1673  0.9858
 9625TIP3    H150366   4.314   3.229  12.280  1.3998 -0.1663 -0.8953
 9625TIP3    H250367   4.203   3.294  12.200  1.1169  0.3309 -0.1038
 9626TIP3   OH250368   5.943   4.717   5.354  0.3901  0.0106  0.2162
 9626TIP3    H150369   5.864   4.759   5.388 -0.9596 -0.7869 -1.7341
 9626TIP3    H250370   5.959   4.644   5.414 -0.5703 -0.0146  0.4603
 9627TIP3   OH250371   2.847   0.540   3.078 -0.7707  0.2773  0.7113
 9627TIP3    H150372   2.920   0.568   3.133  0.5650 -1.4105 -0.0985
 9627TIP3    H250373   2.824   0.453   3.111 -0.6399 -0.3249 -0.7168
 9628TIP3   OH250374   0.067   4.720  11.312 -0.3478 -0.0789 -0.3189
 9628TIP3    H150375  -0.019   4.714  11.270 -0.2141 -0.6574 -0.5064
 9628TIP3    H250376   0.106   4.634  11.302 -0.5695 -0.4497  1.5372
 9629TIP3   OH250377   3.095   1.590  13.490  0.0655 -0.2130 -0.0603
 9629TIP3    H150378   3.110   1.659  13.555  0.1846 -0.2758 -0.0204
 9629TIP3    H250379   3.045   1.633  13.421  3.3576  1.0170 -1.9356
 9630TIP3   OH250380   3.414   3.398   3.599  0.5146  0.4387  0.7702
 9630TIP3    H150381   3.461   3.469   3.643  0.5672  1.4002 -0.7602
 9630TIP3    H250382   3.481   3.335   3.574  0.7180  0.7956  0.4218
 9631TIP3   OH250383   5.954   5.909  16.504 -0.4855 -0.5692 -0.1306
 9631TIP3    H150384   5.906   5.955  16.573  0.0612  2.1812 -1.4667
 9631TIP3    H250385   5.885   5.872  16.449 -0.9939 -0.0368  0.1299
 9632TIP3   OH250386   6.015   6.191   6.064 -0.1232 -0.1406  0.1205
 9632TIP3    H150387   6.033   6.176   5.972 -2.1503 -2.3837  0.0033
 9632TIP3    H250388   6.099   6.219   6.101  0.3536  2.6196 -2.6439
 9633TIP3   OH250389   3.907   1.898   4.561 -0.3146  0.1406  0.3261
 9633TIP3    H150390   3.989   1.856   4.589 -0.2856  0.2238  0.3659
 9633TIP3    H250391   3.910   1.985   4.601 -0.6821 -0.0539  0.7860
 9634TIP3   OH250392   3.568   1.804   1.617 -0.1918 -0.1056  0.1811
 9634TIP3    H150393   3.516   1.727   1.597  0.9733 -0.9580  0.3267
 9634TIP3    H250394   3.509   1.861   1.666 -0.8921 -1.1631  0.5961
 9635TIP3   OH250395   4.626   6.010  13.354  0.1457  0.1737 -0.1847
 9635TIP3    H150396   4.624   6.103  13.329 -0.8951 -0.0530 -0.9955
 9635TIP3    H250397   4.543   5.995  13.399 -0.5525 -0.7834 -1.7085
 9636TIP3   OH250398   4.082   0.497  15.977 -0.4231 -0.3642  0.1747
 9636TIP3    H150399   4.021   0.571  15.984  0.1156  0.0212  1.0451
 9636TIP3    H250400   4.084   0.459  16.065  0.0171 -0.8411 -0.0343
 9637TIP3   OH250401   3.968   3.948   3.335 -0.0577 -0.0884 -0.9520
 9637TIP3    H150402   3.906   3.986   3.274 -2.0111 -2.9856 -0.9321
 9637TIP3    H250403   3.914   3.910   3.405  1.8769 -0.5967  0.3698
 9638TIP3   OH250404   1.747   2.838   4.938  0.5399 -0.4558  0.2737
 9638TIP3    H150405   1.676   2.782   4.907  1.7581 -1.0151 -1.6633
 9638TIP3    H250406   1.724   2.858   5.028 -1.5728 -1.4149  0.0036
 9639TIP3   OH250407   5.518   1.253  14.001  0.2629  0.2888  0.4382
 9639TIP3    H150408   5.580   1.286  14.065  0.4184  0.2597  0.3019
 9639TIP3    H250409   5.482   1.173  14.040  1.8619 -0.8900 -0.3761
 9640TIP3   OH250410   1.318   3.919   0.591 -0.7135  0.0821 -0.0250
 9640TIP3    H150411   1.381   3.988   0.573 -3.1921  2.8792  1.1253
 9640TIP3    H250412   1.350   3.877   0.670  0.7991 -0.0384 -0.6802
 9641TIP3   OH250413   4.945   4.475   2.622 -0.0343  0.1531  0.4607
 9641TIP3    H150414   5.031   4.436   2.640  0.1458  0.4759  0.3078
 9641TIP3    H250415   4.928   4.455   2.531 -0.6997 -1.0058  0.8262
 9642TIP3   OH250416   1.662   5.045  13.752 -0.8698 -0.3069 -0.3654
 9642TIP3    H150417   1.662   5.140  13.744 -0.7605 -0.2599  0.1275
 9642TIP3    H250418   1.685   5.029  13.844 -2.1503 -0.7692 -0.0998
 9643TIP3   OH250419   6.076   1.964  12.231  0.3648 -0.2182 -0.2020
 9643TIP3    H150420   6.005   1.901  12.217  0.9898 -0.8523 -0.5937
 9643TIP3    H250421   6.153   1.921  12.196  0.8335  0.7292 -0.3661
 9644TIP3   OH250422   0.604   4.425  17.283 -0.1601  0.5043 -0.2668
 9644TIP3    H150423   0.603   4.520  17.296 -1.5633  0.4463  0.3150
 9644TIP3    H250424   0.696   4.401  17.285  0.1636  1.3892  3.5204
 9645TIP3   OH250425   3.957   3.694  17.191  0.4965  0.1901 -0.0008
 9645TIP3    H150426   3.967   3.721  17.282 -1.6997  0.1693  0.2985
 9645TIP3    H250427   3.983   3.601  17.191 -0.4245 -0.0800  0.8191
 9646TIP3   OH250428   6.082   3.826   3.353  1.0006 -0.2040 -0.6725
 9646TIP3    H150429   6.005   3.863   3.310 -0.2409 -1.0791  0.7175
 9646TIP3    H250430   6.151   3.834   3.288 -0.0917  1.1890 -1.7358
 9647TIP3   OH250431   2.573   5.680   6.849  0.8051  0.1963  0.3022
 9647TIP3    H150432   2.493   5.637   6.818  1.1188  0.1835 -0.5115
 9647TIP3    H250433   2.634   5.608   6.866  0.6028  0.1991  1.0449
 9648TIP3   OH250434   0.855   3.670  11.600  0.2404 -0.6789  0.7950
 9648TIP3    H150435   0.829   3.637  11.686  1.1863 -0.8881  1.0126
 9648TIP3    H250436   0.780   3.722  11.570 -0.2578 -0.9491  1.5613
 9649TIP3   OH250437   2.152   4.408   2.154 -0.2240  0.5177  0.0986
 9649TIP3    H150438   2.191   4.359   2.081 -0.3654 -0.5735  0.7306
 9649TIP3    H250439   2.146   4.498   2.122  1.0933  0.3574 -0.6921
 9650TIP3   OH250440   4.631   6.209  13.837 -0.5020 -0.6669  0.1171
 9650TIP3    H150441   4.677   6.219  13.754 -1.4324 -1.2249 -0.4830
 9650TIP3    H250442   4.689   6.154  13.890 -1.6514 -3.8616 -1.6672
 9651TIP3   OH250443   1.776   5.507   1.694  0.5470 -0.2053 -0.7502
 9651TIP3    H150444   1.862   5.537   1.723  1.4143 -1.1360 -2.2802
 9651TIP3    H250445   1.787   5.414   1.678 -1.2608 -0.7492  0.7870
 9652TIP3   OH250446   1.834   0.504   3.871  0.1021 -0.1056  0.3205
 9652TIP3    H150447   1.864   0.566   3.804 -1.7820  1.0221  0.4273
 9652TIP3    H250448   1.914   0.466   3.907  1.1876 -0.3064 -2.1435
 9653TIP3   OH250449   5.429   6.210   2.398  0.1933 -0.2242 -0.2384
 9653TIP3    H150450   5.373   6.285   2.377  1.1283  0.9377  1.1801
 9653TIP3    H250451   5.518   6.242   2.382  0.5599 -1.3722 -0.5528
 9654TIP3   OH250452   5.710   4.835  13.376 -0.1981 -0.3910 -0.6422
 9654TIP3    H150453   5.616   4.835  13.358 -0.0048  1.4279 -1.9151
 9654TIP3    H250454   5.722   4.909  13.436  0.3127 -1.2041  0.2725
 9655TIP3   OH250455   2.230   2.669  13.328  0.0794  0.3744  0.2717
 9655TIP3    H150456   2.322   2.691  13.344  0.5170 -1.1059 -0.0563
 9655TIP3    H250457   2.203   2.621  13.406 -0.0171 -0.3329 -0.1914
 9656TIP3   OH250458   6.507   2.525  14.808  0.1269  0.5250  0.4610
 9656TIP3    H150459   6.519   2.471  14.887 -0.0720  0.3208  0.3554
 9656TIP3    H250460   6.521   2.615  14.838 -1.7490  0.6458  1.1710
 9657TIP3   OH250461   3.405   2.927  11.431  0.2097 -0.6246  0.1529
 9657TIP3    H150462   3.357   2.847  11.412 -0.6744 -0.1793  0.4527
 9657TIP3    H250463   3.412   2.971  11.346  0.2834 -0.8042  0.0673
 9658TIP3   OH250464   4.569   6.368   4.730 -0.3614 -0.0170 -0.0374
 9658TIP3    H150465   4.524   6.283   4.735  0.6004 -0.6527 -1.4874
 9658TIP3    H250466   4.499   6.431   4.715 -0.9066 -0.8194 -0.9737
 9659TIP3   OH250467   5.876   0.623   2.103 -0.2171  0.0218 -0.4476
 9659TIP3    H150468   5.880   0.670   2.020  2.5899  1.6005  0.4345
 9659TIP3    H250469   5.788   0.641   2.136  0.0294  3.1370 -1.1117
 9660TIP3   OH250470   1.956   5.888  16.008  0.8339 -0.6190  0.6995
 9660TIP3    H150471   1.996   5.867  15.924  1.5978 -0.1007  0.9268
 9660TIP3    H250472   1.899   5.963  15.989  0.1768 -1.1791  0.4337
 9661TIP3   OH250473   5.478   2.759  14.245  0.8131  0.6233  0.1065
 9661TIP3    H150474   5.483   2.665  14.262 -0.3228  0.9039  2.4513
 9661TIP3    H250475   5.539   2.798  14.308 -2.6406  1.6778  3.1784
 9662TIP3   OH250476   5.564   0.110  13.923  0.6241 -0.3907  0.4652
 9662TIP3    H150477   5.643   0.162  13.904 -0.5965  1.1288 -0.7773
 9662TIP3    H250478   5.495   0.175  13.932 -1.0792 -1.8051 -1.5528
 9663TIP3   OH250479   4.317   1.686   3.994  0.0632  0.2244  0.4025
 9663TIP3    H150480   4.289   1.708   4.083 -1.8039  1.8097 -0.4894
 9663TIP3    H250481   4.293   1.763   3.942  0.8722 -0.7515 -1.5197
 9664TIP3   OH250482   0.647   5.245  11.261 -0.5599  0.1645  0.0771
 9664TIP3    H150483   0.619   5.317  11.205 -1.6065  0.0565  0.4407
 9664TIP3    H250484   0.739   5.264  11.280 -0.7598  1.2878 -0.0117
 9665TIP3   OH250485   4.332   3.238   2.955  0.0607  0.1679 -0.2589
 9665TIP3    H150486   4.408   3.186   2.931 -0.8254 -1.6558  0.7063
 9665TIP3    H250487   4.258   3.178   2.948 -1.2560  1.7549 -0.7042
 9666TIP3   OH250488   6.581   5.039   3.376 -0.5126  0.3292 -0.2136
 9666TIP3    H150489   6.666   4.999   3.357  0.0736  0.7509  1.3517
 9666TIP3    H250490   6.563   5.094   3.300  0.5788  0.1608 -0.6090
 9667TIP3   OH250491   2.631   0.257   4.680 -0.0108  0.6953 -0.1925
 9667TIP3    H150492   2.597   0.337   4.641  1.5724  1.6102  0.1818
 9667TIP3    H250493   2.725   0.258   4.660  0.3676 -0.1482  1.3251
 9668TIP3   OH250494   5.289   4.006  14.113  0.2283  0.4343 -0.2445
 9668TIP3    H150495   5.225   3.993  14.183 -3.1054  0.1552 -3.0423
 9668TIP3    H250496   5.334   3.922  14.104  0.8257  0.5205  1.5459
 9669TIP3   OH250497   3.424   4.269   3.044 -0.5350 -0.3252 -0.0823
 9669TIP3    H150498   3.354   4.318   3.000  0.2251 -0.2318 -1.2406
 9669TIP3    H250499   3.393   4.256   3.133 -2.1515 -0.5314 -0.6503
 9670TIP3   OH250500   2.959   5.131   5.759 -0.2172 -0.0679 -0.0990
 9670TIP3    H150501   2.977   5.090   5.843 -2.2232 -0.5724  0.1424
 9670TIP3    H250502   2.877   5.179   5.773  0.1211  0.9486 -1.4097
 9671TIP3   OH250503   0.717   4.021   0.117  0.0838 -0.4038  0.2235
 9671TIP3    H150504   0.666   4.009   0.037 -0.6889 -1.7698  0.8908
 9671TIP3    H250505   0.651   4.028   0.186  0.7636 -0.1970  0.8634
 9672TIP3   OH250506   3.772   5.036  11.475 -0.0843  0.3835  0.1934
 9672TIP3    H150507   3.703   5.098  11.500  0.5574  1.8622 -1.5151
 9672TIP3    H250508   3.744   5.003  11.390 -0.4071 -1.7554  1.0651
 9673TIP3   OH250509   2.870   0.777   0.317  0.2769 -0.2919 -0.8048
 9673TIP3    H150510   2.818   0.708   0.276  2.2453 -2.3556 -0.1009
 9673TIP3    H250511   2.879   0.749   0.408  2.1291  0.2185 -0.7820
 9674TIP3   OH250512   0.105   6.452  16.525 -0.2395 -0.1467 -0.2431
 9674TIP3    H150513   0.184   6.468  16.473  0.5720 -1.8654  0.4103
 9674TIP3    H250514   0.091   6.535  16.572  0.0629  0.8175 -1.7701
 9675TIP3   OH250515   5.430   2.062  13.717  0.0259  0.2288  0.0039
 9675TIP3    H150516   5.364   2.073  13.785 -0.2040 -0.1118 -0.1666
 9675TIP3    H250517   5.506   2.111  13.750  0.4321 -1.1351  1.1892
 9676TIP3   OH250518   3.784   0.636   1.565  0.4512 -0.1579 -0.1982
 9676TIP3    H150519   3.868   0.653   1.522 -0.5989  1.6769 -1.7060
 9676TIP3    H250520   3.751   0.558   1.522  1.0735 -0.4911 -0.0844
 9677TIP3   OH250521   0.837   0.284  11.432 -0.2836 -0.4030  0.1456
 9677TIP3    H150522   0.778   0.349  11.472  1.8569  0.4988  2.1589
 9677TIP3    H250523   0.820   0.290  11.339 -2.2504  0.9305  0.5218
 9678TIP3   OH250524   2.979   2.854  16.481 -0.2849  0.3427  0.6638
 9678TIP3    H150525   2.946   2.942  16.501 -1.5182  0.0766 -0.1093
 9678TIP3    H250526   2.901   2.804  16.457  0.4427 -0.8832  0.7538
 9679TIP3   OH250527   0.125   1.266   1.674 -0.4229  0.2468  0.2359
 9679TIP3    H150528   0.119   1.230   1.586  0.0826 -1.0400  0.7048
 9679TIP3    H250529   0.219   1.275   1.690 -0.5192  0.7839  0.5223
 9680TIP3   OH250530   1.685   1.183  11.128  0.6358  0.0071 -0.0503
 9680TIP3    H150531   1.717   1.113  11.185  1.3931 -0.4839 -1.0545
 9680TIP3    H250532   1.590   1.169  11.126  0.7710 -1.0074 -0.2400
 9681TIP3   OH250533   5.251   5.463   0.668 -0.0778  0.4741 -0.6178
 9681TIP3    H150534   5.170   5.489   0.713 -1.1136 -1.4703 -1.2316
 9681TIP3    H250535   5.255   5.521   0.592  0.4598  2.2265  0.6652
 9682TIP3   OH250536   3.401   2.867  12.083  0.1292 -0.0765  0.3675
 9682TIP3    H150537   3.319   2.883  12.037 -0.5989 -0.7215  1.3899
 9682TIP3    H250538   3.454   2.816  12.022 -0.0562  0.6838 -0.4533
 9683TIP3   OH250539   4.275   5.964   4.561 -0.6495  0.4859  0.1011
 9683TIP3    H150540   4.363   5.951   4.525  0.3296 -0.4441  2.6413
 9683TIP3    H250541   4.217   5.924   4.496  0.9311 -0.2557 -0.9180
 9684TIP3   OH250542   4.471   0.925  12.831  0.0740 -0.2780 -0.1733
 9684TIP3    H150543   4.419   0.857  12.876 -1.4426  0.1587 -1.1745
 9684TIP3    H250544   4.530   0.958  12.898 -1.0422 -0.7168  1.0822
 9685TIP3   OH250545   0.035   5.158   5.668  0.3609  0.1857  0.8514
 9685TIP3    H150546   0.032   5.063   5.680  1.6144 -0.0179 -0.2423
 9685TIP3    H250547   0.087   5.171   5.589 -1.5291  1.6951 -0.2488
 9686TIP3   OH250548   5.461   0.952   2.578  0.2160 -0.1105 -0.0366
 9686TIP3    H150549   5.540   0.898   2.578  0.1255 -0.3320  2.3973
 9686TIP3    H250550   5.488   1.034   2.538  2.2284  0.5064  2.3934
 9687TIP3   OH250551   1.261   2.056  15.631 -0.4184  0.5690  0.2797
 9687TIP3    H150552   1.283   1.963  15.617 -1.1808  0.2495  1.1125
 9687TIP3    H250553   1.337   2.092  15.676  0.5471  0.7507 -1.3920
 9688TIP3   OH250554   0.438   4.624  12.733 -0.0837 -0.0566 -0.3042
 9688TIP3    H150555   0.418   4.591  12.645 -0.2030 -1.3567  0.1837
 9688TIP3    H250556   0.367   4.686  12.752 -1.5877 -1.7770 -0.0910
 9689TIP3   OH250557   2.626   3.331   5.172  0.1485 -0.1507  0.7362
 9689TIP3    H150558   2.533   3.333   5.195  0.1554 -0.2030  0.7673
 9689TIP3    H250559   2.627   3.324   5.077  0.1202 -0.2083  0.7397
 9690TIP3   OH250560   1.305   3.510   2.016 -0.5975  0.3531 -0.4879
 9690TIP3    H150561   1.314   3.597   2.056  0.7993  0.3105 -0.6377
 9690TIP3    H250562   1.245   3.463   2.074  0.0610  0.8404  0.6288
 9691TIP3   OH250563   3.989   3.410  16.841  0.1852 -0.5167  0.1578
 9691TIP3    H150564   4.018   3.369  16.759  1.3054 -0.5820  0.5641
 9691TIP3    H250565   3.973   3.336  16.900  0.1904 -0.4472  0.2464
 9692TIP3   OH250566   3.205   1.846   3.666 -0.3003  0.0944 -0.3796
 9692TIP3    H150567   3.135   1.794   3.625 -1.5230  0.0937  1.5452
 9692TIP3    H250568   3.244   1.786   3.729  1.3054  0.1904 -1.2417
 9693TIP3   OH250569   1.211   3.436  11.836 -0.0119 -0.0528  0.1112
 9693TIP3    H150570   1.254   3.516  11.869 -1.1523  1.1378 -1.1566
 9693TIP3    H250571   1.265   3.408  11.762 -0.7098  0.7519 -0.7268
 9694TIP3   OH250572   1.154   2.410  13.696 -0.2652  0.3048 -0.2571
 9694TIP3    H150573   1.164   2.353  13.620  1.1529 -1.2680  1.0231
 9694TIP3    H250574   1.091   2.364  13.752 -0.5045  0.9368  0.0039
 9695TIP3   OH250575   6.139   2.508  15.573  0.3539 -0.2120  0.1268
 9695TIP3    H150576   6.176   2.446  15.636  3.2981  1.6796  0.4378
 9695TIP3    H250577   6.068   2.551  15.621  0.3724 -1.1280  1.0021
 9696TIP3   OH250578   3.763   3.110   1.782 -0.6957 -0.3155 -0.1435
 9696TIP3    H150579   3.845   3.155   1.764 -1.0465  0.3402 -0.1328
 9696TIP3    H250580   3.783   3.017   1.767  0.0725 -0.1772 -0.0180
 9697TIP3   OH250581   5.130   6.750   0.349  0.3760 -0.5278  0.1444
 9697TIP3    H150582   5.146   6.844   0.360  0.2254 -0.2799 -1.4305
 9697TIP3    H250583   5.150   6.711   0.434  0.2959  0.9527  0.8629
 9698TIP3   OH250584   5.854   6.420  10.831 -0.6892 -0.0163  0.5892
 9698TIP3    H150585   5.923   6.474  10.793  1.5881 -3.1616 -0.0965
 9698TIP3    H250586   5.773   6.460  10.801  0.8661  2.3152 -0.7758
 9699TIP3   OH250587   2.905   4.566  15.863 -0.2568 -0.7127  0.1642
 9699TIP3    H150588   2.943   4.631  15.805  0.0760 -0.7907  0.2930
 9699TIP3    H250589   2.831   4.611  15.905  0.6539 -0.0518  1.0989
 9700TIP3   OH250590   5.156   2.875   2.168 -0.8724  0.4947 -0.0720
 9700TIP3    H150591   5.100   2.951   2.152 -1.4869  0.1922  0.5680
 9700TIP3    H250592   5.138   2.851   2.259  0.0651  0.1906  0.0467
 9701TIP3   OH250593   5.205   2.867  16.760 -0.9655 -0.1968 -0.0236
 9701TIP3    H150594   5.143   2.927  16.718 -2.2896 -1.6766 -0.2653
 9701TIP3    H250595   5.160   2.837  16.839 -0.8133 -1.7078 -0.4812
 9702TIP3   OH250596   2.705   3.031   1.792 -0.1238 -0.0535  0.0572
 9702TIP3    H150597   2.732   3.027   1.700  1.4234 -0.0397  0.4883
 9702TIP3    H250598   2.635   3.096   1.794 -0.5104 -0.3978 -1.1762
 9703TIP3   OH250599   4.488   5.599  12.854  0.4984 -0.0200 -0.0180
 9703TIP3    H150600   4.544   5.559  12.920  0.5383  3.3951  2.2794
 9703TIP3    H250601   4.402   5.604  12.896  0.2593  1.2723 -0.6171
 9704TIP3   OH250602   5.272   5.640   4.535  0.1684 -1.0283  0.1242
 9704TIP3    H150603   5.313   5.691   4.605  0.6357  0.5745 -1.2648
 9704TIP3    H250604   5.183   5.624   4.567  0.1577  0.2523  0.8092
 9705TIP3   OH250605   6.535   3.797  11.910  0.1301 -0.9115 -0.3746
 9705TIP3    H150606   6.617   3.757  11.878  1.0697 -0.4288  1.3355
 9705TIP3    H250607   6.506   3.738  11.980  0.8816  0.6924  1.3533
 9706TIP3   OH250608   1.329   3.759   6.092 -0.1511 -0.3523  0.0670
 9706TIP3    H150609   1.416   3.738   6.124 -0.6128 -1.8757  0.3924
 9706TIP3    H250610   1.298   3.830   6.149  0.8828  0.2538 -0.1090
 9707TIP3   OH250611   4.471   4.737   5.928 -0.1366  0.2231 -0.1301
 9707TIP3    H150612   4.533   4.689   5.873 -0.7811 -0.4929 -0.2403
 9707TIP3    H250613   4.527   4.791   5.985  0.6205 -0.8984  0.2359
 9708TIP3   OH250614   2.320   6.594   5.463  0.2034  0.6080 -0.0736
 9708TIP3    H150615   2.301   6.526   5.398 -1.2570 -0.6857  1.5945
 9708TIP3    H250616   2.242   6.649   5.462  0.1674  0.5747  0.5570
 9709TIP3   OH250617   1.490   6.042  12.469 -0.2124  0.2554 -0.2664
 9709TIP3    H150618   1.418   6.104  12.456  2.3686  3.3031 -1.4105
 9709TIP3    H250619   1.517   6.017  12.381 -1.6060 -3.2906  0.1404
 9710TIP3   OH250620   3.887   5.107  16.671  0.0408  0.1673  0.1340
 9710TIP3    H150621   3.872   5.130  16.579  0.1218  0.3276  0.1619
 9710TIP3    H250622   3.935   5.181  16.707  1.4273 -0.6038 -0.0928
 9711TIP3   OH250623   1.558   5.067  14.364 -0.2754 -0.2124 -0.5826
 9711TIP3    H150624   1.500   5.118  14.308 -0.7286 -0.1603 -0.0809
 9711TIP3    H250625   1.510   5.059  14.447 -0.1647 -1.3499 -0.6109
 9712TIP3   OH250626   4.290   4.542  14.246  0.0242 -0.3948  0.2034
 9712TIP3    H150627   4.269   4.489  14.323  2.4103 -2.3250 -0.3742
 9712TIP3    H250628   4.313   4.479  14.178  2.1275  1.3200 -0.8051
 9713TIP3   OH250629   0.167   5.743   5.750 -0.1598  0.2340 -0.6199
 9713TIP3    H150630   0.099   5.698   5.799  1.5822 -0.3912  1.3541
 9713TIP3    H250631   0.122   5.818   5.709 -1.7140  0.9160  2.1081
 9714TIP3   OH250632   3.347   6.368   1.811 -0.3014  0.1886  0.2456
 9714TIP3    H150633   3.261   6.325   1.815  0.3456 -1.2252 -0.2520
 9714TIP3    H250634   3.361   6.402   1.900 -1.3655  0.4354  0.3317
 9715TIP3   OH250635   6.405   3.875   1.459 -0.3466 -0.1667 -0.1270
 9715TIP3    H150636   6.315   3.848   1.442 -1.3490  1.2675  2.3488
 9715TIP3    H250637   6.449   3.796   1.489 -1.2922 -0.5079  0.3845
 9716TIP3   OH250638   0.551   0.770  12.117  0.0755  0.3504  0.2394
 9716TIP3    H150639   0.529   0.862  12.104  2.1558  0.7196 -1.3162
 9716TIP3    H250640   0.517   0.727  12.038 -0.5957 -0.1649  0.8036
 9717TIP3   OH250641   3.317   4.192  16.291  0.7092 -0.1667  0.4613
 9717TIP3    H150642   3.256   4.167  16.360  0.5960 -1.1367  0.0284
 9717TIP3    H250643   3.392   4.229  16.338 -1.0547  3.1732  0.9331
 9718TIP3   OH250644   1.645   1.914  11.726 -0.0325 -0.3452 -0.4221
 9718TIP3    H150645   1.592   1.948  11.654 -1.1340 -0.9700  0.0726
 9718TIP3    H250646   1.642   1.819  11.716 -0.1408 -0.4364  0.4074
 9719TIP3   OH250647   0.065   3.160   5.885  0.8256 -0.2873  0.3333
 9719TIP3    H150648   0.086   3.128   5.973 -0.6935 -2.0360  0.1170
 9719TIP3    H250649  -0.028   3.144   5.875  1.0550 -0.5495 -1.7763
 9720TIP3   OH250650   6.376   2.042  15.403  0.1606 -0.3109  0.3397
 9720TIP3    H150651   6.303   2.102  15.417  0.3363  0.1756 -0.7301
 9720TIP3    H250652   6.366   2.014  15.312  1.5054  0.0435  0.0646
 9721TIP3   OH250653   3.864   6.607  13.164 -0.0121 -0.1528  0.0327
 9721TIP3    H150654   3.934   6.670  13.181  0.0737  0.3561 -1.9513
 9721TIP3    H250655   3.789   6.661  13.137  0.4469 -0.8322 -2.9867
 9722TIP3   OH250656   2.533   6.456   4.450  0.2178 -0.2069  0.0594
 9722TIP3    H150657   2.472   6.440   4.378 -0.3226  1.7493  0.0066
 9722TIP3    H250658   2.542   6.372   4.494  0.5453 -1.4595 -2.2495
 9723TIP3   OH250659   1.624   6.498  16.080 -0.1005  0.0369 -0.3050
 9723TIP3    H150660   1.598   6.545  16.159  2.1251 -0.5972  0.9109
 9723TIP3    H250661   1.682   6.558  16.034  1.5504 -0.8281  0.5001
 9724TIP3   OH250662   2.806   6.555  11.983  0.3206 -0.7096 -0.6081
 9724TIP3    H150663   2.794   6.596  11.898 -0.6118 -0.7287 -0.4953
 9724TIP3    H250664   2.721   6.563  12.026  1.2571  1.0328  1.1015
 9725TIP3   OH250665   3.894   2.290  15.442 -0.4283 -0.1836 -0.3611
 9725TIP3    H150666   3.928   2.342  15.515 -1.8560  2.1816 -1.2397
 9725TIP3    H250667   3.951   2.312  15.368 -0.7901 -0.1579 -0.6405
 9726TIP3   OH250668   6.409   5.707   1.234 -0.1820  0.5286  0.3484
 9726TIP3    H150669   6.381   5.629   1.185 -0.7687  0.1875  1.2095
 9726TIP3    H250670   6.367   5.780   1.188 -1.8913  0.0950  1.1341
 9727TIP3   OH250671   6.743   2.894   3.875  0.9551 -0.4571 -0.1837
 9727TIP3    H150672   6.661   2.845   3.862  0.1802  0.3721  1.2963
 9727TIP3    H250673   6.777   2.907   3.786  0.9114 -3.1290 -0.6719
 9728TIP3   OH250674   0.386   5.952  14.976 -0.1926  0.6834  0.0276
 9728TIP3    H150675   0.451   5.907  15.031 -1.7262 -0.8733  0.6428
 9728TIP3    H250676   0.341   5.882  14.930 -1.0410  1.7807 -0.8651
 9729TIP3   OH250677   4.420   5.928  12.294 -0.9733 -0.3606 -0.8833
 9729TIP3    H150678   4.383   5.840  12.288 -2.1818 -0.0969  1.3148
 9729TIP3    H250679   4.457   5.932  12.383  1.5869  0.4668 -1.9066
 9730TIP3   OH250680   0.485   5.443  13.409  0.5062  0.1475 -1.1010
 9730TIP3    H150681   0.485   5.521  13.354  0.3769 -0.7315 -2.4175
 9730TIP3    H250682   0.396   5.436  13.442  0.7878  1.1271 -0.1009
 9731TIP3   OH250683   2.966   1.031  15.568 -0.8932 -0.2762 -0.5197
 9731TIP3    H150684   2.953   0.956  15.625 -0.8501  0.1049  0.0011
 9731TIP3    H250685   2.988   1.103  15.628 -1.2775  0.2283 -0.9801
 9732TIP3   OH250686   4.217   1.970   0.787 -0.1882 -0.0834  0.2566
 9732TIP3    H150687   4.278   1.947   0.716 -0.7682  0.0186 -0.2814
 9732TIP3    H250688   4.257   1.932   0.865 -0.5878 -2.0472 -0.4371
 9733TIP3   OH250689   2.459   3.859  16.635 -0.0223  0.1015  0.1374
 9733TIP3    H150690   2.427   3.863  16.725  0.2032  1.9415  0.1699
 9733TIP3    H250691   2.466   3.950  16.608  2.0606 -0.3454 -0.9955
 9734TIP3   OH250692   3.864   0.539   0.548 -0.2645  0.0214 -0.6391
 9734TIP3    H150693   3.916   0.474   0.596  1.3118  1.3336 -0.4845
 9734TIP3    H250694   3.788   0.555   0.603 -0.9805 -2.0652 -0.9299
 9735TIP3   OH250695   4.248   1.400  15.615  0.4699 -0.1736 -0.3560
 9735TIP3    H150696   4.299   1.474  15.647  0.4156 -0.3112  0.0569
 9735TIP3    H250697   4.229   1.421  15.524  1.3523 -0.1700 -0.5421
 9736TIP3   OH250698   4.310   3.624   4.485  0.3783 -0.6625  0.4612
 9736TIP3    H150699   4.339   3.715   4.485  0.6118 -0.7353  1.1158
 9736TIP3    H250700   4.317   3.596   4.576  2.1241 -1.9055  0.0111
 9737TIP3   OH250701   4.645   1.387  12.402  0.3203  0.6603 -0.2497
 9737TIP3    H150702   4.644   1.291  12.396 -1.9120  0.5963  0.1227
 9737TIP3    H250703   4.571   1.415  12.348  1.7459  2.3040 -1.4625
 9738TIP3   OH250704   4.040   4.727   1.073  0.3028 -0.6779 -0.2535
 9738TIP3    H150705   4.115   4.733   1.014  1.5097  1.3492  1.3478
 9738TIP3    H250706   4.077   4.741   1.160 -2.0189  1.3761  0.5068
 9739TIP3   OH250707   4.531   4.029   3.714  0.5184 -0.0438  0.1485
 9739TIP3    H150708   4.595   4.038   3.644  0.5645 -1.5795 -0.0472
 9739TIP3    H250709   4.547   4.103   3.772  2.6899 -0.5709  0.2859
 9740TIP3   OH250710   0.920   1.573  11.092  0.3573  0.1389 -0.1515
 9740TIP3    H150711   0.870   1.646  11.055  1.7415  0.8840 -0.6023
 9740TIP3    H250712   0.991   1.614  11.141 -0.4980 -0.8633  2.0786
 9741TIP3   OH250713   4.842   5.186  12.438  0.0724  0.2049  0.0131
 9741TIP3    H150714   4.846   5.280  12.456 -2.5073  0.6583 -1.2733
 9741TIP3    H250715   4.822   5.181  12.344  1.0113 -1.6752 -0.1372
 9742TIP3   OH250716   4.473   5.968  15.560 -0.3423 -0.0697 -0.2527
 9742TIP3    H150717   4.478   6.029  15.632  2.0481 -0.0491 -0.3636
 9742TIP3    H250718   4.464   6.023  15.482 -1.8518 -0.0579 -0.1091
 9743TIP3   OH250719   3.959   3.529   5.788  0.1253 -0.1523 -0.1151
 9743TIP3    H150720   3.950   3.608   5.842  0.4844  0.5477 -1.0697
 9743TIP3    H250721   4.006   3.468   5.844  0.8543  0.7018  0.2326
 9744TIP3   OH250722   0.757   0.016   1.491  0.1809  0.3537  0.0182
 9744TIP3    H150723   0.661   0.020   1.487  0.0368  0.4699  2.1711
 9744TIP3    H250724   0.776  -0.067   1.535  1.0746  0.3270 -0.3990
 9745TIP3   OH250725   4.288   0.274  10.899  0.1055 -0.3790  0.2898
 9745TIP3    H150726   4.200   0.287  10.863  0.7001  2.2223 -0.4459
 9745TIP3    H250727   4.330   0.213  10.839 -1.0144 -1.2415  0.3549
 9746TIP3   OH250728   5.459   1.931  11.634 -0.5880 -0.2379 -0.0522
 9746TIP3    H150729   5.495   1.960  11.551  1.7022 -0.8907  0.6516
 9746TIP3    H250730   5.417   2.009  11.670 -0.2505  0.4560 -1.1138
 9747TIP3   OH250731   4.983   5.021  16.286 -0.2902 -0.1808 -0.0348
 9747TIP3    H150732   4.957   4.930  16.302 -1.6642  0.6051  2.8348
 9747TIP3    H250733   5.078   5.020  16.290 -0.1909 -1.7011 -1.6024
 9748TIP3   OH250734   2.064   2.787  15.974 -0.1818 -0.1213 -0.7605
 9748TIP3    H150735   1.988   2.745  15.934  0.4867  0.3455 -2.6158
 9748TIP3    H250736   2.038   2.878  15.985 -0.5966 -0.3713  0.5710
 9749TIP3   OH250737   6.257   0.461  10.925  0.5170 -0.3131 -0.0889
 9749TIP3    H150738   6.279   0.551  10.947  1.3281 -0.1229 -1.5960
 9749TIP3    H250739   6.172   0.466  10.882  0.7948 -0.2050 -0.6272
 9750TIP3   OH250740   2.779   5.993   2.304  0.0959  0.1664 -0.3446
 9750TIP3    H150741   2.842   6.016   2.373  0.5736  1.1732 -1.0975
 9750TIP3    H250742   2.702   6.045   2.324 -0.2154 -0.4415  0.0954
 9751TIP3   OH250743   5.968   5.753  12.897 -0.3951  0.1154  0.5361
 9751TIP3    H150744   5.958   5.838  12.853  1.3015  0.2646  0.3919
 9751TIP3    H250745   5.964   5.774  12.990  1.2560  0.5735  0.5393
 9752TIP3   OH250746   3.677   0.553   4.583  0.0105 -0.0155 -0.6685
 9752TIP3    H150747   3.748   0.602   4.540  0.7690  1.4423  2.0277
 9752TIP3    H250748   3.721   0.490   4.640 -0.9411 -1.0979 -1.0783
 9753TIP3   OH250749   6.051   6.800   2.524  0.2951  0.4871  0.2383
 9753TIP3    H150750   6.002   6.863   2.577 -1.4669  0.5114 -1.2804
 9753TIP3    H250751   6.072   6.729   2.583 -2.4671  0.0425  0.8420
 9754TIP3   OH250752   3.802   3.936  17.265  0.2458 -0.0595 -0.0812
 9754TIP3    H150753   3.824   4.019  17.309 -0.8035  0.0625  0.2541
 9754TIP3    H250754   3.884   3.905  17.229  1.1553 -0.1108  1.9027
 9755TIP3   OH250755   1.906   2.991   0.728  0.0109 -0.7939 -0.7647
 9755TIP3    H150756   1.872   2.920   0.784 -0.3793 -1.1960 -1.4987
 9755TIP3    H250757   1.844   2.995   0.655 -1.4986  2.0646  0.5218
 9756TIP3   OH250758   3.005   3.096   6.252 -0.0986  0.4577 -0.0591
 9756TIP3    H150759   3.020   3.011   6.212 -1.2696  0.0033  0.4318
 9756TIP3    H250760   3.081   3.110   6.308  1.1605  0.7331 -1.7593
 9757TIP3   OH250761   5.986   5.937  11.958 -0.2739  0.0787 -0.2558
 9757TIP3    H150762   6.080   5.929  11.944 -0.6256  0.9538 -4.1921
 9757TIP3    H250763   5.974   6.025  11.995  0.5146 -1.1520  3.3529
 9758TIP3   OH250764   4.057   0.885  12.563  0.4790 -0.1654  0.0873
 9758TIP3    H150765   4.093   0.857  12.647 -0.5272 -1.6366  0.0541
 9758TIP3    H250766   3.992   0.952  12.586  0.1443 -0.6272  0.4932
 9759TIP3   OH250767   1.266   3.920   5.440  0.4903 -0.1282 -0.2626
 9759TIP3    H150768   1.239   3.829   5.448 -0.4709  0.1100 -0.6216
 9759TIP3    H250769   1.350   3.917   5.394  1.5072 -0.9409  1.5511
 9760TIP3   OH250770   0.884   3.274   0.026 -0.1493  0.5532  0.2464
 9760TIP3    H150771   0.962   3.229   0.059  0.1406  0.0545 -1.0670
 9760TIP3    H250772   0.889   3.361   0.066  0.6786  0.2785  0.7744
 9761TIP3   OH250773   0.975   4.675  14.253 -0.3378  0.1205  0.2816
 9761TIP3    H150774   1.064   4.706  14.272 -0.3480 -0.2306  0.9584
 9761TIP3    H250775   0.937   4.660  14.340 -0.8538 -0.2937 -0.0126
 9762TIP3   OH250776   2.996   2.361  15.387  0.5518 -0.2161 -0.1947
 9762TIP3    H150777   2.988   2.409  15.469  1.3701  0.9238 -0.7554
 9762TIP3    H250778   3.009   2.428  15.320  0.3601 -1.1410 -1.2100
 9763TIP3   OH250779   4.605   3.239  13.336  0.1357  0.0573 -0.6667
 9763TIP3    H150780   4.557   3.227  13.417 -0.1559  2.2303 -0.4594
 9763TIP3    H250781   4.605   3.152  13.295  0.5199 -1.1569  1.7309
 9764TIP3   OH250782   2.491   3.230   0.087  0.2293  0.4213  0.2229
 9764TIP3    H150783   2.559   3.168   0.060  0.1263 -0.7620  2.4075
 9764TIP3    H250784   2.438   3.243   0.009 -0.1435 -2.8268 -0.2099
 9765TIP3   OH250785   5.865   0.187   0.893 -0.3878  0.1124  0.6198
 9765TIP3    H150786   5.866   0.177   0.798 -1.8738  0.1537  0.5717
 9765TIP3    H250787   5.956   0.206   0.916  0.1978 -0.9039 -0.6716
 9766TIP3   OH250788   5.486   2.651  14.743  0.6779 -0.3067 -0.6342
 9766TIP3    H150789   5.540   2.591  14.692 -1.2457 -0.4954 -2.5859
 9766TIP3    H250790   5.440   2.704  14.678 -1.8565 -0.4997  0.8624
 9767TIP3   OH250791   4.501   1.444  12.087  0.3255 -0.8208  0.4530
 9767TIP3    H150792   4.585   1.483  12.062  0.7354 -1.5166  0.7333
 9767TIP3    H250793   4.444   1.462  12.012  0.2965  0.8860  0.8316
 9768TIP3   OH250794   1.085   5.521   3.192  0.6002 -0.1473 -0.1481
 9768TIP3    H150795   0.999   5.538   3.154  0.8131  0.4959 -0.3558
 9768TIP3    H250796   1.147   5.556   3.128  1.1515 -2.9446 -1.2813
 9769TIP3   OH250797   6.022   3.992   4.833 -0.1598 -0.3503  0.2984
 9769TIP3    H150798   6.068   3.921   4.788  1.9794  0.9975  0.2302
 9769TIP3    H250799   6.086   4.062   4.840 -1.7273  1.0478  1.7248
 9770TIP3   OH250800   0.934   4.715   0.062 -0.1301 -0.2206  0.0142
 9770TIP3    H150801   0.905   4.783   0.123  0.5517 -1.5267  1.8888
 9770TIP3    H250802   1.030   4.722   0.062 -0.0559 -1.1338  0.2046
 9771TIP3   OH250803   6.702   4.522  13.655  0.1498  0.0565 -0.4604
 9771TIP3    H150804   6.712   4.615  13.673  1.1146  0.0448 -0.9306
 9771TIP3    H250805   6.638   4.492  13.720  2.0179  0.4371  1.6515
 9772TIP3   OH250806   6.004   0.485  10.889 -0.0308  0.4708 -0.9285
 9772TIP3    H150807   5.973   0.558  10.942  0.4046 -0.4734  0.6700
 9772TIP3    H250808   5.945   0.484  10.813 -3.1267 -0.4142  1.3055
 9773TIP3   OH250809   5.629   1.965  14.344  0.0966  0.2651  0.3682
 9773TIP3    H150810   5.579   1.969  14.426  1.1900 -0.6278  1.1139
 9773TIP3    H250811   5.628   2.055  14.311 -2.1580  0.2428  0.2182
 9774TIP3   OH250812   3.525   5.694  12.223 -0.3286 -0.0842 -0.3966
 9774TIP3    H150813   3.557   5.610  12.189 -0.8841 -0.6995  0.5630
 9774TIP3    H250814   3.549   5.693  12.316  1.5583  1.7599 -0.8124
 9775TIP3   OH250815   0.157   3.988   4.686  0.5157 -0.1508 -0.2957
 9775TIP3    H150816   0.213   3.967   4.611  0.5798 -0.0784 -0.2682
 9775TIP3    H250817   0.098   4.056   4.653 -0.7017 -1.4321 -0.8439
 9776TIP3   OH250818   2.647   1.000  14.485 -0.0999  0.4037 -0.2384
 9776TIP3    H150819   2.633   1.004  14.391 -0.2477  1.0411 -0.1942
 9776TIP3    H250820   2.741   1.018  14.496  0.1291 -0.6882 -0.3252
 9777TIP3   OH250821   5.575   6.054   6.179  0.5366  0.0138  0.0668
 9777TIP3    H150822   5.496   6.043   6.127  0.1121  0.3775  0.6297
 9777TIP3    H250823   5.547   6.040   6.269  0.9209  1.0642  0.3670
 9778TIP3   OH250824   2.905   6.389   3.379  0.4223  0.1986  0.2239
 9778TIP3    H150825   2.899   6.361   3.471 -1.2392  0.4549  0.2242
 9778TIP3    H250826   2.917   6.307   3.330 -0.0448 -0.0813  0.5670
 9779TIP3   OH250827   2.974   5.311   1.524 -0.0087  0.0431  0.1652
 9779TIP3    H150828   3.029   5.307   1.446 -0.3859 -1.2306 -0.0531
 9779TIP3    H250829   2.938   5.223   1.533 -0.4620  0.3335  1.4273
 9780TIP3   OH250830   6.244   6.488  16.015 -0.6237 -0.2253  0.0201
 9780TIP3    H150831   6.262   6.409  15.964  0.4970 -0.1424  0.2773
 9780TIP3    H250832   6.271   6.465  16.104 -0.4707  0.3964  0.1314
 9781TIP3   OH250833   5.527   2.940  10.896 -0.2282 -0.2886 -0.3684
 9781TIP3    H150834   5.504   2.847  10.902 -1.0492 -0.0446  0.4076
 9781TIP3    H250835   5.510   2.962  10.805  1.1053 -1.1674 -0.8757
 9782TIP3   OH250836   3.286   1.326  14.525  0.4149  0.5798  0.1494
 9782TIP3    H150837   3.367   1.281  14.500  0.6506  0.1109  1.6300
 9782TIP3    H250838   3.218   1.284  14.473  0.8992 -0.2122  0.1378
 9783TIP3   OH250839   2.855   1.727   2.106 -0.0503 -0.1640  0.4520
 9783TIP3    H150840   2.877   1.765   2.192  1.7664 -2.0857  0.9063
 9783TIP3    H250841   2.915   1.769   2.045  0.0313 -0.2658  0.4630
 9784TIP3   OH250842   6.381   1.419  17.025 -0.2234 -0.0528  0.0739
 9784TIP3    H150843   6.326   1.344  17.049 -1.3232  0.8288  0.4077
 9784TIP3    H250844   6.459   1.410  17.079  0.1655 -1.5196 -0.6557
 9785TIP3   OH250845   6.375   1.078   2.771 -0.6842  0.2622 -0.0304
 9785TIP3    H150846   6.374   1.170   2.744  1.5259  0.5577  0.7238
 9785TIP3    H250847   6.384   1.030   2.688  1.1885  0.9171 -0.2562
 9786TIP3   OH250848   5.140   5.621  13.551  0.0346  0.2468  0.1890
 9786TIP3    H150849   5.146   5.590  13.461  1.5948 -2.1566  0.9965
 9786TIP3    H250850   5.224   5.594  13.590 -1.0627  0.1288  2.6324
 9787TIP3   OH250851   5.614   1.419   2.093 -0.4862 -1.0500  0.1724
 9787TIP3    H150852   5.551   1.406   2.164 -0.0977 -2.4243  0.2948
 9787TIP3    H250853   5.559   1.423   2.014 -0.9130  0.4367  0.5143
 9788TIP3   OH250854   2.861   2.523  13.194  0.0425  0.0927  0.1926
 9788TIP3    H150855   2.802   2.591  13.162  2.6155  1.7215 -1.4298
 9788TIP3    H250856   2.874   2.465  13.119 -1.5023 -1.8894  1.3283
 9789TIP3   OH250857   4.686   5.175   3.130 -0.7808  0.6696  0.1546
 9789TIP3    H150858   4.681   5.122   3.051  0.7889 -0.8388  1.0039
 9789TIP3    H250859   4.617   5.140   3.186  1.0271 -1.4692  1.2062
 9790TIP3   OH250860   2.388   0.283   3.976  0.8100 -0.2765 -0.0970
 9790TIP3    H150861   2.312   0.311   3.926  0.3341 -0.9493  0.2244
 9790TIP3    H250862   2.362   0.296   4.068  0.3023 -2.3506  0.0937
 9791TIP3   OH250863   5.644   0.852   5.114  0.1466 -0.0725  0.4701
 9791TIP3    H150864   5.726   0.839   5.066  0.5042  1.6089  0.5739
 9791TIP3    H250865   5.638   0.776   5.171  2.1929  0.2746  1.2357
 9792TIP3   OH250866   1.359   4.654   1.841  0.9784  0.1791  0.2394
 9792TIP3    H150867   1.313   4.690   1.916  0.2333 -2.3683  1.0921
 9792TIP3    H250868   1.413   4.583   1.877  1.2444 -0.5722 -1.5082
 9793TIP3   OH250869   5.580   3.183   1.035  0.2392  0.2622 -0.5852
 9793TIP3    H150870   5.607   3.272   1.057  0.4102 -0.4550  2.5916
 9793TIP3    H250871   5.486   3.189   1.021  0.0485  0.8155  0.7450
 9794TIP3   OH250872   5.006   6.120  11.987  0.7789 -0.1501 -0.9080
 9794TIP3    H150873   5.002   6.122  12.082 -1.0489 -2.2575 -0.8731
 9794TIP3    H250874   5.071   6.052  11.967  0.2527 -0.5968 -1.1315
 9795TIP3   OH250875   4.756   5.891   3.207 -0.3762 -0.3871  0.0155
 9795TIP3    H150876   4.806   5.826   3.256  0.5346  1.2661  1.4499
 9795TIP3    H250877   4.704   5.841   3.145  1.1272 -2.3685  0.2600
 9796TIP3   OH250878   4.304   2.691   3.326 -0.2844  0.1524  0.6154
 9796TIP3    H150879   4.319   2.663   3.236  0.3712 -0.8234  1.0106
 9796TIP3    H250880   4.282   2.610   3.373  0.0932  0.5391  1.4759
 9797TIP3   OH250881   2.867   3.088   2.010  0.1116 -0.2407  0.3062
 9797TIP3    H150882   2.951   3.110   1.970 -0.8821  0.5081 -1.4980
 9797TIP3    H250883   2.818   3.046   1.939 -0.9198 -1.0199  1.4417
 9798TIP3   OH250884   3.638   0.816  14.452 -0.4562  0.2166  0.7203
 9798TIP3    H150885   3.731   0.829  14.436 -0.6491 -0.1791 -0.8848
 9798TIP3    H250886   3.603   0.905  14.467  0.1311  0.3743  1.1969
 9799TIP3   OH250887   0.842   5.470   2.590  0.1586 -0.0439  0.7768
 9799TIP3    H150888   0.767   5.413   2.572  0.9277 -0.8301 -0.0190
 9799TIP3    H250889   0.857   5.462   2.685 -0.5293 -0.1587  0.8779
 9800TIP3   OH250890   2.128   4.659  11.307 -0.4061 -0.1372  0.1706
 9800TIP3    H150891   2.074   4.581  11.323 -0.0447 -0.9840 -2.3020
 9800TIP3    H250892   2.218   4.626  11.310 -0.0169  0.9448  2.6111
 9801TIP3   OH250893   5.148   6.527   5.361 -0.2064 -0.2173  0.1135
 9801TIP3    H150894   5.211   6.572   5.418 -2.0696  0.2262  1.9394
 9801TIP3    H250895   5.113   6.595   5.305 -0.4713 -0.0813  0.4441
 9802TIP3   OH250896   1.038   3.915   2.989 -0.3806 -0.9476 -0.0210
 9802TIP3    H150897   0.974   3.939   3.055  0.0789 -1.9446  0.8190
 9802TIP3    H250898   1.114   3.970   3.007 -0.4654 -0.8140 -0.0763
 9803TIP3   OH250899   1.605   4.039   3.480  0.2808 -0.2633 -0.6029
 9803TIP3    H150900   1.572   3.958   3.517  1.2590 -0.0289  0.8841
 9803TIP3    H250901   1.632   4.091   3.556  0.3844  1.1396 -1.5550
 9804TIP3   OH250902   4.698   4.386   2.091 -0.5428 -0.3566 -0.1833
 9804TIP3    H150903   4.747   4.422   2.017 -0.1262 -0.0380  0.2456
 9804TIP3    H250904   4.626   4.447   2.104 -0.1837 -0.0019  0.1548
 9805TIP3   OH250905   6.661   0.965   2.272  0.4440  0.3888  0.3250
 9805TIP3    H150906   6.567   0.962   2.290  0.5599 -0.6169  0.8302
 9805TIP3    H250907   6.701   0.972   2.358  0.8438  0.5794  0.1227
 9806TIP3   OH250908   2.008   6.661   0.068  0.1695 -0.6500 -0.5368
 9806TIP3    H150909   2.055   6.723   0.012 -1.3438 -0.8952 -2.1415
 9806TIP3    H250910   1.928   6.707   0.094  0.3943 -0.8968  0.6887
 9807TIP3   OH250911   1.146   4.396  16.552  0.0423  0.3928 -0.3101
 9807TIP3    H150912   1.178   4.445  16.476 -1.1469  0.7848 -0.5763
 9807TIP3    H250913   1.176   4.307  16.536  0.2097  0.5626 -1.0130
 9808TIP3   OH250914   0.521   2.756   5.052 -0.8150  0.2411 -0.2100
 9808TIP3    H150915   0.543   2.795   5.136  0.9883 -0.4016 -0.3397
 9808TIP3    H250916   0.577   2.801   4.989  0.1627 -1.3903 -0.5801
 9809TIP3   OH250917   6.232   4.733   3.198 -0.8986 -0.4007  0.0348
 9809TIP3    H150918   6.259   4.825   3.188 -3.1281  0.1753 -1.6294
 9809TIP3    H250919   6.177   4.732   3.276 -0.1264 -0.5464  0.5896
 9810TIP3   OH250920   6.365   1.370  12.589 -0.1292 -0.1171 -0.3462
 9810TIP3    H150921   6.332   1.385  12.678 -0.9058 -0.1548 -0.6167
 9810TIP3    H250922   6.297   1.406  12.532 -0.2090 -1.1515 -0.9407
 9811TIP3   OH250923   0.732   2.494   3.469 -0.0398  0.4990  0.1069
 9811TIP3    H150924   0.735   2.399   3.462  0.2768  0.5397 -0.3485
 9811TIP3    H250925   0.765   2.526   3.385  0.7733  1.0156  0.6093
 9812TIP3   OH250926   5.971   0.710   5.790  0.0501 -0.3278 -0.7147
 9812TIP3    H150927   5.916   0.643   5.749 -4.6832  2.2965  0.5365
 9812TIP3    H250928   5.974   0.686   5.883 -2.0903  1.2157 -0.1673
 9813TIP3   OH250929   5.430   5.919  14.550 -0.1573 -0.2329  0.1516
 9813TIP3    H150930   5.448   5.884  14.638 -1.4495 -0.6721  0.2600
 9813TIP3    H250931   5.399   5.843  14.501 -2.0588  0.5296  0.1048
 9814TIP3   OH250932   4.678   3.977   1.048 -0.2738 -0.0238  0.0872
 9814TIP3    H150933   4.652   3.906   1.107  1.4713 -0.8016  0.0132
 9814TIP3    H250934   4.603   3.990   0.991 -1.9140  0.5369  2.2345
 9815TIP3   OH250935   4.678   4.295  14.583  0.2209 -0.2866  0.2244
 9815TIP3    H150936   4.605   4.233  14.591  0.7495 -0.7672  1.9062
 9815TIP3    H250937   4.697   4.299  14.489 -0.7180 -1.6356 -0.0465
 9816TIP3   OH250938   1.765   6.748   1.685 -0.2633  0.0478 -0.5481
 9816TIP3    H150939   1.846   6.758   1.634 -1.0450  1.0620 -1.6642
 9816TIP3    H250940   1.710   6.691   1.631 -0.1377 -1.0305  0.4277
 9817TIP3   OH250941   5.113   4.617  13.714 -0.6210  0.4645 -0.2991
 9817TIP3    H150942   5.120   4.522  13.721  1.9768  0.6307  0.3886
 9817TIP3    H250943   5.031   4.639  13.758 -1.5040 -1.4718 -0.9031
 9818TIP3   OH250944   2.705   0.344  16.441  0.4993 -0.6433  0.2655
 9818TIP3    H150945   2.755   0.280  16.390  0.7101 -0.0011 -0.3519
 9818TIP3    H250946   2.634   0.370  16.383  0.1477 -0.6499  0.6866
 9819TIP3   OH250947   6.674   2.250  12.547 -0.2027 -0.0548  0.3196
 9819TIP3    H150948   6.628   2.331  12.526  0.3864  0.5730  1.3579
 9819TIP3    H250949   6.741   2.276  12.610  0.8151 -1.1471 -0.2726
 9820TIP3   OH250950   0.467   4.925  11.977  0.5646 -0.2034  0.5470
 9820TIP3    H150951   0.402   4.988  11.945  0.1443 -0.7080  0.3944
 9820TIP3    H250952   0.551   4.960  11.947  0.2200 -0.4679 -0.8031
 9821TIP3   OH250953   1.133   1.296   1.006  0.1038  0.3954  0.3775
 9821TIP3    H150954   1.106   1.355   0.935  0.1830  0.4552  0.3967
 9821TIP3    H250955   1.228   1.307   1.012 -0.0386  1.3018  1.2845
 9822TIP3   OH250956   0.573   4.825   3.667  0.0664  0.0539 -0.1710
 9822TIP3    H150957   0.636   4.896   3.669 -0.8381  0.9106 -1.1481
 9822TIP3    H250958   0.606   4.765   3.600  0.1872  0.1630 -0.2089
 9823TIP3   OH250959   4.135   6.122  14.679 -0.3213  0.1051 -0.4522
 9823TIP3    H150960   4.225   6.147  14.700 -0.5827 -0.1298  1.0163
 9823TIP3    H250961   4.144   6.037  14.635  0.0909 -0.8939  1.4544
 9824TIP3   OH250962   0.878   1.144  10.988 -0.2972 -0.0447 -0.5768
 9824TIP3    H150963   0.957   1.091  10.977  1.3225  2.4063 -1.6912
 9824TIP3    H250964   0.886   1.181  11.075  2.2949  3.6527 -2.0968
 9825TIP3   OH250965   6.089   5.365  13.098 -0.2784  0.3671 -0.9160
 9825TIP3    H150966   6.033   5.416  13.040 -2.3082 -3.0273 -2.2831
 9825TIP3    H250967   6.153   5.323  13.039  1.0135  0.8660  0.0695
 9826TIP3   OH250968   1.872   1.104   4.287  0.2996  0.5106 -0.9396
 9826TIP3    H150969   1.836   1.076   4.372  2.0307  0.2407 -0.2444
 9826TIP3    H250970   1.795   1.129   4.236 -0.8989 -0.4553  0.2873
 9827TIP3   OH250971   5.370   6.116  11.234 -0.2871  0.2385 -0.2027
 9827TIP3    H150972   5.403   6.029  11.254  1.1660  0.0204 -3.0409
 9827TIP3    H250973   5.299   6.130  11.297  1.8350 -1.4036  2.8072
 9828TIP3   OH250974   6.398   3.741   2.706 -0.4273  0.2025 -0.0243
 9828TIP3    H150975   6.431   3.782   2.626 -1.4607  1.3367  0.0982
 9828TIP3    H250976   6.309   3.714   2.685  0.1645 -1.8689 -0.0315
 9829TIP3   OH250977   3.308   3.942   2.220 -0.3444 -0.2578  0.3236
 9829TIP3    H150978   3.249   3.872   2.193 -0.7804  0.0239  0.5324
 9829TIP3    H250979   3.353   3.969   2.140 -0.5605 -0.4207  0.1475
 9830TIP3   OH250980   2.811   6.811   2.857 -0.2937 -0.2691  0.2373
 9830TIP3    H150981   2.859   6.880   2.810  1.6263 -1.0030  1.0085
 9830TIP3    H250982   2.791   6.851   2.942 -0.8514 -0.0517  0.0098
 9831TIP3   OH250983   1.747   4.887   2.336  0.5624 -0.0607 -0.1482
 9831TIP3    H150984   1.700   4.811   2.370  1.4146 -0.3804  0.3619
 9831TIP3    H250985   1.817   4.850   2.281  1.2908  0.3256  0.4978
 9832TIP3   OH250986   0.966   3.374   4.548 -0.4987  0.0063  0.0392
 9832TIP3    H150987   1.017   3.295   4.532  0.2881  0.9126 -2.3499
 9832TIP3    H250988   1.011   3.418   4.620  1.7859  0.4400 -1.5538
 9833TIP3   OH250989   6.635   3.041  16.395  0.4378  0.2486  0.6388
 9833TIP3    H150990   6.553   3.088  16.412 -0.4641 -0.9879 -0.0941
 9833TIP3    H250991   6.662   3.071  16.308  0.1324 -0.1763  0.3896
 9834TIP3   OH250992   0.006   3.383  12.035  0.2556 -0.3410 -0.1028
 9834TIP3    H150993  -0.079   3.397  11.994  0.4011  0.0237 -0.2835
 9834TIP3    H250994   0.027   3.467  12.075  0.3889 -0.5198  0.2091
 9835TIP3   OH250995   3.302   5.198   3.040  0.6320  0.0690  0.0404
 9835TIP3    H150996   3.331   5.285   3.068  0.3313  0.0299  0.4846
 9835TIP3    H250997   3.336   5.189   2.951 -0.4269  1.1610 -0.5019
 9836TIP3   OH250998   1.135   1.707   4.359  0.2354  0.1187 -0.1670
 9836TIP3    H150999   1.152   1.793   4.396  1.1785 -0.0994 -0.0778
 9836TIP3    H251000   1.102   1.655   4.433  1.2929 -0.0743  0.1785
 9837TIP3   OH251001   6.112   1.626   4.195 -0.0252  0.1260  0.1436
 9837TIP3    H151002   6.106   1.558   4.128 -1.4687 -1.2897  1.5973
 9837TIP3    H251003   6.187   1.601   4.248 -1.4443 -1.2800  1.5777
 9838TIP3   OH251004   2.729   0.303  12.241  0.1802  0.0116  0.4344
 9838TIP3    H151005   2.754   0.338  12.327 -0.1608  0.2756  0.4299
 9838TIP3    H251006   2.635   0.285  12.249  0.2955 -0.6805  0.3575
 9839TIP3   OH251007   1.567   5.651  13.031 -0.6051 -0.7474 -0.4319
 9839TIP3    H151008   1.594   5.741  13.010 -0.1120 -0.5811  0.8234
 9839TIP3    H251009   1.633   5.596  12.988 -0.1902 -0.4545 -0.1877
 9840TIP3   OH251010   2.972   0.756  16.991 -0.0325 -0.0530  0.5908
 9840TIP3    H151011   3.028   0.721  17.060 -1.0645  2.5714  2.9504
 9840TIP3    H251012   2.999   0.847  16.981 -1.9447  0.4837 -0.2627
 9841TIP3   OH251013   0.103   6.414  16.210 -0.8238 -0.1818  0.4624
 9841TIP3    H151014   0.102   6.328  16.167  0.7960  1.0026 -2.2045
 9841TIP3    H251015   0.018   6.452  16.190 -0.0594  0.4031 -2.0696
 9842TIP3   OH251016   1.643   4.681  10.538 -0.2065  0.2217 -0.3314
 9842TIP3    H151017   1.568   4.741  10.535 -0.4924 -0.0005  1.4672
 9842TIP3    H251018   1.616   4.606  10.486 -0.8978  0.5070 -0.3922
 9843TIP3   OH251019   5.075   0.667   0.664 -0.4063  0.4894 -0.4027
 9843TIP3    H151020   5.098   0.728   0.734 -0.1706 -0.3558  0.2723
 9843TIP3    H251021   4.981   0.650   0.677  0.0057 -1.0495  0.8465
 9844TIP3   OH251022   4.572   3.754   5.220 -0.5782  0.2324 -0.1094
 9844TIP3    H151023   4.568   3.751   5.124  0.0202  2.0742 -0.2430
 9844TIP3    H251024   4.612   3.671   5.245  0.0724  0.0884 -1.5255
 9845TIP3   OH251025   6.361   4.614   0.794  0.3933 -0.0174 -0.1802
 9845TIP3    H151026   6.408   4.661   0.862  1.1503 -0.0443 -0.6667
 9845TIP3    H251027   6.394   4.651   0.712  0.6204 -1.0316 -0.5619
 9846TIP3   OH251028   5.374   1.854  15.569 -0.1862  0.1828  0.0178
 9846TIP3    H151029   5.286   1.827  15.594 -0.2476 -0.5669 -0.9468
 9846TIP3    H251030   5.362   1.936  15.522 -0.2681  0.5369  0.6390
 9847TIP3   OH251031   2.844   4.843   4.504 -0.0799  0.1798 -0.0044
 9847TIP3    H151032   2.879   4.805   4.584 -0.6837  1.2897  0.8064
 9847TIP3    H251033   2.900   4.918   4.486 -2.6050  2.8128  2.0536
 9848TIP3   OH251034   6.724   3.310  14.045  0.0278  0.5156 -0.4078
 9848TIP3    H151035   6.649   3.367  14.059  0.8954  1.2092  1.9345
 9848TIP3    H251036   6.800   3.369  14.044  0.7997 -0.4095  0.4634
 9849TIP3   OH251037   2.287   3.760   3.918 -0.0142 -0.2933  0.2302
 9849TIP3    H151038   2.250   3.803   3.840 -0.6272  1.2457  1.3154
 9849TIP3    H251039   2.318   3.675   3.886 -1.5049 -0.2813 -1.4029
 9850TIP3   OH251040   4.524   4.306  10.754 -0.0522  0.0521  0.1535
 9850TIP3    H151041   4.538   4.382  10.811 -1.7712  1.4249 -1.1477
 9850TIP3    H251042   4.588   4.317  10.684 -1.4777  1.3729 -1.0069
 9851TIP3   OH251043   1.762   0.986   2.007 -0.8367  0.2662 -0.0310
 9851TIP3    H151044   1.858   0.990   2.001 -0.6682  0.9274  2.2618
 9851TIP3    H251045   1.733   0.976   1.916  1.2774  2.7987 -1.1232
 9852TIP3   OH251046   0.892   0.232   4.595 -0.2059 -0.0125  0.6705
 9852TIP3    H151047   0.924   0.153   4.551 -0.1659 -0.1499  0.9410
 9852TIP3    H251048   0.863   0.289   4.524  0.8810  0.2193  0.4064
 9853TIP3   OH251049   3.691   6.394   1.489  0.1597  0.2996 -0.4818
 9853TIP3    H151050   3.677   6.423   1.579 -0.8133 -0.9297 -0.2052
 9853TIP3    H251051   3.652   6.307   1.486  1.4316 -0.2574 -1.7270
 9854TIP3   OH251052   2.700   1.855  13.175  0.0763 -0.2410  0.2896
 9854TIP3    H151053   2.638   1.928  13.175 -2.0252 -1.9006 -0.7502
 9854TIP3    H251054   2.673   1.800  13.249 -2.5170 -3.0343 -2.4311
 9855TIP3   OH251055   1.379   6.440  11.769 -0.0399 -0.5499  0.3458
 9855TIP3    H151056   1.433   6.480  11.702  0.0396 -1.7124 -0.3151
 9855TIP3    H251057   1.419   6.354  11.784 -1.5623 -1.3678 -0.0184
 9856TIP3   OH251058   6.617   2.350   6.800  0.2205  0.3915 -0.2015
 9856TIP3    H151059   6.566   2.430   6.813 -1.4394 -0.5286 -0.7672
 9856TIP3    H251060   6.591   2.320   6.713 -1.3204 -2.2044  1.0507
 9857TIP3   OH251061   1.461   2.646  16.092 -0.1084 -0.5161 -0.6352
 9857TIP3    H151062   1.454   2.735  16.056 -1.1619 -0.6157 -0.7174
 9857TIP3    H251063   1.372   2.624  16.118  0.2731 -1.2752  0.0668
 9858TIP3   OH251064   5.893   1.018   4.788  0.1079  0.3728 -0.0062
 9858TIP3    H151065   5.973   0.981   4.751 -0.2283 -0.1902 -0.1882
 9858TIP3    H251066   5.920   1.102   4.825  0.8908 -0.0461  0.4027
 9859TIP3   OH251067   5.227   4.154  16.363 -0.3369 -0.3646  0.3752
 9859TIP3    H151068   5.134   4.149  16.342 -0.1468  0.6813 -0.8574
 9859TIP3    H251069   5.231   4.209  16.441 -0.7030  0.4204 -0.1490
 9860TIP3   OH251070   6.471   1.801  12.678 -0.1620  0.3734 -0.0550
 9860TIP3    H151071   6.492   1.890  12.707 -0.7211 -0.0104  1.7078
 9860TIP3    H251072   6.377   1.803  12.659 -0.0335  0.3234 -0.7154
 9861TIP3   OH251073   2.336   3.562  14.378 -0.0744 -0.4557  0.4262
 9861TIP3    H151074   2.390   3.588  14.453 -1.2440  1.3427  0.7193
 9861TIP3    H251075   2.293   3.481  14.407  0.3983 -0.4373  1.2318
 9862TIP3   OH251076   0.346   3.342  11.287 -0.2606  0.2491  0.1981
 9862TIP3    H151077   0.301   3.335  11.371 -0.7225 -1.4509 -0.1577
 9862TIP3    H251078   0.423   3.395  11.306 -0.2193 -0.3188  1.7738
 9863TIP3   OH251079   2.040   2.367   4.965 -0.3649  0.2664 -0.0551
 9863TIP3    H151080   2.083   2.393   4.884  0.7498 -1.8946 -0.2299
 9863TIP3    H251081   2.111   2.331   5.020 -1.3258  0.3071  1.2693
 9864TIP3   OH251082   4.927   4.753  12.721  0.2303 -0.0418 -0.0475
 9864TIP3    H151083   4.891   4.746  12.809 -0.2989 -0.5577 -0.3018
 9864TIP3    H251084   4.871   4.698  12.667  0.8296 -0.1067 -0.6249
 9865TIP3   OH251085   1.612   0.021   1.436  0.0338 -0.2979  0.1596
 9865TIP3    H151086   1.587   0.073   1.360  1.3667 -0.3159 -0.3203
 9865TIP3    H251087   1.694   0.061   1.465  1.6249 -2.6775 -0.7997
 9866TIP3   OH251088   2.451   1.141  16.450 -0.4248 -0.9716  0.4659
 9866TIP3    H151089   2.464   1.139  16.355 -2.3696 -1.9543  0.1737
 9866TIP3    H251090   2.459   1.233  16.473 -2.0562 -0.3979 -1.0281
 9867TIP3   OH251091   1.275   3.395   3.144 -0.2386 -0.4730 -0.3278
 9867TIP3    H151092   1.192   3.430   3.110 -0.0457 -0.0715 -0.3904
 9867TIP3    H251093   1.343   3.438   3.092 -0.0406 -3.4925 -2.8280
 9868TIP3   OH251094   1.558   6.394   4.599 -0.5971 -0.4023 -0.0543
 9868TIP3    H151095   1.467   6.418   4.581 -0.1373  1.2582 -0.3634
 9868TIP3    H251096   1.564   6.302   4.576 -1.7835 -0.1208 -1.6549
 9869TIP3   OH251097   3.816   5.569  12.681 -0.1099  0.2711  0.3425
 9869TIP3    H151098   3.772   5.576  12.765  0.8286  1.6604  0.7593
 9869TIP3    H251099   3.888   5.633  12.686 -0.2831  0.6974 -1.6650
 9870TIP3   OH251100   4.153   5.748   3.843  0.4158 -0.1468 -0.5036
 9870TIP3    H151101   4.230   5.691   3.842  1.8477  1.5746  1.9311
 9870TIP3    H251102   4.156   5.793   3.759  2.2258  0.0490 -0.3609
 9871TIP3   OH251103   0.294   1.917   5.098  0.3574  0.4441 -0.2962
 9871TIP3    H151104   0.382   1.953   5.090  0.7277 -0.5437 -0.8930
 9871TIP3    H251105   0.275   1.880   5.011 -1.3195  2.1085 -0.7104
 9872TIP3   OH251106   2.992   2.765  17.105 -0.6508 -0.0762  0.1586
 9872TIP3    H151107   3.049   2.779  17.180 -1.2916  2.4221  0.2893
 9872TIP3    H251108   2.905   2.753  17.142 -0.7736 -0.1158 -0.1338
 9873TIP3   OH251109   2.516   2.289   4.175  0.3557  0.1673 -0.2051
 9873TIP3    H151110   2.609   2.263   4.179  0.6090  1.0775  0.0102
 9873TIP3    H251111   2.503   2.344   4.252  0.0205  1.2631 -1.0240
 9874TIP3   OH251112   3.586   4.856  12.029  0.1302  0.5753 -0.1810
 9874TIP3    H151113   3.596   4.948  12.006  0.4224  0.2093 -1.6875
 9874TIP3    H251114   3.554   4.815  11.948  0.0370 -0.6413  0.4470
 9875TIP3   OH251115   1.736   3.703   0.875  0.1807  0.4925  0.4809
 9875TIP3    H151116   1.730   3.620   0.828 -0.5661  0.8764 -0.1390
 9875TIP3    H251117   1.808   3.691   0.937 -0.0713 -0.7000  0.5742
 9876TIP3   OH251118   1.133   1.477   3.178 -0.4535  0.4345 -0.3958
 9876TIP3    H151119   1.076   1.401   3.194  1.2134 -0.4970  1.6210
 9876TIP3    H251120   1.128   1.528   3.259  1.0612  0.6672 -0.4207
 9877TIP3   OH251121   4.640   5.338   2.235 -0.5003 -0.4405  0.3159
 9877TIP3    H151122   4.699   5.274   2.275  0.9558  1.6855  1.7921
 9877TIP3    H251123   4.575   5.355   2.303 -0.5061  0.0864  0.1754
 9878TIP3   OH251124   3.924   2.590   5.619  0.0315 -0.2089  0.1037
 9878TIP3    H151125   3.844   2.538   5.625  1.2145 -1.9916  1.0879
 9878TIP3    H251126   3.941   2.599   5.525 -0.8281 -0.5659 -0.0894
 9879TIP3   OH251127   3.558   0.121  12.655  0.1294  0.1294 -0.0098
 9879TIP3    H151128   3.604   0.163  12.583 -0.4580  0.9661  0.0899
 9879TIP3    H251129   3.625   0.109  12.723  0.2599  1.1366  0.0519
 9880TIP3   OH251130   0.543   1.630   2.672  0.4950 -0.2356 -0.0196
 9880TIP3    H151131   0.529   1.546   2.717 -1.0175  0.6545  1.2444
 9880TIP3    H251132   0.456   1.667   2.662  1.2111  1.7009  0.4629
 9881TIP3   OH251133   1.357   0.109  16.233  0.0138 -0.1431 -0.0265
 9881TIP3    H151134   1.308   0.149  16.305 -0.0601  1.6675 -1.0226
 9881TIP3    H251135   1.290   0.072  16.176 -0.1662  1.2776 -0.7767
 9882TIP3   OH251136   2.888   5.812   1.717  0.1114  0.0543  0.4514
 9882TIP3    H151137   2.859   5.721   1.720 -1.8303  0.6478  1.3381
 9882TIP3    H251138   2.884   5.834   1.624 -1.2099 -0.2655  0.4032
 9883TIP3   OH251139   4.469   0.226   2.270  0.3085  0.3396 -0.0039
 9883TIP3    H151140   4.481   0.243   2.177 -0.0053 -0.4757 -0.1974
 9883TIP3    H251141   4.547   0.264   2.311  2.5710 -2.8506 -1.0005
 9884TIP3   OH251142   3.828   2.577   3.205  0.3702  0.0809 -0.1258
 9884TIP3    H151143   3.915   2.552   3.235  0.3022  1.4322  1.2990
 9884TIP3    H251144   3.845   2.647   3.141  0.3312  1.8511  1.6938
 9885TIP3   OH251145   2.519   5.752   1.676  0.2945  0.3263 -0.4025
 9885TIP3    H151146   2.456   5.692   1.717  0.5044  0.9507  0.8639
 9885TIP3    H251147   2.466   5.804   1.615 -0.1013 -0.3268 -0.6244
 9886TIP3   OH251148   3.155   5.889  13.697  0.5381 -0.2253  0.1137
 9886TIP3    H151149   3.130   5.935  13.777  3.8046 -0.6506  1.5487
 9886TIP3    H251150   3.150   5.956  13.628  0.3722  0.9098  1.1975
 9887TIP3   OH251151   5.861   6.492   5.096  0.0482  0.2730 -0.5007
 9887TIP3    H151152   5.941   6.440   5.098  0.8275  1.4474 -0.1048
 9887TIP3    H251153   5.833   6.497   5.187 -0.5752 -0.2558 -0.6535
 9888TIP3   OH251154   4.768   2.871   2.314  0.0816 -0.3736 -0.8501
 9888TIP3    H151155   4.677   2.899   2.300  0.2179 -0.1243 -1.2531
 9888TIP3    H251156   4.761   2.783   2.351 -0.4085  0.6722  1.8043
 9889TIP3   OH251157   4.478   2.096   2.508 -0.3847 -0.8045 -0.2320
 9889TIP3    H151158   4.418   2.064   2.440 -1.2179  0.8475 -0.3417
 9889TIP3    H251159   4.518   2.174   2.469 -1.2976  0.5167  1.3403
 9890TIP3   OH251160   5.182   4.447  14.169 -0.1553  0.2249  0.2598
 9890TIP3    H151161   5.203   4.535  14.140 -1.0886  1.1674  2.2970
 9890TIP3    H251162   5.133   4.409  14.096  1.4924  0.8016 -1.2406
 9891TIP3   OH251163   2.614   3.808   1.296 -0.2096  0.0881 -0.4576
 9891TIP3    H151164   2.649   3.814   1.385  2.1264  0.9131 -1.3437
 9891TIP3    H251165   2.566   3.890   1.283  1.9134  1.3586 -0.8402
 9892TIP3   OH251166   1.291   3.365   5.340 -0.0954 -0.7584 -0.4429
 9892TIP3    H151167   1.327   3.368   5.252  2.2350  0.4349  0.4686
 9892TIP3    H251168   1.223   3.298   5.336 -0.9517  0.1448 -3.4291
 9893TIP3   OH251169   1.229   0.077  13.211  0.1662  0.4326  0.1111
 9893TIP3    H151170   1.177   0.145  13.168 -0.7436 -0.1361  0.2678
 9893TIP3    H251171   1.212  -0.002  13.160 -0.1956 -0.0475  0.9480
 9894TIP3   OH251172   4.740   6.036  10.565 -0.5166 -0.4271 -0.4760
 9894TIP3    H151173   4.790   6.110  10.531 -1.0336 -0.1830 -0.7238
 9894TIP3    H251174   4.806   5.972  10.593  0.1261  1.5035  3.0791
 9895TIP3   OH251175   2.565   6.730  16.151 -0.0678 -0.1305 -0.1009
 9895TIP3    H151176   2.530   6.766  16.233  0.4917  0.4430 -0.1048
 9895TIP3    H251177   2.492   6.683  16.112 -0.4526 -0.0688  0.5364
 9896TIP3   OH251178   1.492   5.042  13.382 -0.3555  0.3369  0.1281
 9896TIP3    H151179   1.526   5.129  13.360  0.3652 -0.2527 -1.1887
 9896TIP3    H251180   1.551   4.981  13.338 -0.3188 -0.8662  1.7500
 9897TIP3   OH251181   6.156   6.804   0.927 -0.2918 -0.0371 -0.0380
 9897TIP3    H151182   6.137   6.852   0.846  0.7969 -0.3468 -0.4976
 9897TIP3    H251183   6.146   6.868   0.997  1.1943  0.9120 -0.6505
 9898TIP3   OH251184   6.742   4.466  12.287  0.4923  0.0045  0.3483
 9898TIP3    H151185   6.764   4.401  12.354  1.6468  0.1983  0.1706
 9898TIP3    H251186   6.709   4.541  12.337 -0.2213 -0.4685  0.5916
 9899TIP3   OH251187   3.025   6.821   3.738 -0.0221  0.0574 -0.1629
 9899TIP3    H151188   3.047   6.796   3.648 -1.0189  0.8503 -0.6409
 9899TIP3    H251189   2.967   6.752   3.768 -0.9579  0.5954 -0.6936
 9900TIP3   OH251190   2.498   4.870   2.795  0.3508  0.3339  0.2178
 9900TIP3    H151191   2.489   4.965   2.800 -1.5632  0.3380 -1.5054
 9900TIP3    H251192   2.486   4.851   2.702 -0.9890 -1.7081  0.7528
 9901TIP3   OH251193   1.468   3.202  13.415  0.0785 -0.0947  0.7698
 9901TIP3    H151194   1.521   3.183  13.338  0.5694 -0.8498  1.2820
 9901TIP3    H251195   1.530   3.205  13.488 -0.5533 -0.9234  1.3638
 9902TIP3   OH251196   0.608   4.954  15.280  0.7177 -0.4699 -0.0958
 9902TIP3    H151197   0.650   4.869  15.262 -0.7808 -1.1636 -0.4447
 9902TIP3    H251198   0.549   4.937  15.353 -0.2066  0.0569 -0.6991
 9903TIP3   OH251199   6.412   4.073  16.455  0.1113  0.3417  0.6139
 9903TIP3    H151200   6.459   3.992  16.436  0.0674  0.3791  0.3458
 9903TIP3    H251201   6.350   4.082  16.383  0.6934  1.0629  0.1968
 9904TIP3   OH251202   1.279   5.161   5.171  0.2268 -0.2863 -0.2432
 9904TIP3    H151203   1.299   5.124   5.085 -0.8926  0.7100 -0.9788
 9904TIP3    H251204   1.183   5.156   5.176  0.3600 -1.8709  1.6855
 9905TIP3   OH251205   0.333   2.092   5.560  0.4465 -1.2301 -0.0491
 9905TIP3    H151206   0.319   2.142   5.479 -1.3894  2.0261  2.0548
 9905TIP3    H251207   0.425   2.103   5.581  0.1607  1.1152  0.1564
 9906TIP3   OH251208   3.160   3.272   0.848  0.4828 -0.0892  0.2673
 9906TIP3    H151209   3.230   3.299   0.788 -0.8138 -0.8003 -1.6601
 9906TIP3    H251210   3.079   3.303   0.807 -0.4203  0.2093  2.1531
 9907TIP3   OH251211   1.275   6.393   2.527  0.8255 -0.1668 -0.6949
 9907TIP3    H151212   1.252   6.484   2.508 -1.2102 -0.8142 -1.5454
 9907TIP3    H251213   1.198   6.343   2.502  2.0714 -2.1972 -0.6659
 9908TIP3   OH251214   6.386   0.427   5.053  0.2330  0.3389 -0.6533
 9908TIP3    H151215   6.375   0.397   5.144  2.1106  0.3507 -0.3829
 9908TIP3    H251216   6.406   0.520   5.061 -0.8937  0.6453 -1.1941
 9909TIP3   OH251217   4.020   4.091  14.151  0.1446  0.1351 -0.5058
 9909TIP3    H151218   3.956   4.162  14.151  0.0965  0.1589  1.5296
 9909TIP3    H251219   4.062   4.096  14.065 -2.0714  0.5483 -1.6295
 9910TIP3   OH251220   2.228   5.317  11.738 -0.2055  0.0028 -0.3556
 9910TIP3    H151221   2.295   5.293  11.674  2.1280 -0.9375  2.2400
 9910TIP3    H251222   2.219   5.412  11.728  1.0186  0.0544 -1.2176
 9911TIP3   OH251223   4.631   1.586  11.651 -0.2769 -0.0885  0.7072
 9911TIP3    H151224   4.722   1.594  11.622 -0.3426  1.4950  0.8627
 9911TIP3    H251225   4.636   1.577  11.746 -0.2544 -0.8776  0.6363
 9912TIP3   OH251226   0.021   4.307   1.309  0.1560  0.3971  0.1219
 9912TIP3    H151227  -0.050   4.243   1.312  1.1817 -0.7633  2.6233
 9912TIP3    H251228   0.009   4.352   1.226 -3.2132 -0.0457  0.2229
 9913TIP3   OH251229   5.456   3.100  13.966  0.3891 -0.1183 -0.1864
 9913TIP3    H151230   5.545   3.130  13.985  0.4901  1.0934 -2.2370
 9913TIP3    H251231   5.428   3.154  13.892 -1.3794 -1.6968 -0.7522
 9914TIP3   OH251232   1.085   3.186   0.173  0.3408  0.2905 -0.2342
 9914TIP3    H151233   1.173   3.202   0.137  1.0667 -2.9361 -0.2078
 9914TIP3    H251234   1.090   3.219   0.263  1.5054  0.2344 -0.2608
 9915TIP3   OH251235   1.373   5.247  16.997  0.3151 -0.4036  0.5263
 9915TIP3    H151236   1.421   5.294  17.066  1.1131  1.4875 -1.2331
 9915TIP3    H251237   1.286   5.233  17.034  0.6773  0.6861  1.8728
 9916TIP3   OH251238   3.163   2.895  16.268  0.4064  0.3779  0.1167
 9916TIP3    H151239   3.106   2.929  16.337 -0.7620  0.7822 -1.0012
 9916TIP3    H251240   3.195   2.974  16.223  1.4850  0.1365  0.4220
 9917TIP3   OH251241   5.903   1.133  13.849  0.0570 -0.0064 -0.8420
 9917TIP3    H151242   5.938   1.183  13.775  2.3652 -0.9037 -0.4275
 9917TIP3    H251243   5.952   1.051  13.848 -0.4207 -0.3732  1.2181
 9918TIP3   OH251244   1.312   4.013  15.176 -0.4617 -1.1338  0.1598
 9918TIP3    H151245   1.221   4.024  15.148 -0.7374 -2.4698  0.4182
 9918TIP3    H251246   1.306   3.961  15.257  0.4682  0.0785  1.0496
 9919TIP3   OH251247   6.059   5.597  14.060 -0.2547  0.4031  0.3481
 9919TIP3    H151248   6.080   5.675  14.111  2.0173  0.7592 -1.0306
 9919TIP3    H251249   6.121   5.597  13.988 -0.6809 -2.2898 -0.1345
 9920TIP3   OH251250   4.846   1.384  13.944  0.1215 -0.3424 -0.3370
 9920TIP3    H151251   4.903   1.408  13.871  0.7454 -0.2940  0.1579
 9920TIP3    H251252   4.903   1.338  14.005 -0.2092  0.2843  0.4704
 9921TIP3   OH251253   2.917   4.552   3.149 -0.2488 -0.1929  0.6760
 9921TIP3    H151254   2.894   4.512   3.233 -0.7552 -0.9213  0.2010
 9921TIP3    H251255   2.936   4.478   3.091 -0.5879  0.2746 -0.0463
 9922TIP3   OH251256   0.081   3.193   3.377  0.7209 -0.2672 -0.0537
 9922TIP3    H151257   0.082   3.108   3.422  0.3579 -0.2180  0.0496
 9922TIP3    H251258   0.173   3.217   3.372  0.7298  0.2882  1.7732
 9923TIP3   OH251259   3.654   6.632   4.190 -0.3299 -0.1273  0.2594
 9923TIP3    H151260   3.648   6.546   4.148  0.9099  0.1677 -0.5459
 9923TIP3    H251261   3.731   6.625   4.247 -1.0032  0.0354  1.2272
 9924TIP3   OH251262   6.375   1.833   2.435 -0.4562 -0.8035 -0.0440
 9924TIP3    H151263   6.282   1.814   2.420 -1.2779  1.5221  1.4150
 9924TIP3    H251264   6.409   1.859   2.350 -0.9166 -2.4229 -0.7443
 9925TIP3   OH251265   5.202   4.033  16.906  0.1651  0.0912  0.1888
 9925TIP3    H151266   5.124   4.086  16.923  0.4564  0.6764 -0.2356
 9925TIP3    H251267   5.249   4.033  16.990  0.6588  1.3736 -0.0624
 9926TIP3   OH251268   4.777   2.800   6.068  0.2134  0.3534 -0.3556
 9926TIP3    H151269   4.828   2.741   6.014 -0.1137 -1.3736  1.1331
 9926TIP3    H251270   4.707   2.831   6.010  0.2398 -0.9313 -1.1174
 9927TIP3   OH251271   2.871   1.535  11.941  0.5511  0.0030  0.3820
 9927TIP3    H151272   2.855   1.595  12.014  2.8012  0.9468  0.1889
 9927TIP3    H251273   2.966   1.536  11.930  0.3156 -0.4297 -2.2993
 9928TIP3   OH251274   0.473   6.210   2.537  0.5191  0.7090 -0.5019
 9928TIP3    H151275   0.522   6.215   2.618 -1.9878 -0.5579  1.2260
 9928TIP3    H251276   0.482   6.118   2.510  2.6254  1.4285 -2.6512
 9929TIP3   OH251277   1.242   3.964  11.051  0.3199 -0.7721  0.1276
 9929TIP3    H151278   1.288   4.026  10.995  0.1254  0.3215  1.1259
 9929TIP3    H251279   1.279   3.979  11.138 -0.5744 -1.2125  0.6028
 9930TIP3   OH251280   3.299   6.660  11.723  0.0481 -0.1018 -0.6369
 9930TIP3    H151281   3.217   6.696  11.759  2.0157  2.9993  1.1808
 9930TIP3    H251282   3.327   6.725  11.659  3.5135  1.7403  2.3866
 9931TIP3   OH251283   6.075   2.193  15.099  0.1751  0.0254  0.8265
 9931TIP3    H151284   6.129   2.271  15.111  2.3725 -1.2917 -0.0691
 9931TIP3    H251285   6.004   2.222  15.041  1.8748  1.0052 -0.8678
 9932TIP3   OH251286   5.908   3.490  16.153  0.3242  0.0513 -0.3994
 9932TIP3    H151287   5.947   3.409  16.120 -1.0334  0.3484 -2.9941
 9932TIP3    H251288   5.826   3.463  16.193  0.0477  0.0861 -0.9345
 9933TIP3   OH251289   5.877   2.970  12.780  0.3217 -0.2523  0.5192
 9933TIP3    H151290   5.965   2.945  12.809  0.5076  0.4403  0.5482
 9933TIP3    H251291   5.838   2.887  12.751  0.2453 -0.9133  2.3962
 9934TIP3   OH251292   2.270   3.293   4.668 -0.7995 -0.3124  0.1473
 9934TIP3    H151293   2.324   3.263   4.595 -0.7006  1.9152 -0.7694
 9934TIP3    H251294   2.290   3.387   4.677 -3.4128  0.2974  0.7159
 9935TIP3   OH251295   6.701   5.318   5.485 -0.2543  0.0654  0.4259
 9935TIP3    H151296   6.742   5.301   5.569  0.3570  0.0725  0.1364
 9935TIP3    H251297   6.661   5.234   5.460 -0.0726 -0.0506  0.5275
 9936TIP3   OH251298   1.034   0.621  16.603 -0.3870 -0.1892  0.3272
 9936TIP3    H151299   1.083   0.555  16.651 -0.1055  0.4813  0.9810
 9936TIP3    H251300   1.085   0.635  16.523  2.0862  2.4049  2.1325
 9937TIP3   OH251301   4.930   1.713  12.137 -0.8347  0.0967 -0.0394
 9937TIP3    H151302   4.835   1.728  12.135 -0.4584  2.9252 -1.2576
 9937TIP3    H251303   4.946   1.677  12.225 -2.9056  0.4508  0.5558
 9938TIP3   OH251304   2.636   5.103   4.688 -0.6439 -0.0983  0.1979
 9938TIP3    H151305   2.574   5.176   4.694 -1.6622 -1.0189  1.4101
 9938TIP3    H251306   2.613   5.047   4.761  1.3314 -0.7326  0.3671
 9939TIP3   OH251307   4.998   0.958   4.895 -0.3338 -0.0827  0.4216
 9939TIP3    H151308   5.044   0.923   4.819 -1.8601 -0.5735 -0.3093
 9939TIP3    H251309   4.906   0.938   4.879 -0.6445 -0.7469  2.6940
 9940TIP3   OH251310   4.933   4.375  12.471 -0.0333  0.5308 -0.6427
 9940TIP3    H151311   4.984   4.325  12.535 -0.7064  1.6442  0.8300
 9940TIP3    H251312   4.997   4.431  12.428  0.3341  0.2338 -0.4929
 9941TIP3   OH251313   1.217   1.191   4.349  0.1748 -0.2312 -0.5282
 9941TIP3    H151314   1.305   1.156   4.335  0.5693 -1.1095  3.1622
 9941TIP3    H251315   1.159   1.124   4.312  1.0055 -0.4514 -1.4772
 9942TIP3   OH251316   5.864   6.311  16.014 -0.3810  0.9220 -0.4479
 9942TIP3    H151317   5.780   6.351  16.033  0.3469  2.9563 -1.2598
 9942TIP3    H251318   5.846   6.217  16.011 -3.0572  1.3949 -2.6514
 9943TIP3   OH251319   2.599   4.330   4.060  0.2957 -0.1087 -0.7671
 9943TIP3    H151320   2.520   4.378   4.086  0.3799 -0.0740 -0.5727
 9943TIP3    H251321   2.565   4.252   4.016  0.1210 -0.5856  0.1675
 9944TIP3   OH251322   2.519   4.823  14.728  0.3327  0.3601 -0.2965
 9944TIP3    H151323   2.572   4.770  14.787  0.2088 -0.7087 -1.1248
 9944TIP3    H251324   2.581   4.887  14.692  0.5802  0.5030  0.3563
 9945TIP3   OH251325   1.612   5.748  14.163  0.3299  0.4447 -0.6026
 9945TIP3    H151326   1.557   5.825  14.174 -1.4714 -0.9996  1.5691
 9945TIP3    H251327   1.562   5.691  14.104  1.0729  0.4439 -1.2374
 9946TIP3   OH251328   3.551   0.417  15.641  0.0134 -0.0060 -0.1337
 9946TIP3    H151329   3.597   0.471  15.705 -1.0164  0.3887  0.2967
 9946TIP3    H251330   3.596   0.435  15.558  0.0059  1.1546  0.0899
 9947TIP3   OH251331   2.473   6.484  12.902  0.1798  0.2624 -0.3213
 9947TIP3    H151332   2.495   6.400  12.861 -2.2643 -0.2731 -0.7092
 9947TIP3    H251333   2.433   6.535  12.831  1.8839  1.9465 -0.1731
 9948TIP3   OH251334   0.459   6.265  11.548  0.0887 -0.3624  0.6790
 9948TIP3    H151335   0.434   6.174  11.564 -0.2468 -0.1300  1.5180
 9948TIP3    H251336   0.478   6.301  11.635 -1.6202  0.8813  0.5990
 9949TIP3   OH251337   4.254   5.562  13.799  0.4897 -0.2164 -0.0599
 9949TIP3    H151338   4.236   5.469  13.784  2.6095 -0.8623  0.9835
 9949TIP3    H251339   4.350   5.569  13.793  0.4214  1.7758  0.5484
 9950TIP3   OH251340   5.514   5.452   3.426  0.1570 -0.2332 -1.0499
 9950TIP3    H151341   5.559   5.453   3.342  1.0556 -1.2868 -0.5985
 9950TIP3    H251342   5.533   5.366   3.463  0.3367  0.4443  0.5237
 9951TIP3   OH251343   3.434   3.348  11.163  0.0631 -0.4030  0.5116
 9951TIP3    H151344   3.428   3.264  11.208 -0.9347 -0.9125 -0.5384
 9951TIP3    H251345   3.489   3.401  11.220 -1.4292 -0.9005  2.5528
 9952TIP3   OH251346   4.088   5.905   4.366 -0.0012 -0.1243  0.1484
 9952TIP3    H151347   3.996   5.930   4.362 -0.1772 -0.6892  0.5962
 9952TIP3    H251348   4.103   5.856   4.284  0.0256  0.3502 -0.1365
 9953TIP3   OH251349   6.811   6.229   0.556 -0.0033 -0.2380 -0.3051
 9953TIP3    H151350   6.744   6.290   0.525  0.6605  0.2472 -0.8243
 9953TIP3    H251351   6.774   6.190   0.635 -0.3034  1.1072  0.2422
 9954TIP3   OH251352   5.587   5.313   5.883 -0.3335 -0.2267  0.2856
 9954TIP3    H151353   5.567   5.225   5.916 -1.2913  0.3244  1.2345
 9954TIP3    H251354   5.542   5.372   5.943 -1.9122  0.8471 -1.7835
 9955TIP3   OH251355   2.477   2.782   5.286  0.3359 -0.0411  0.1257
 9955TIP3    H151356   2.425   2.718   5.237  1.6897 -1.3208  0.2909
 9955TIP3    H251357   2.447   2.867   5.253 -3.3978 -0.5114  1.7337
 9956TIP3   OH251358   5.697   3.386   1.207  0.7740  0.2893 -0.5852
 9956TIP3    H151359   5.702   3.304   1.256 -0.1804  0.4537 -0.1954
 9956TIP3    H251360   5.776   3.434   1.233 -0.6552  1.2660  2.4592
 9957TIP3   OH251361   4.556   3.090  14.032 -0.7283  0.1125 -0.6770
 9957TIP3    H151362   4.612   3.012  14.024 -1.9410 -0.8396 -0.1712
 9957TIP3    H251363   4.618   3.161  14.051  0.3168 -0.9243 -0.0338
 9958TIP3   OH251364   4.015   1.328   1.301 -0.2367 -0.0263 -0.4184
 9958TIP3    H151365   4.065   1.376   1.234  0.4350 -0.3117 -0.1295
 9958TIP3    H251366   3.927   1.366   1.297 -0.0665  0.3146 -1.1077
 9959TIP3   OH251367   0.971   5.184   3.156  0.3908 -0.0024 -0.2033
 9959TIP3    H151368   1.032   5.129   3.205  1.9113  0.9074 -0.9942
 9959TIP3    H251369   0.945   5.253   3.217 -1.7319 -1.6282  0.8810
 9960TIP3   OH251370   5.889   4.076  16.217 -0.3427 -0.1921 -0.3692
 9960TIP3    H151371   5.795   4.059  16.226 -0.3102 -0.0616  0.2289
 9960TIP3    H251372   5.928   3.990  16.207 -0.7087 -0.1815 -2.6005
 9961TIP3   OH251373   5.044   1.298   1.328 -0.2218 -0.1096 -0.2099
 9961TIP3    H151374   5.032   1.358   1.254  0.9663  0.5057  0.0690
 9961TIP3    H251375   5.036   1.211   1.290  0.7225  0.1864 -1.1435
 9962TIP3   OH251376   0.974   0.598   0.805 -0.1148  0.3971  0.3245
 9962TIP3    H151377   1.047   0.637   0.756 -0.3268 -0.2276 -0.5141
 9962TIP3    H251378   0.978   0.505   0.785 -0.5322  0.2069  1.0924
 9963TIP3   OH251379   1.929   4.934   1.876  0.0515  0.3708 -0.1647
 9963TIP3    H151380   1.903   5.026   1.878 -0.1355  0.3253 -0.4389
 9963TIP3    H251381   2.018   4.935   1.841  0.3622  0.5107  0.5923
 9964TIP3   OH251382   3.938   4.333   1.597 -0.1860 -0.1103 -0.4872
 9964TIP3    H151383   3.951   4.423   1.567 -0.1670  0.5778  1.4262
 9964TIP3    H251384   4.026   4.298   1.607 -0.1722 -0.0935 -0.5554
 9965TIP3   OH251385   6.228   1.064  16.192 -0.5340  0.0452  0.4038
 9965TIP3    H151386   6.320   1.091  16.187 -0.5515  0.2501  1.0476
 9965TIP3    H251387   6.209   1.028  16.106  0.0497  0.3299  0.1470
 9966TIP3   OH251388   0.398   1.706   0.723 -0.7489 -0.0422  0.2542
 9966TIP3    H151389   0.361   1.794   0.712 -0.8439  0.3132  2.7062
 9966TIP3    H251390   0.339   1.649   0.674 -1.5082  1.1045 -0.2179
 9967TIP3   OH251391   2.333   2.897   2.860  0.4971  0.2010  0.1771
 9967TIP3    H151392   2.355   2.923   2.950 -2.1688 -0.2263  1.0427
 9967TIP3    H251393   2.361   2.971   2.806  1.3363  0.8464  1.4488
 9968TIP3   OH251394   0.507   0.833  15.750 -0.5487 -0.1801 -0.2704
 9968TIP3    H151395   0.465   0.768  15.806  0.5805 -1.2273 -0.6258
 9968TIP3    H251396   0.496   0.916  15.797  0.1666 -0.9990  1.3899
 9969TIP3   OH251397   6.693   0.191  12.030  0.2797  0.5137 -0.4155
 9969TIP3    H151398   6.624   0.163  11.971  0.3909  1.3393 -0.9502
 9969TIP3    H251399   6.661   0.167  12.117  0.2811 -1.0457 -0.8130
 9970TIP3   OH251400   0.781   0.025   5.794  0.2219  0.4156  0.4945
 9970TIP3    H151401   0.829   0.105   5.817 -0.6941  1.0553  0.2442
 9970TIP3    H251402   0.812  -0.041   5.855  0.5122  1.1404  1.1369
 9971TIP3   OH251403   0.053   0.453   2.664  0.2328  0.1521  0.7064
 9971TIP3    H151404   0.034   0.478   2.574  3.2020 -0.3296 -0.1356
 9971TIP3    H251405   0.042   0.534   2.715  0.9346  1.0190 -0.4908
 9972TIP3   OH251406   3.409   1.816  10.458  0.1814 -0.2184 -0.3168
 9972TIP3    H151407   3.373   1.763  10.529 -1.8660  0.9412 -0.4191
 9972TIP3    H251408   3.445   1.893  10.502 -1.2621  0.5926 -0.5091
 9973TIP3   OH251409   5.871   6.104  12.507  0.2874  0.6156  0.7867
 9973TIP3    H151410   5.807   6.122  12.438  0.9768 -2.3315 -0.8043
 9973TIP3    H251411   5.955   6.106  12.461  0.7950 -1.0503  1.5897
 9974TIP3   OH251412   5.124   1.163  15.538  0.5899  0.6676 -0.0659
 9974TIP3    H151413   5.045   1.211  15.511  0.1090  1.2613  2.1621
 9974TIP3    H251414   5.179   1.162  15.460 -1.9726 -0.6471 -2.0524
 9975TIP3   OH251415   5.950   4.061  15.746  0.2473  0.4527 -0.0115
 9975TIP3    H151416   6.004   4.092  15.818  1.0351 -1.8733  0.5100
 9975TIP3    H251417   5.860   4.077  15.775  0.5658  0.0708  1.2627
 9976TIP3   OH251418   2.795   2.018   3.161 -0.0657 -0.3067 -0.6483
 9976TIP3    H151419   2.710   1.998   3.122  0.8237  0.5462 -3.2566
 9976TIP3    H251420   2.820   2.102   3.123  0.1311  1.6664  3.3199
 9977TIP3   OH251421   3.241   0.097  12.978 -0.4666  0.0405  0.3125
 9977TIP3    H151422   3.317   0.153  12.995 -1.4689  1.5149  0.2274
 9977TIP3    H251423   3.167   0.158  12.978 -1.5645 -1.2382 -0.3253
 9978TIP3   OH251424   6.720   3.508  14.746 -0.0611  0.1117 -0.2583
 9978TIP3    H151425   6.634   3.494  14.708 -0.0598 -0.4167 -0.0724
 9978TIP3    H251426   6.762   3.572  14.688 -1.1672  1.6438  0.5793
 9979TIP3   OH251427   0.977   4.247   0.745 -0.2058 -0.1912  0.4581
 9979TIP3    H151428   1.059   4.206   0.717 -0.5610  0.2482 -1.3034
 9979TIP3    H251429   0.914   4.224   0.677 -0.4991  2.9932 -0.5214
 9980TIP3   OH251430   1.362   3.132   3.092 -0.2074 -0.1327 -0.3078
 9980TIP3    H151431   1.434   3.181   3.054 -0.0122 -0.0622  0.1398
 9980TIP3    H251432   1.296   3.198   3.112 -0.8432 -0.3212 -1.6780
 9981TIP3   OH251433   2.449   0.220   1.590 -0.4780 -0.0938  0.4246
 9981TIP3    H151434   2.519   0.224   1.655 -0.1279  2.2580  0.0147
 9981TIP3    H251435   2.472   0.145   1.535  1.9733  0.7705  0.1076
 9982TIP3   OH251436   5.806   6.022   5.915  0.0328  0.2244  0.0785
 9982TIP3    H151437   5.808   6.037   5.821  0.0404 -0.6178 -0.0650
 9982TIP3    H251438   5.811   5.927   5.924 -1.8603  0.1610  0.8639
 9983TIP3   OH251439   0.301   0.355  14.053 -0.3576 -0.2172  0.1672
 9983TIP3    H151440   0.383   0.399  14.034 -0.7439  1.4432  2.0401
 9983TIP3    H251441   0.256   0.349  13.968  1.3477 -0.5296 -0.7566
 9984TIP3   OH251442   2.818   6.213   1.729  0.2846 -0.3843 -0.1380
 9984TIP3    H151443   2.784   6.214   1.818  0.6104 -1.1219  0.0023
 9984TIP3    H251444   2.760   6.153   1.681  0.6644 -0.7135 -0.1904
 9985TIP3   OH251445   2.888   1.247  14.402 -0.2183  0.4640  0.1175
 9985TIP3    H151446   2.823   1.290  14.457 -0.3187 -0.5558  0.8211
 9985TIP3    H251447   2.844   1.168  14.369  0.2789  0.3683 -0.3411
 9986TIP3   OH251448   0.055   4.608  12.650  0.1768  0.2982 -0.7408
 9986TIP3    H151449   0.087   4.685  12.698  2.3234  0.4034 -2.1942
 9986TIP3    H251450   0.014   4.645  12.572  1.5116 -0.0018 -1.6075
 9987TIP3   OH251451   3.509   0.696   5.309 -0.2541 -0.1398 -0.3512
 9987TIP3    H151452   3.585   0.642   5.326 -0.3908 -0.0470  0.5872
 9987TIP3    H251453   3.521   0.773   5.365  0.3364  1.2071 -2.2262
 9988TIP3   OH251454   1.363   3.046  14.408  0.5983  0.3372 -0.0191
 9988TIP3    H151455   1.437   3.104  14.427  2.1356 -1.3180 -0.6335
 9988TIP3    H251456   1.402   2.973  14.360 -1.3396 -0.9454  0.2557
 9989TIP3   OH251457   4.204   0.195   2.157  0.8720  0.2505  0.3980
 9989TIP3    H151458   4.229   0.151   2.076  1.2128 -1.4700  1.3727
 9989TIP3    H251459   4.253   0.148   2.226 -0.9626  0.2778  1.8026
 9990TIP3   OH251460   1.683   0.531  17.148  0.0604  0.2254  0.0368
 9990TIP3    H151461   1.724   0.445  17.148 -1.7297 -0.7656 -2.6628
 9990TIP3    H251462   1.670   0.552  17.055 -1.1603  2.5979  0.6431
 9991TIP3   OH251463   1.170   5.133  14.422 -0.0600  0.5025 -0.3487
 9991TIP3    H151464   1.105   5.201  14.441  0.5648  1.1162 -0.3579
 9991TIP3    H251465   1.244   5.154  14.480  0.3795  0.1888 -0.7890
 9992TIP3   OH251466   1.725   1.744  12.106  0.1904  0.1975  0.1327
 9992TIP3    H151467   1.815   1.764  12.077  0.7454 -1.6517  0.4418
 9992TIP3    H251468   1.729   1.749  12.201  0.4868 -1.6639  0.2629
 9993TIP3   OH251469   0.772   3.378  11.751 -0.7780  0.2238  0.1254
 9993TIP3    H151470   0.729   3.371  11.666 -1.1174 -1.2430  0.3760
 9993TIP3    H251471   0.863   3.357  11.734 -0.5749  1.2195 -0.0680
 9994TIP3   OH251472   3.645   2.358  12.027  0.2372  0.4002 -0.5160
 9994TIP3    H151473   3.698   2.310  12.090 -0.6477 -0.6179 -0.5156
 9994TIP3    H251474   3.560   2.368  12.070  0.2878  1.6707 -0.6644
 9995TIP3   OH251475   6.154   4.919   6.071  0.1752  0.4773  0.2283
 9995TIP3    H151476   6.202   4.996   6.039  0.9174 -0.2203 -0.3993
 9995TIP3    H251477   6.215   4.878   6.132 -0.7498  1.1094  1.6386
 9996TIP3   OH251478   4.209   1.038   1.861 -0.0280 -0.2105  0.1955
 9996TIP3    H151479   4.173   1.013   1.946 -0.3122 -2.8289 -0.6001
 9996TIP3    H251480   4.182   0.967   1.802  2.7325 -0.0555 -1.4149
 9997TIP3   OH251481   1.001   6.181  14.891  0.9847  0.6615 -0.2082
 9997TIP3    H151482   0.923   6.223  14.929 -0.0026 -0.0558 -1.3614
 9997TIP3    H251483   1.074   6.216  14.941 -0.2324 -0.2911  2.4358
 9998TIP3   OH251484   5.526   2.486  16.342 -0.4425  0.2054 -0.2531
 9998TIP3    H151485   5.528   2.563  16.284 -0.0723  0.7701  0.4876
 9998TIP3    H251486   5.442   2.494  16.388 -2.1018 -1.7762 -2.6825
 9999TIP3   OH251487   4.777   3.660  14.186  0.4158 -0.1760  0.6859
 9999TIP3    H151488   4.788   3.755  14.193  0.2503  0.1963 -2.4881
 9999TIP3    H251489   4.852   3.632  14.133 -0.7078 -1.4663 -0.2710
10000TIP3   OH251490   4.213   4.088  13.316 -0.5965  0.5185 -0.2024
10000TIP3    H151491   4.138   4.143  13.293 -1.6107 -0.1789  1.2628
10000TIP3    H251492   4.280   4.150  13.346 -0.7583  1.1172 -1.0478
10001TIP3   OH251493   0.574   4.050  16.250 -0.0092 -0.0050 -0.1536
10001TIP3    H151494   0.499   3.993  16.232 -0.2414  0.0085  0.7344
10001TIP3    H251495   0.636   3.994  16.297  0.5962 -0.0496 -0.9905
10002TIP3   OH251496   6.620   1.651  17.170 -0.1070 -0.8067 -0.4289
10002TIP3    H151497   6.672   1.724  17.204 -0.2094 -2.5151  4.0644
10002TIP3    H251498   6.679   1.575  17.175 -1.7459 -2.0509  0.8192
10003TIP3   OH251499   3.629   6.543   0.452 -0.0351  0.7197  0.3082
10003TIP3    H151500   3.647   6.586   0.536 -1.0130  0.0884  0.8676
10003TIP3    H251501   3.534   6.533   0.451  0.1172 -0.9985  0.0015
10004TIP3   OH251502   5.111   0.800  12.501  0.2020 -0.4218  0.1931
10004TIP3    H151503   5.194   0.848  12.503  1.3916 -2.3275 -0.4283
10004TIP3    H251504   5.079   0.810  12.411  0.8880 -1.4214 -0.1845
10005TIP3   OH251505   6.074   4.379  16.972 -0.1893  0.3536 -0.1872
10005TIP3    H151506   6.153   4.417  16.933 -0.7534  0.5074 -1.2112
10005TIP3    H251507   6.035   4.451  17.022  0.7018  0.0704  0.9702
10006TIP3   OH251508   4.124   0.425   1.989  0.6886  0.0916 -0.3228
10006TIP3    H151509   4.093   0.495   2.047 -0.9542 -0.4295 -0.5328
10006TIP3    H251510   4.155   0.357   2.048  0.6517  0.2701 -0.0933
10007TIP3   OH251511   2.516   2.794  13.378  0.3345 -0.2194  0.1886
10007TIP3    H151512   2.555   2.733  13.441  0.4457  0.1184  0.4490
10007TIP3    H251513   2.511   2.877  13.425  0.6310  0.0921 -0.3285
10008TIP3   OH251514   1.592   3.238  12.375  0.1205  0.1422 -0.3723
10008TIP3    H151515   1.612   3.322  12.334  0.0805  0.2782 -0.1186
10008TIP3    H251516   1.677   3.195  12.387  0.0824 -0.1637 -1.1477
10009TIP3   OH251517   3.495   2.709   5.816 -0.2151  0.1256 -0.6908
10009TIP3    H151518   3.454   2.780   5.866  0.9300  0.1245  0.2655
10009TIP3    H251519   3.444   2.631   5.838  0.1114  0.1783  0.2679
10010TIP3   OH251520   5.678   3.616   2.420 -0.3302 -0.3428 -0.6635
10010TIP3    H151521   5.595   3.568   2.420 -0.5433 -0.0135  0.5034
10010TIP3    H251522   5.744   3.550   2.398 -0.6467 -1.1335  0.6600
10011TIP3   OH251523   1.857   2.579  11.776 -0.0141  0.2214  0.0926
10011TIP3    H151524   1.801   2.519  11.727 -2.0733  1.2733  1.0540
10011TIP3    H251525   1.887   2.529  11.852  1.2678 -0.6688 -0.9503
10012TIP3   OH251526   1.168   1.995   4.969  0.0443  0.0657 -0.5248
10012TIP3    H151527   1.183   2.087   4.949  0.5364  0.1326  0.0834
10012TIP3    H251528   1.214   1.947   4.900 -0.4096  0.2696 -0.9737
10013TIP3   OH251529   6.291   5.038   2.600 -0.0907  0.2622 -0.9501
10013TIP3    H151530   6.314   5.062   2.511 -1.1972 -1.1246 -1.6539
10013TIP3    H251531   6.278   4.943   2.597 -0.0521  0.1694  0.7104
10014TIP3   OH251532   2.306   5.019  12.769 -0.3686 -0.1242 -0.3980
10014TIP3    H151533   2.285   5.062  12.686  0.2904  0.7160 -0.1448
10014TIP3    H251534   2.238   4.952  12.779 -1.9525  1.3850 -0.4173
10015TIP3   OH251535   4.304   5.869  11.151 -0.0638  0.5268 -0.1169
10015TIP3    H151536   4.265   5.946  11.192 -2.4786 -1.0119  0.6819
10015TIP3    H251537   4.287   5.880  11.057 -2.1212  0.1016  0.1775
10016TIP3   OH251538   5.084   5.870   0.381 -0.4027 -0.0602 -0.0774
10016TIP3    H151539   5.018   5.858   0.312 -1.0527 -1.2927  0.7102
10016TIP3    H251540   5.160   5.906   0.335 -2.1354  3.0888 -0.7465
10017TIP3   OH251541   5.786   1.021   1.064  0.5382 -0.2460  0.0113
10017TIP3    H151542   5.838   1.094   1.096  1.1912 -0.6702 -0.0672
10017TIP3    H251543   5.695   1.051   1.072  0.8029  0.6546 -0.2454
10018TIP3   OH251544   2.223   1.313   3.496  0.7184  0.0832 -0.2702
10018TIP3    H151545   2.164   1.351   3.562  0.3379 -1.6259  0.4107
10018TIP3    H251546   2.305   1.361   3.509 -0.1632  1.7471 -0.5062
10019TIP3   OH251547   5.770   1.379  12.290 -0.7894 -0.0872 -0.1657
10019TIP3    H151548   5.859   1.400  12.259 -0.6675  1.2361  0.9848
10019TIP3    H251549   5.720   1.459  12.274 -1.8192 -0.8574 -0.8872
10020TIP3   OH251550   3.658   6.710  13.660  0.3307 -0.4349 -0.1977
10020TIP3    H151551   3.680   6.628  13.703 -1.4980 -1.0969 -0.4231
10020TIP3    H251552   3.689   6.701  13.570 -0.8694 -1.3820 -0.5415
10021TIP3   OH251553   0.909   6.432   4.188 -0.0906 -0.3105  0.2295
10021TIP3    H151554   0.824   6.401   4.156 -0.0135 -0.1931 -0.0911
10021TIP3    H251555   0.940   6.491   4.119 -0.0089  0.0921  0.6127
10022TIP3   OH251556   2.385   0.421  12.699 -0.0955 -0.4028  0.1380
10022TIP3    H151557   2.323   0.398  12.630  0.3938 -0.6969 -0.2167
10022TIP3    H251558   2.433   0.496  12.665  0.7789 -1.1126 -0.2558
10023TIP3   OH251559   5.299   2.727  12.766 -0.3060 -0.6431  0.6213
10023TIP3    H151560   5.348   2.651  12.797  0.9818  0.4847  1.5036
10023TIP3    H251561   5.248   2.755  12.842  0.5003  0.3174  0.8420
10024TIP3   OH251562   3.227   5.965  17.288 -0.4483  0.0257  0.1689
10024TIP3    H151563   3.192   5.911  17.358 -0.6537  0.7615  0.6452
10024TIP3    H251564   3.150   5.996  17.241 -0.2821 -1.4747 -1.1878
10025TIP3   OH251565   4.968   1.735   1.980 -0.3066  0.2987 -0.1690
10025TIP3    H151566   4.920   1.729   2.062  0.9237  0.9575  0.6314
10025TIP3    H251567   5.028   1.660   1.982 -0.8853 -0.1998 -0.8992
10026TIP3   OH251568   3.873   0.514   3.411 -0.2680  1.1372  0.3096
10026TIP3    H151569   3.793   0.473   3.445  0.4124  0.6526  1.4025
10026TIP3    H251570   3.843   0.587   3.357 -1.5133 -0.2916 -1.0274
10027TIP3   OH251571   3.064   5.883  16.199 -0.0582 -0.5670  0.2827
10027TIP3    H151572   3.088   5.795  16.172 -0.6249 -0.4474 -0.6504
10027TIP3    H251573   3.042   5.928  16.118 -1.9438 -0.2324  0.9352
10028TIP3   OH251574   3.267   6.272  14.778 -0.1050 -0.0394 -0.7271
10028TIP3    H151575   3.236   6.311  14.860  0.1475  1.1731 -1.1864
10028TIP3    H251576   3.300   6.346  14.727  2.0263 -1.0327 -0.9365
10029TIP3   OH251577   5.563   2.194  12.094  0.3351  0.0050  0.3371
10029TIP3    H151578   5.649   2.183  12.053  0.3447 -0.3659  0.4497
10029TIP3    H251579   5.538   2.284  12.074  0.3181 -0.1825 -0.5165
10030TIP3   OH251580   2.998   3.668  16.739  0.1778  0.3828  0.5734
10030TIP3    H151581   2.989   3.745  16.796 -0.0917  0.0771  0.9538
10030TIP3    H251582   2.940   3.603  16.778  0.0816  0.1261  0.0090
10031TIP3   OH251583   1.328   4.496   4.330  0.2557 -0.1212  0.0976
10031TIP3    H151584   1.363   4.408   4.317  0.0399  0.1485 -3.2370
10031TIP3    H251585   1.268   4.509   4.257 -0.2555  2.5529  0.8776
10032TIP3   OH251586   1.925   2.055   5.771 -0.0940 -0.1647  0.4256
10032TIP3    H151587   2.008   2.029   5.812  0.5517  1.0664 -0.0625
10032TIP3    H251588   1.878   2.102   5.840  0.6538  1.2138  0.0309
10033TIP3   OH251589   0.121   4.407   5.193 -0.1003 -0.2732  0.1558
10033TIP3    H151590   0.175   4.381   5.267  0.0693  0.6593  0.3682
10033TIP3    H251591   0.081   4.325   5.162  2.9849 -1.3748 -1.2979
10034TIP3   OH251592   0.447   0.612   2.456  0.1082 -0.2288  0.0320
10034TIP3    H151593   0.393   0.671   2.402  0.6403 -0.7561 -1.1081
10034TIP3    H251594   0.478   0.546   2.394 -2.7112 -3.4217  1.7054
10035TIP3   OH251595   0.263   4.064   0.006 -0.3111  0.4084  0.5230
10035TIP3    H151596   0.278   4.146  -0.041 -1.5997  0.4795  0.1865
10035TIP3    H251597   0.290   4.082   0.096  1.7959  0.4007 -0.0473
10036TIP3   OH251598   3.078   2.588   5.771 -0.2184  0.5211  0.0339
10036TIP3    H151599   3.069   2.673   5.814 -0.9337  1.1882 -1.3481
10036TIP3    H251600   3.017   2.592   5.697  1.2136 -0.4105 -1.2719
10037TIP3   OH251601   1.297   3.838  15.530  1.1554  0.1059  0.8166
10037TIP3    H151602   1.227   3.793  15.578  1.1054  1.1489  1.7455
10037TIP3    H251603   1.284   3.930  15.549  1.1902  0.5600 -1.1572
10038TIP3   OH251604   1.798   5.425  17.116 -0.1568 -0.0599 -0.0200
10038TIP3    H151605   1.885   5.442  17.152  0.2128 -0.2770 -0.7906
10038TIP3    H251606   1.744   5.496  17.150  0.3278  0.1084  0.4233
10039TIP3   OH251607   3.168   0.542  10.466 -0.5045 -0.0100  0.0708
10039TIP3    H151608   3.180   0.456  10.506  2.5499 -0.6111 -1.7449
10039TIP3    H251609   3.123   0.525  10.384 -1.1009  0.3153  0.3268
10040TIP3   OH251610   6.087   3.300   3.865 -0.1783  0.8990  0.3466
10040TIP3    H151611   5.993   3.292   3.850 -0.1883  2.1250 -0.3859
10040TIP3    H251612   6.097   3.293   3.960 -1.2421  2.6533  0.6170
10041TIP3   OH251613   0.482   4.646   4.921 -0.1723  0.0043 -0.6836
10041TIP3    H151614   0.387   4.658   4.921 -0.0853  0.9852  0.9977
10041TIP3    H251615   0.498   4.572   4.978  0.1045  0.1697 -0.5423
10042TIP3   OH251616   6.652   2.801   3.157  0.4611 -0.0329 -0.3961
10042TIP3    H151617   6.729   2.841   3.197  0.2984  0.3904 -0.4963
10042TIP3    H251618   6.683   2.765   3.074  1.1833 -2.4096  0.8089
10043TIP3   OH251619   4.062   3.206  14.787  0.2274  0.0672 -0.5783
10043TIP3    H151620   4.035   3.127  14.834  0.5088  0.0851 -0.3884
10043TIP3    H251621   3.986   3.228  14.732 -0.0965  0.0465 -0.1420
10044TIP3   OH251622   0.856   5.727   2.232  0.1471  0.4872  0.2958
10044TIP3    H151623   0.922   5.797   2.236 -1.6529  2.3191 -0.0876
10044TIP3    H251624   0.835   5.709   2.324  0.2083  0.8898  0.3919
10045TIP3   OH251625   1.290   4.104  13.521 -0.8375 -0.3304 -0.5450
10045TIP3    H151626   1.335   4.042  13.464  0.2803 -2.1409  2.0949
10045TIP3    H251627   1.360   4.151  13.565 -1.6542  0.7380 -0.3628
10046TIP3   OH251628   5.292   4.930  14.869 -0.1327 -0.1132 -0.0523
10046TIP3    H151629   5.274   5.021  14.843 -2.3218 -1.1955 -2.8725
10046TIP3    H251630   5.379   4.913  14.833 -0.3536  0.4411 -0.8991
10047TIP3   OH251631   4.758   0.880  13.840 -0.4549 -0.1415 -0.4804
10047TIP3    H151632   4.689   0.946  13.849 -0.3438 -0.0061 -0.6060
10047TIP3    H251633   4.781   0.857  13.930 -0.8431 -0.3793 -0.4402
10048TIP3   OH251634   6.644   3.491  15.467 -0.0556  0.5427 -0.1513
10048TIP3    H151635   6.637   3.404  15.427 -1.3664 -0.2284  1.5774
10048TIP3    H251636   6.560   3.503  15.512  0.5355  2.2181  0.5834
10049TIP3   OH251637   1.704   3.515  15.885  0.0740 -0.3327  0.1453
10049TIP3    H151638   1.788   3.559  15.899  0.4901 -0.8824 -0.5803
10049TIP3    H251639   1.663   3.564  15.814 -1.3015  1.4121  2.0121
10050TIP3   OH251640   6.053   5.847  12.323  0.0438 -0.3336 -0.7019
10050TIP3    H151641   6.058   5.818  12.414  0.8171  2.2616  0.1706
10050TIP3    H251642   6.144   5.863  12.298 -0.2675  0.3222 -1.4638
10051TIP3   OH251643   4.162   2.487  10.959 -0.5348  0.5085  0.2656
10051TIP3    H151644   4.181   2.397  10.933  0.0240  0.7119 -0.0490
10051TIP3    H251645   4.170   2.538  10.879  2.3245  1.3163  0.9439
10052TIP3   OH251646   0.093   5.824   1.230  1.1556 -0.2189 -0.1952
10052TIP3    H151647   0.125   5.770   1.158 -0.5574  2.4585 -3.2627
10052TIP3    H251648   0.068   5.907   1.188 -2.4268  0.6419  3.0695
10053TIP3   OH251649   5.033   6.349  15.016 -0.1971  0.2110 -0.3696
10053TIP3    H151650   4.962   6.291  15.040  1.7494 -1.3542  2.0492
10053TIP3    H251651   5.076   6.306  14.943  0.5325 -0.8577  0.6602
10054TIP3   OH251652   6.557   1.853  14.183 -0.3366  0.2504  0.0086
10054TIP3    H151653   6.484   1.834  14.242  0.3544  0.2627  0.8862
10054TIP3    H251654   6.580   1.944  14.202  0.2790  0.0711  0.1710
10055TIP3   OH251655   5.256   0.930   5.698 -0.0530  0.8923  0.0613
10055TIP3    H151656   5.350   0.921   5.715 -0.4437  0.3691  2.3920
10055TIP3    H251657   5.247   0.921   5.604  1.7998 -3.3436  0.0842
10056TIP3   OH251658   0.061   4.478  15.179 -0.4733 -0.2376  0.0577
10056TIP3    H151659   0.041   4.542  15.247 -0.9210 -0.0987 -0.2021
10056TIP3    H251660   0.154   4.490  15.161  0.2912 -1.9207  2.3686
10057TIP3   OH251661   1.794   0.273  17.173 -0.5825 -0.5455  0.0765
10057TIP3    H151662   1.884   0.275  17.143 -0.9040  0.4113 -0.8814
10057TIP3    H251663   1.764   0.184  17.154  0.3287 -1.0830  1.0185
10058TIP3   OH251664   0.264   1.050   1.982 -0.4600 -1.2914 -0.7586
10058TIP3    H151665   0.360   1.048   1.989 -0.3107  2.0680  0.0708
10058TIP3    H251666   0.235   1.076   2.069 -1.9752 -0.3427 -1.5114
10059TIP3   OH251667   1.892   4.900  16.637 -0.2786  0.4273 -0.7764
10059TIP3    H151668   1.799   4.919  16.626 -0.6010 -0.5262  0.1446
10059TIP3    H251669   1.910   4.915  16.730  0.6498  1.2035 -1.0562
10060TIP3   OH251670   6.028   3.446  13.238 -0.1511 -0.1236  0.4161
10060TIP3    H151671   5.970   3.370  13.237  1.1965 -1.1986 -0.4831
10060TIP3    H251672   5.976   3.518  13.204 -1.3191 -0.7375  0.8580
10061TIP3   OH251673   3.256   3.930   1.172 -0.2038 -0.2741  0.0322
10061TIP3    H151674   3.249   3.909   1.265  0.0996 -0.2435  0.0636
10061TIP3    H251675   3.309   3.860   1.135  0.0610 -0.0435 -0.0316
10062TIP3   OH251676   4.634   6.048   1.451  0.0539 -0.3073 -0.4702
10062TIP3    H151677   4.575   5.978   1.477 -2.6154  1.9826  0.2129
10062TIP3    H251678   4.611   6.068   1.361  0.8303 -0.3490 -0.6834
10063TIP3   OH251679   4.073   4.753   3.478 -0.5269  0.7312 -0.1800
10063TIP3    H151680   4.151   4.697   3.486 -1.2299 -0.3669 -0.6941
10063TIP3    H251681   4.063   4.767   3.384 -0.4635  1.5845 -0.0629
10064TIP3   OH251682   1.048   0.056  14.573  0.1958 -0.2974  0.5494
10064TIP3    H151683   0.966   0.023  14.537 -0.4183 -1.2239  2.6572
10064TIP3    H251684   1.048   0.149  14.554 -0.9049 -0.4503 -0.2601
10065TIP3   OH251685   2.469   6.271   4.064  0.1765  0.3463  0.3079
10065TIP3    H151686   2.435   6.301   4.149  1.3547 -1.0878  1.3475
10065TIP3    H251687   2.551   6.318   4.053  0.8937 -0.7427  0.8413
10066TIP3   OH251688   4.490   6.788   5.321  0.0701 -0.0375 -0.0419
10066TIP3    H151689   4.421   6.814   5.383 -0.2997  0.3441 -0.6022
10066TIP3    H251690   4.447   6.725   5.263  0.0922  0.4608 -0.6060
10067TIP3   OH251691   4.126   0.153   3.235 -0.2858  0.5467  0.3849
10067TIP3    H151692   4.177   0.100   3.175 -0.4989  1.6467 -0.8209
10067TIP3    H251693   4.037   0.152   3.199 -1.2177 -1.4008  2.4846
10068TIP3   OH251694   6.284   1.484   3.667  0.0447  0.3337 -0.6068
10068TIP3    H151695   6.243   1.524   3.743 -0.5905 -0.0325 -0.7478
10068TIP3    H251696   6.257   1.392   3.671  2.2539 -0.3243  0.2540
10069TIP3   OH251697   5.713   5.120   5.001  0.2312  0.0101 -0.4791
10069TIP3    H151698   5.742   5.042   4.953  0.1313 -1.0335  1.1093
10069TIP3    H251699   5.659   5.086   5.072 -1.2670  1.6500 -0.7678
10070TIP3   OH251700   0.807   3.649  13.848 -0.7145  0.6105  0.0673
10070TIP3    H151701   0.890   3.634  13.894 -0.1972  2.1773 -0.2800
10070TIP3    H251702   0.804   3.744  13.836 -2.8403  0.6312  0.5378
10071TIP3   OH251703   3.456   5.210  16.572  0.6214  0.2331 -0.0370
10071TIP3    H151704   3.464   5.248  16.485  3.3818  0.2310  0.1230
10071TIP3    H251705   3.433   5.119  16.557  0.4421  0.3913 -0.7268
10072TIP3   OH251706   0.886   6.686   0.858  0.6918 -0.1840 -1.0516
10072TIP3    H151707   0.813   6.666   0.916  1.0018  1.1557 -0.1557
10072TIP3    H251708   0.891   6.610   0.799 -0.6746 -0.8202 -0.4022
10073TIP3   OH251709   6.346   6.599   3.523 -0.3838 -0.2920 -0.4724
10073TIP3    H151710   6.317   6.511   3.498  0.1670 -0.1841 -1.5685
10073TIP3    H251711   6.432   6.585   3.564 -0.3431 -0.2755 -0.5519
10074TIP3   OH251712   2.727   0.038   4.338 -0.0512  0.6971  0.0672
10074TIP3    H151713   2.717   0.132   4.323  1.2056  0.6720 -1.0549
10074TIP3    H251714   2.822   0.024   4.342 -0.1802 -0.7152 -1.0825
10075TIP3   OH251715   6.099   6.130   4.987 -0.2891  0.4487  0.1271
10075TIP3    H151716   6.056   6.152   4.904 -0.3983  0.7097  0.2519
10075TIP3    H251717   6.091   6.209   5.040  0.3485  0.4980  0.1538
10076TIP3   OH251718   6.746   3.955  13.929 -0.3868 -0.7506 -0.3694
10076TIP3    H151719   6.700   3.959  13.845 -0.9274 -0.2004 -0.0591
10076TIP3    H251720   6.686   3.997  13.991  1.5960  2.5407 -0.4391
10077TIP3   OH251721   6.381   3.139  10.899  0.2686 -0.0458  0.4438
10077TIP3    H151722   6.295   3.144  10.940 -0.3913 -1.5463 -0.6605
10077TIP3    H251723   6.400   3.229  10.873  0.5300  0.9183  3.5171
10078TIP3   OH251724   4.632   4.463   2.956  0.0881 -0.1845 -0.1989
10078TIP3    H151725   4.670   4.540   2.914 -0.5637  0.8738  1.0696
10078TIP3    H251726   4.653   4.473   3.049 -1.4827 -0.6208  0.2494
10079TIP3   OH251727   4.423   6.750   0.615  0.2944 -0.2342  0.3826
10079TIP3    H151728   4.409   6.700   0.535 -1.4893 -1.0080  1.1111
10079TIP3    H251729   4.510   6.789   0.605  0.3977 -0.8869 -1.5939
10080TIP3   OH251730   4.667   4.911  16.996 -0.2916 -0.2559 -0.0327
10080TIP3    H151731   4.740   4.865  16.955 -0.4247  2.1092 -3.2364
10080TIP3    H251732   4.709   4.981  17.047 -0.2639 -0.8049  0.7149
10081TIP3   OH251733   3.541   2.681   3.777  0.0748 -0.4335  0.4860
10081TIP3    H151734   3.520   2.666   3.869  0.8895  0.8780  0.9120
10081TIP3    H251735   3.490   2.759   3.753  1.4922  0.5243  0.4692
10082TIP3   OH251736   0.698   2.890  16.540  0.1010  0.2058  0.4963
10082TIP3    H151737   0.759   2.879  16.467 -2.3515 -0.5080 -1.5811
10082TIP3    H251738   0.670   2.801  16.561  0.3420  0.4514  2.0014
10083TIP3   OH251739   4.935   6.480   0.424  0.2374  0.2542  0.0389
10083TIP3    H151740   4.977   6.552   0.377  0.2587 -0.9729 -1.9186
10083TIP3    H251741   4.984   6.472   0.505  1.4492  1.2076 -0.5748
10084TIP3   OH251742   6.061   6.340   4.002  0.4344 -0.0361  0.4089
10084TIP3    H151743   6.075   6.348   3.907  0.8537 -0.5352  0.4253
10084TIP3    H251744   6.003   6.265   4.012 -2.5307  2.0727  0.3396
10085TIP3   OH251745   0.097   6.223  15.707 -0.1806  0.1958  0.2932
10085TIP3    H151746   0.113   6.177  15.789  0.0260  1.4147  0.9615
10085TIP3    H251747   0.114   6.315  15.727 -0.4124  0.5563 -1.0421
10086TIP3   OH251748   0.501   4.485  13.238 -0.2563  0.4435  0.0451
10086TIP3    H151749   0.561   4.519  13.304 -0.8487 -1.5161  1.6950
10086TIP3    H251750   0.520   4.536  13.159  1.7649  1.6030  1.2074
10087TIP3   OH251751   3.635   3.557  12.984 -0.3456 -0.1344 -0.0639
10087TIP3    H151752   3.656   3.623  12.918 -0.7389  0.9710  0.8928
10087TIP3    H251753   3.652   3.600  13.068 -0.4398 -1.3076  0.5826
10088TIP3   OH251754   5.581   3.927   1.032 -0.4664  0.3456 -0.3826
10088TIP3    H151755   5.584   3.845   0.982  0.9593  0.1881 -0.0987
10088TIP3    H251756   5.598   3.996   0.967  1.3509  0.1442 -0.1870
10089TIP3   OH251757   0.711   5.457   4.537  0.4727 -0.3697 -0.2618
10089TIP3    H151758   0.692   5.363   4.532  0.9248 -0.4901  0.1254
10089TIP3    H251759   0.788   5.462   4.594 -2.1226  0.5341  3.5791
10090TIP3   OH251760   0.052   2.227  13.266  0.6373  0.0618  0.5814
10090TIP3    H151761   0.071   2.264  13.353  0.4008  1.8697 -0.1041
10090TIP3    H251762  -0.043   2.234  13.258  0.5710 -0.8589  0.4889
10091TIP3   OH251763   6.512   2.299   0.160  0.0652  0.6744  0.1135
10091TIP3    H151764   6.482   2.389   0.173  0.8500  1.0195 -0.3977
10091TIP3    H251765   6.462   2.248   0.223 -1.8358  1.1719 -0.9073
10092TIP3   OH251766   0.086   0.195   2.120 -0.6694 -0.5237  0.0042
10092TIP3    H151767   0.043   0.261   2.065  0.5032  0.5889  0.3869
10092TIP3    H251768   0.146   0.150   2.061 -2.1576 -1.9675 -0.4908
10093TIP3   OH251769   4.976   4.917   0.262  0.0521  0.2927  0.2657
10093TIP3    H151770   4.906   4.962   0.215 -0.6115 -0.2652  0.7074
10093TIP3    H251771   4.934   4.840   0.300  0.8924 -0.0169  0.5896
10094TIP3   OH251772   3.539   4.699   1.074 -0.1374  0.5704 -0.3101
10094TIP3    H151773   3.462   4.704   1.131  0.3226  1.3503  0.2647
10094TIP3    H251774   3.594   4.631   1.114 -1.2599 -1.2156 -1.6762
10095TIP3   OH251775   4.901   6.808  12.338 -0.3823 -0.0318  0.2838
10095TIP3    H151776   4.968   6.778  12.399  0.4950 -0.4220 -0.8458
10095TIP3    H251777   4.907   6.903  12.340  0.6066 -0.0764 -0.2379
10096TIP3   OH251778   1.341   5.179   1.389  0.6385 -0.4060 -0.0841
10096TIP3    H151779   1.278   5.229   1.338  1.5599 -0.6734 -1.5480
10096TIP3    H251780   1.340   5.219   1.476  0.3056  1.2005 -0.8086
10097TIP3   OH251781   1.326   1.070  14.758 -0.3279  0.1152  0.2458
10097TIP3    H151782   1.293   1.160  14.750 -1.7984 -0.3456  0.9000
10097TIP3    H251783   1.252   1.015  14.731  0.6628 -0.9075 -0.4699
10098TIP3   OH251784   3.921   5.279  11.385  0.0223 -0.6023 -0.3185
10098TIP3    H151785   3.886   5.191  11.371 -0.1331 -0.5360 -0.3497
10098TIP3    H251786   4.005   5.264  11.428 -0.5962 -0.7331  0.9179
10099TIP3   OH251787   1.592   4.419   5.029 -0.2158 -0.0287  0.0137
10099TIP3    H151788   1.619   4.388   4.943  0.5311 -0.3917  0.3592
10099TIP3    H251789   1.500   4.441   5.020 -0.4758 -1.2477 -0.5660
10100TIP3   OH251790   5.895   0.821  13.222  0.0830 -0.7280  0.0132
10100TIP3    H151791   5.988   0.818  13.200  0.2142 -1.1281  0.5911
10100TIP3    H251792   5.853   0.856  13.144  0.6451 -1.1828 -0.5041
10101TIP3   OH251793   3.562   1.049   3.877  0.7064 -0.1500  0.0957
10101TIP3    H151794   3.469   1.046   3.855  0.8758  3.1142 -1.6198
10101TIP3    H251795   3.587   0.957   3.888 -2.5800 -1.1487  0.2527
10102TIP3   OH251796   6.262   5.035   5.674 -0.1525 -0.2976 -0.1778
10102TIP3    H151797   6.351   5.037   5.639 -0.0653 -1.2739 -0.0371
10102TIP3    H251798   6.271   5.070   5.763  0.5524 -2.6513  0.7515
10103TIP3   OH251799   6.487   3.285  15.584  0.1261 -0.2949  0.1265
10103TIP3    H151800   6.426   3.237  15.528 -0.5749  0.0040  0.6268
10103TIP3    H251801   6.437   3.305  15.663  0.3619  1.3802 -0.1217
10104TIP3   OH251802   3.423   1.976   3.900 -0.5630 -0.4002 -0.2012
10104TIP3    H151803   3.328   1.971   3.892 -0.7317 -1.8235  1.9067
10104TIP3    H251804   3.454   1.891   3.867  0.0743  0.2650 -1.4103
10105TIP3   OH251805   2.513   5.995  12.922  0.1447 -0.4053 -0.1808
10105TIP3    H151806   2.439   5.959  12.971  0.0681  2.7183  2.2831
10105TIP3    H251807   2.588   5.944  12.951 -0.1939  0.2051  1.9197
10106TIP3   OH251808   1.928   3.424   0.969 -0.0494 -0.4707 -0.7537
10106TIP3    H151809   1.849   3.407   1.020 -0.7130  0.4228 -1.4779
10106TIP3    H251810   1.905   3.399   0.880  0.1699  0.6647 -1.1404
10107TIP3   OH251811   6.749   5.992   4.960  0.5105  0.1908  0.5584
10107TIP3    H151812   6.800   5.959   5.034  1.1695  0.2202  0.1150
10107TIP3    H251813   6.785   5.948   4.883  0.6377  1.0700  0.1025
10108TIP3   OH251814   0.718   6.519   6.627 -0.9781  0.3254  0.9526
10108TIP3    H151815   0.801   6.474   6.615 -0.3869  1.3741  1.0559
10108TIP3    H251816   0.652   6.451   6.611 -0.1136 -0.6086  1.2643
10109TIP3   OH251817   5.971   2.318  11.920 -0.0974 -0.0492  0.0376
10109TIP3    H151818   5.921   2.249  11.964 -1.3438  1.4748  1.1282
10109TIP3    H251819   6.017   2.363  11.991  0.8310  0.1542 -0.6728
10110TIP3   OH251820   2.015   3.305  16.014 -0.3529 -0.5347  0.1151
10110TIP3    H151821   2.029   3.302  16.109  0.5609 -1.5778 -0.0232
10110TIP3    H251822   2.049   3.390  15.987 -0.6980 -0.1960  0.7270
10111TIP3   OH251823   1.175   2.743  10.902 -0.2570  0.3808  0.0209
10111TIP3    H151824   1.187   2.648  10.902 -0.3081  0.3672  0.8691
10111TIP3    H251825   1.102   2.759  10.961 -0.7845  0.8960 -0.7538
10112TIP3   OH251826   6.560   4.470  15.742 -0.0441  0.4189  0.1979
10112TIP3    H151827   6.623   4.435  15.805 -1.0796  0.0175  1.0598
10112TIP3    H251828   6.500   4.397  15.726 -0.4231  0.8568 -0.4213
10113TIP3   OH251829   4.454   1.218  15.452  0.1341 -0.1423  0.0543
10113TIP3    H151830   4.493   1.216  15.539 -0.3331 -0.8557  0.2551
10113TIP3    H251831   4.520   1.260  15.397  0.2812  0.6524  0.8169
10114TIP3   OH251832   2.099   1.007  10.528 -0.0342 -0.3944 -0.4286
10114TIP3    H151833   2.143   0.925  10.552 -1.4234 -1.1137 -0.2057
10114TIP3    H251834   2.080   0.997  10.435 -1.1229 -0.8269 -0.1905
10115TIP3   OH251835   0.911   5.228  13.649 -0.2759 -0.0012  0.3617
10115TIP3    H151836   0.822   5.216  13.616  0.3314 -0.9183 -1.0438
10115TIP3    H251837   0.955   5.146  13.629  0.3520 -0.3671  2.9399
10116TIP3   OH251838   0.945   2.571  15.649 -0.9121 -0.7124 -0.2276
10116TIP3    H151839   0.949   2.475  15.653  0.4565 -0.6247  1.7197
10116TIP3    H251840   0.986   2.600  15.730  0.4646  1.5739 -1.6293
10117TIP3   OH251841   3.738   0.544   5.312 -0.8976 -0.6663 -0.2586
10117TIP3    H151842   3.809   0.505   5.260  0.6600 -0.3085  1.5147
10117TIP3    H251843   3.727   0.486   5.387  0.1437  1.2001  1.4321
10118TIP3   OH251844   6.269   2.602   6.072 -0.1957  0.1183  0.3205
10118TIP3    H151845   6.307   2.514   6.068  2.5615  1.2224 -1.1010
10118TIP3    H251846   6.250   2.623   5.981 -0.9548  0.9503  0.6616
10119TIP3   OH251847   3.731   0.194   1.702  0.0490  0.1346  0.1307
10119TIP3    H151848   3.670   0.132   1.663 -2.8570  2.0785  1.2615
10119TIP3    H251849   3.724   0.179   1.796 -0.0193  1.5449  0.3663
10120TIP3   OH251850   0.208   0.326  11.638 -0.0107 -0.1815  0.1206
10120TIP3    H151851   0.229   0.401  11.583  0.4764  0.5501  1.2696
10120TIP3    H251852   0.141   0.359  11.699 -0.4511 -0.9386  0.0600
10121TIP3   OH251853   5.519   5.891  13.908  0.3139  0.0311 -0.0405
10121TIP3    H151854   5.522   5.952  13.981  0.2828 -0.3542  0.2909
10121TIP3    H251855   5.601   5.904  13.861 -1.1096  2.8179 -2.0601
10122TIP3   OH251856   2.961   2.839   3.322  0.8238  0.5716 -0.1286
10122TIP3    H151857   2.889   2.901   3.309  0.8980  0.7865  0.4552
10122TIP3    H251858   3.020   2.855   3.248  0.2103  0.2979 -0.6842
10123TIP3   OH251859   5.813   2.530  12.590  0.8203  0.2198 -0.0529
10123TIP3    H151860   5.740   2.490  12.542  0.5685  1.2789 -0.5907
10123TIP3    H251861   5.891   2.493  12.549  0.5944 -0.3537  0.0254
10124TIP3   OH251862   4.587   4.216  15.513 -0.3204 -0.1134 -0.2687
10124TIP3    H151863   4.637   4.288  15.475 -1.0421 -0.0043 -1.0377
10124TIP3    H251864   4.651   4.167  15.564  0.6405 -0.1463 -1.4656
10125TIP3   OH251865   5.302   3.707   0.756 -0.7425 -0.3491  0.5032
10125TIP3    H151866   5.239   3.709   0.828 -0.0586 -0.2681  1.1070
10125TIP3    H251867   5.260   3.650   0.690 -0.9820 -1.1628  1.3305
10126TIP3   OH251868   6.206   2.007  14.284 -0.7318 -0.1145 -0.0363
10126TIP3    H151869   6.247   2.074  14.338 -2.1367 -0.3149  1.3642
10126TIP3    H251870   6.114   2.033  14.280 -0.8382 -0.6513 -1.5206
10127TIP3   OH251871   5.010   5.332   0.852  0.2977 -0.5092 -0.3423
10127TIP3    H151872   5.085   5.303   0.903 -0.6262 -1.4826  0.5077
10127TIP3    H251873   5.032   5.309   0.762  1.2404 -0.2629 -0.1904
10128TIP3   OH251874   5.281   4.679   3.632 -1.0075 -0.3192  0.0391
10128TIP3    H151875   5.353   4.667   3.695 -0.5798  1.3602 -0.0793
10128TIP3    H251876   5.294   4.609   3.568 -0.6630 -1.2494  1.0807
10129TIP3   OH251877   2.898   5.043  15.341 -0.0272  0.0436 -0.3181
10129TIP3    H151878   2.902   5.114  15.277 -0.1695 -1.7752 -2.4613
10129TIP3    H251879   2.806   5.040  15.367 -0.1166  0.3425 -0.5844
10130TIP3   OH251880   3.409   0.694  12.027 -0.5838 -0.0901 -0.2394
10130TIP3    H151881   3.460   0.684  11.947  1.3943  3.5518  0.3280
10130TIP3    H251882   3.408   0.606  12.066  2.7409 -1.0106 -1.8084
10131TIP3   OH251883   2.619   2.055  12.709 -0.7195  0.2291  0.5351
10131TIP3    H151884   2.625   2.022  12.620  0.9519  0.3918  0.5501
10131TIP3    H251885   2.533   2.098  12.714 -0.5133  0.9129 -1.2318
10132TIP3   OH251886   4.974   6.816  11.818  0.3360 -0.0071 -0.3243
10132TIP3    H151887   4.990   6.881  11.750 -0.1424 -0.8767 -1.3112
10132TIP3    H251888   5.041   6.832  11.884  0.2739  1.4175 -0.5767
10133TIP3   OH251889   0.034   5.444   1.629  0.2084  0.1179  0.3513
10133TIP3    H151890   0.044   5.349   1.621 -0.2579 -0.0318  1.4387
10133TIP3    H251891   0.064   5.478   1.544  1.0811 -0.9411  0.2043
10134TIP3   OH251892   5.330   1.874  14.421 -0.1262  0.3166 -0.4278
10134TIP3    H151893   5.282   1.898  14.500  1.5102 -1.0315  1.0599
10134TIP3    H251894   5.350   1.781  14.432 -0.2342 -0.0168 -2.6667
10135TIP3   OH251895   1.601   0.627  11.669 -0.3424  0.4695 -0.8916
10135TIP3    H151896   1.614   0.536  11.640 -1.8906  0.2726 -1.0755
10135TIP3    H251897   1.508   0.644  11.652  0.2407  2.6348 -2.3760
10136TIP3   OH251898   3.293   1.663  14.535 -0.2963 -0.5641 -0.3307
10136TIP3    H151899   3.350   1.713  14.476  3.2739 -0.6352  2.7093
10136TIP3    H251900   3.331   1.576  14.537  0.1017 -0.4067  2.4244
10137TIP3   OH251901   0.154   4.096   1.054  0.0110 -0.1567  0.3118
10137TIP3    H151902   0.210   4.171   1.035 -0.3001 -0.0114 -0.0385
10137TIP3    H251903   0.197   4.052   1.127  0.3507  0.1974  0.3273
10138TIP3   OH251904   4.482   3.503  14.565 -0.2902  0.3810  0.5534
10138TIP3    H151905   4.406   3.560  14.576  0.4287  1.4001  0.3920
10138TIP3    H251906   4.499   3.505  14.470  0.0367  0.2953  0.6087
10139TIP3   OH251907   1.236   0.132   3.704 -0.1209 -0.7313 -0.0088
10139TIP3    H151908   1.326   0.123   3.673  0.0580  1.0352 -0.1067
10139TIP3    H251909   1.236   0.213   3.755 -1.2080 -1.7544  1.7228
10140TIP3   OH251910   1.693   3.439  11.884  0.1184 -0.0031 -0.1612
10140TIP3    H151911   1.688   3.371  11.951  2.2055  0.6266  0.7118
10140TIP3    H251912   1.651   3.515  11.924 -0.4157 -0.1756 -0.3724
10141TIP3   OH251913   1.717   4.620   3.192  0.0977  0.3334 -0.1466
10141TIP3    H151914   1.621   4.625   3.189  0.0235 -0.4104  0.6457
10141TIP3    H251915   1.739   4.644   3.282  0.7583  1.6590 -0.6227
10142TIP3   OH251916   3.498   5.858   2.104 -0.2835  0.2270 -0.0711
10142TIP3    H151917   3.428   5.922   2.096 -0.3822  0.1956  0.4880
10142TIP3    H251918   3.527   5.842   2.014 -1.6448 -0.4946 -0.4145
10143TIP3   OH251919   1.382   3.437   1.752 -0.1308 -0.2189 -0.5510
10143TIP3    H151920   1.446   3.508   1.749  1.2675 -1.4506 -1.2137
10143TIP3    H251921   1.348   3.439   1.842 -0.0106  1.1492 -0.5098
10144TIP3   OH251922   4.661   6.093  17.070  0.2448 -0.2611  0.6449
10144TIP3    H151923   4.722   6.084  17.144  2.4650  0.5901 -0.9492
10144TIP3    H251924   4.617   6.009  17.065  1.9417 -1.2470  1.3703
10145TIP3   OH251925   1.744   2.442  11.314 -0.5152 -0.3051 -0.0963
10145TIP3    H151926   1.688   2.451  11.237 -1.5587 -1.4035  0.5198
10145TIP3    H251927   1.827   2.408  11.279 -0.8934 -0.5526 -0.7710
10146TIP3   OH251928   3.262   1.690   2.609 -0.3776 -0.1889  0.6344
10146TIP3    H151929   3.350   1.686   2.647 -0.6769 -0.8471  1.2734
10146TIP3    H251930   3.265   1.766   2.550  1.1038 -1.1420 -0.6090
10147TIP3   OH251931   4.207   6.429   3.293  0.1011  0.1137  0.2983
10147TIP3    H151932   4.132   6.487   3.282  1.1652  1.6073  0.5992
10147TIP3    H251933   4.238   6.412   3.205  0.7734  1.3891  0.2693
10148TIP3   OH251934   4.955   2.304  14.047  0.2658  0.2700 -0.0394
10148TIP3    H151935   5.030   2.247  14.065 -0.9919 -1.6500 -0.6188
10148TIP3    H251936   4.912   2.264  13.971 -0.7940  1.9055 -0.3609
10149TIP3   OH251937   1.657   1.970  14.856  0.3039 -0.6497 -0.2230
10149TIP3    H151938   1.696   1.888  14.884  0.8949 -0.5536 -0.7597
10149TIP3    H251939   1.718   2.038  14.887  0.8210 -0.5275 -1.4688
10150TIP3   OH251940   0.988   6.472  13.852  0.8952 -0.2021 -0.3124
10150TIP3    H151941   1.019   6.525  13.779 -0.3524 -0.4365 -1.0401
10150TIP3    H251942   0.973   6.535  13.923  3.4026 -0.1211  0.2716
10151TIP3   OH251943   0.619   5.027   4.441 -0.4312 -0.3508 -0.4219
10151TIP3    H151944   0.577   4.951   4.481  0.0817  0.7604  2.4626
10151TIP3    H251945   0.584   5.102   4.490  1.1927  1.0043 -1.2545
10152TIP3   OH251946   5.366   6.775   5.732 -0.0618  0.1808 -0.1550
10152TIP3    H151947   5.429   6.774   5.660 -0.9784  2.3398 -1.0756
10152TIP3    H251948   5.294   6.720   5.702  0.1792 -0.0760 -0.2668
10153TIP3   OH251949   6.084   1.453  11.221  0.3712 -0.2114  0.7891
10153TIP3    H151950   6.051   1.535  11.256  1.6260  0.3458  0.7355
10153TIP3    H251951   6.165   1.477  11.176 -0.1450 -1.2173 -0.7734
10154TIP3   OH251952   5.047   4.671   2.230  0.4229  0.4483 -0.1441
10154TIP3    H151953   5.110   4.726   2.183  0.0394  1.2823  0.3084
10154TIP3    H251954   5.053   4.700   2.321 -0.2052  0.1331  0.0000
10155TIP3   OH251955   0.775   4.789   4.575  0.4081  0.6455  0.1706
10155TIP3    H151956   0.836   4.806   4.503  1.4461 -1.0543  0.5848
10155TIP3    H251957   0.692   4.772   4.532  0.9841 -0.2076 -0.6430
10156TIP3   OH251958   2.090   2.174   2.570  0.2707 -0.5706 -0.0918
10156TIP3    H151959   2.142   2.170   2.651  0.5642 -1.6569 -0.3232
10156TIP3    H251960   2.002   2.147   2.597 -0.1906  1.1662  0.2782
10157TIP3   OH251961   2.649   6.722  12.816  0.0439  0.0051  0.6747
10157TIP3    H151962   2.584   6.770  12.764  0.0567 -0.6380  0.0396
10157TIP3    H251963   2.612   6.718  12.904 -2.2811 -2.8707 -0.2384
10158TIP3   OH251964   2.100   6.630  13.025 -0.4784  0.1623  1.1060
10158TIP3    H151965   2.175   6.607  13.079  1.3618  3.2004  0.0864
10158TIP3    H251966   2.108   6.725  13.012 -2.7942  0.1192 -1.5665
10159TIP3   OH251967   3.283   5.016   1.283  0.0565 -0.3927  0.2095
10159TIP3    H151968   3.315   4.944   1.337 -0.8031 -1.3061 -0.4567
10159TIP3    H251969   3.359   5.044   1.232  1.1435  1.1288  2.4923
10160TIP3   OH251970   4.750   6.226  12.745  0.3486 -0.5504 -0.2917
10160TIP3    H151971   4.677   6.241  12.804  0.8189 -2.1807  0.7590
10160TIP3    H251972   4.717   6.163  12.681  0.5476 -0.5782 -0.3671
10161TIP3   OH251973   6.591   4.137   1.827  0.5640  0.0643  0.3553
10161TIP3    H151974   6.663   4.074   1.824  0.5704  0.0378  0.9167
10161TIP3    H251975   6.544   4.116   1.908  2.5634  2.8888  2.4701
10162TIP3   OH251976   0.595   2.921   1.317 -0.3420 -0.0515 -0.6898
10162TIP3    H151977   0.675   2.936   1.266  0.1366 -0.7134 -0.1563
10162TIP3    H251978   0.526   2.908   1.252 -0.1403  1.1198 -1.1617
10163TIP3   OH251979   0.255   6.688  13.485 -0.0362  0.0016 -0.0824
10163TIP3    H151980   0.301   6.768  13.461  0.0415 -0.5384 -1.8157
10163TIP3    H251981   0.318   6.639  13.539 -0.1990  1.2059  1.2675
10164TIP3   OH251982   4.672   2.970   5.522 -0.0219  0.7117 -0.3752
10164TIP3    H151983   4.595   3.024   5.541  0.3389  2.2767 -2.9086
10164TIP3    H251984   4.638   2.881   5.513 -0.6421  0.2824  3.9675
10165TIP3   OH251985   5.529   3.257  15.252  0.0323  0.3858 -0.1272
10165TIP3    H151986   5.541   3.279  15.160 -0.7020 -2.8769 -1.1483
10165TIP3    H251987   5.434   3.251  15.262  0.1268  0.2067  0.7078
10166TIP3   OH251988   0.264   0.680  12.058 -0.3207 -0.1898 -0.2603
10166TIP3    H151989   0.335   0.621  12.036 -1.2537 -1.3063 -0.3536
10166TIP3    H251990   0.206   0.678  11.981 -0.6023  0.4927 -0.0807
10167TIP3   OH251991   5.672   2.983  13.676 -0.0770 -0.3425 -0.2520
10167TIP3    H151992   5.634   2.966  13.762 -0.0166 -2.0585 -0.5325
10167TIP3    H251993   5.747   2.924  13.670  0.9073  0.8976 -0.8712
10168TIP3   OH251994   4.062   4.179   0.202 -0.5365 -0.7443  0.6216
10168TIP3    H151995   4.070   4.252   0.141  0.2735  0.1050  1.7160
10168TIP3    H251996   4.064   4.219   0.289  0.8667 -2.1177  1.2802
10169TIP3   OH251997   0.370   1.272   1.819 -0.7241  0.0037 -0.1854
10169TIP3    H151998   0.327   1.197   1.861 -0.8421 -0.2564 -0.7701
10169TIP3    H251999   0.397   1.327   1.893 -0.3493 -0.7641  0.2667
10170TIP3   OH252000   0.372   1.605   4.211  0.3613  0.2190 -0.8328
10170TIP3    H152001   0.402   1.671   4.149 -1.9130  0.5259 -1.6874
10170TIP3    H252002   0.390   1.522   4.168  0.9400  0.3445 -0.8434
10171TIP3   OH252003   1.723   2.874   3.433  0.5325 -0.0787 -0.1488
10171TIP3    H152004   1.711   2.781   3.452  1.4332  0.2956  2.8519
10171TIP3    H252005   1.812   2.879   3.397  0.0052 -0.4697 -1.5774
10172TIP3   OH252006   3.033   0.558   3.592  0.1965 -0.2256 -0.2311
10172TIP3    H152007   2.975   0.617   3.544  0.1120  1.4702  1.8238
10172TIP3    H252008   2.975   0.489   3.624 -0.0685 -0.3395 -0.9201
10173TIP3   OH252009   3.554   5.422  16.134  0.1866  0.9328 -0.0930
10173TIP3    H152010   3.533   5.346  16.081  0.5356 -0.8585  2.2045
10173TIP3    H252011   3.649   5.419  16.145  0.1907  1.6142  0.1390
10174TIP3   OH252012   2.783   3.869   3.903  0.0131 -0.1413  0.1913
10174TIP3    H152013   2.730   3.797   3.937 -1.1633  0.3665 -0.5172
10174TIP3    H252014   2.873   3.835   3.904 -0.5868 -1.9013 -0.8310
10175TIP3   OH252015   4.364   3.341   3.214 -0.3087 -0.1152 -0.2775
10175TIP3    H152016   4.409   3.263   3.245  1.8747  0.3651 -2.0124
10175TIP3    H252017   4.360   3.331   3.119 -1.4086  1.1765 -0.4055
10176TIP3   OH252018   5.308   2.211   3.678  0.0709 -0.3135  0.0388
10176TIP3    H152019   5.265   2.263   3.610 -0.9093 -1.7199 -0.4745
10176TIP3    H252020   5.299   2.263   3.758 -1.3452  0.0805 -0.3460
10177TIP3   OH252021   4.879   5.067  12.943 -0.0950  0.5238  0.0001
10177TIP3    H152022   4.864   5.132  13.011 -1.0831 -0.1047  0.4070
10177TIP3    H252023   4.791   5.043  12.913  0.2702 -0.2605 -0.4781
10178TIP3   OH252024   3.981   1.067   3.881  0.0931 -0.3979  0.3761
10178TIP3    H152025   3.922   1.031   3.816 -0.3348 -0.8848  1.0245
10178TIP3    H252026   3.964   1.162   3.880  1.0399 -0.2109 -1.1497
10179TIP3   OH252027   1.592   2.972   1.493  0.4630 -0.1113 -0.3410
10179TIP3    H152028   1.560   2.891   1.531  1.0606 -0.4137 -0.4759
10179TIP3    H252029   1.616   3.026   1.569  0.2137 -0.1112 -0.2580
10180TIP3   OH252030   3.372   0.427  12.086  0.4105  0.2649  0.1043
10180TIP3    H152031   3.296   0.399  12.137  1.8069 -1.2307  1.5180
10180TIP3    H252032   3.360   0.385  12.001 -0.0793 -0.4566  0.5117
10181TIP3   OH252033   1.754   6.113   3.134  0.6437  0.6282  0.8335
10181TIP3    H152034   1.812   6.056   3.085  0.9052 -1.1251  2.9982
10181TIP3    H252035   1.752   6.075   3.222 -1.7904  2.0849  1.5092
10182TIP3   OH252036   6.296   0.517  16.491  0.1155  0.3352  0.0214
10182TIP3    H152037   6.341   0.559  16.417  0.3460 -0.3387 -0.2371
10182TIP3    H252038   6.256   0.439  16.452 -1.4423  1.0095  0.2106
10183TIP3   OH252039   5.312   1.258  17.033 -0.0777 -0.2424 -0.5439
10183TIP3    H152040   5.367   1.303  17.097  0.2603  0.4417 -1.3044
10183TIP3    H252041   5.224   1.292  17.048 -1.0736 -3.5737  2.8056
10184TIP3   OH252042   6.256   3.697   0.954 -0.2195  0.3348  0.1324
10184TIP3    H152043   6.251   3.782   0.911  0.0820 -0.5622 -1.7862
10184TIP3    H252044   6.346   3.690   0.984 -0.0867  0.4518 -0.2371
10185TIP3   OH252045   1.030   0.401  17.018 -0.6958 -0.3687  0.2250
10185TIP3    H152046   0.963   0.450  16.970 -0.4136 -1.7849 -1.7492
10185TIP3    H252047   1.084   0.468  17.059 -3.2434  0.8172  1.8645
10186TIP3   OH252048   0.401   3.957  12.744 -0.4270  0.3251  0.0968
10186TIP3    H152049   0.450   4.039  12.745 -0.4290  0.3351 -0.4959
10186TIP3    H252050   0.408   3.924  12.834  1.9912 -0.4690 -0.3089
10187TIP3   OH252051   5.375   5.791  12.145 -0.2918 -0.4418  0.2598
10187TIP3    H152052   5.296   5.788  12.091  0.7138 -0.8765 -1.2622
10187TIP3    H252053   5.385   5.702  12.178 -0.7183 -0.2595  0.8882
10188TIP3   OH252054   1.329   6.488   5.767  0.2092 -0.0212  0.0730
10188TIP3    H152055   1.351   6.579   5.747  1.1234 -0.5819 -1.6175
10188TIP3    H252056   1.368   6.473   5.853 -0.3964  1.3072  0.6184
10189TIP3   OH252057   5.878   3.907  15.430 -0.1921 -0.5293  0.0750
10189TIP3    H152058   5.814   3.893  15.500 -0.9239  0.2163 -0.4289
10189TIP3    H252059   5.898   3.819  15.398  0.6855 -0.9544  1.6612
10190TIP3   OH252060   4.411   1.475  13.667 -0.5095  0.0006 -0.6734
10190TIP3    H152061   4.351   1.429  13.608 -0.7475 -1.0488  0.3512
10190TIP3    H252062   4.405   1.427  13.749  2.0003 -0.3357 -0.6262
10191TIP3   OH252063   3.815   5.278  16.437  0.2133 -0.2170 -0.7893
10191TIP3    H152064   3.765   5.355  16.410 -0.2526 -0.1232  0.2977
10191TIP3    H252065   3.902   5.291  16.400  0.6718  1.7130  0.8560
10192TIP3   OH252066   2.011   1.955  15.275  0.2454 -0.3086 -0.0617
10192TIP3    H152067   2.053   1.973  15.191  0.5517 -0.0851  0.1380
10192TIP3    H252068   2.067   1.999  15.340 -0.6899  0.6404  0.1349
10193TIP3   OH252069   5.970   0.847   5.036 -0.4504  0.3437  0.3241
10193TIP3    H152070   6.029   0.774   5.017  0.3433  1.0981 -0.2593
10193TIP3    H252071   5.952   0.886   4.951 -0.7358  0.9061  0.6323
10194TIP3   OH252072   0.068   3.420  13.771 -0.5838 -0.2950  0.7457
10194TIP3    H152073   0.052   3.479  13.844 -2.2981 -1.1929  1.1601
10194TIP3    H252074   0.100   3.339  13.811  2.0658  0.3627  0.1596
10195TIP3   OH252075   6.038   5.072  12.167 -0.0647 -0.3861  0.0038
10195TIP3    H152076   6.109   5.099  12.226  0.2547 -0.2971 -0.4156
10195TIP3    H252077   6.045   5.132  12.093 -1.6018  0.7010  0.6785
10196TIP3   OH252078   1.196   1.365   5.395 -0.0303 -0.5015 -0.8837
10196TIP3    H152079   1.141   1.441   5.375  0.2049 -0.8515 -3.0766
10196TIP3    H252080   1.258   1.398   5.460 -2.2213  0.1387  1.0163
10197TIP3   OH252081   2.938   1.782   3.129  0.0682 -0.0242  0.0800
10197TIP3    H152082   3.017   1.811   3.083  0.3193 -0.0553  0.4828
10197TIP3    H252083   2.890   1.863   3.148  0.2109  0.0321  0.2022
10198TIP3   OH252084   5.578   6.708  15.357 -0.1292 -0.4295  0.0627
10198TIP3    H152085   5.538   6.795  15.350  0.4489 -0.2554 -1.5483
10198TIP3    H252086   5.521   6.651  15.306  0.4879 -0.6024 -0.4576
10199TIP3   OH252087   5.364   5.801  15.849 -0.6334 -0.7406  0.3123
10199TIP3    H152088   5.290   5.746  15.872 -0.5548 -1.3386 -0.7763
10199TIP3    H252089   5.360   5.875  15.910 -3.0121  0.0369 -0.6932
10200TIP3   OH252090   5.516   3.081  16.314 -0.0030  0.1460  0.5589
10200TIP3    H152091   5.562   3.023  16.375  0.2074  1.9304  2.1869
10200TIP3    H252092   5.580   3.099  16.245  2.0426  2.7732  2.9074
10201TIP3   OH252093   2.909   4.040   5.229 -0.1584 -0.1332 -0.1683
10201TIP3    H152094   2.840   4.101   5.256  0.3924  0.7436 -0.6881
10201TIP3    H252095   2.991   4.087   5.246  0.2947 -0.8991 -0.1869
10202TIP3   OH252096   5.942   4.502  14.964 -0.0691  0.1169 -0.7345
10202TIP3    H152097   5.954   4.518  15.057 -0.6138  1.0132 -0.8075
10202TIP3    H252098   5.868   4.441  14.960 -1.5507  1.8394 -0.6431
10203TIP3   OH252099   5.273   1.449  12.152 -0.2900  0.2776 -0.2919
10203TIP3    H152100   5.258   1.419  12.063 -3.8723 -1.0981  0.5845
10203TIP3    H252101   5.259   1.371  12.206 -0.0124  1.4440  1.5549
10204TIP3   OH252102   1.068   6.804   5.750  0.4369 -0.0011 -0.1428
10204TIP3    H152103   1.043   6.797   5.658 -0.7071  0.7293  0.0953
10204TIP3    H252104   1.052   6.716   5.786  0.7134 -0.2357 -0.5901
10205TIP3   OH252105   2.995   1.438  14.229  0.2777  0.2010  0.1804
10205TIP3    H152106   2.929   1.508  14.225 -0.3421 -0.4208 -1.0334
10205TIP3    H252107   2.966   1.382  14.301  0.3131  0.7480  0.6193
10206TIP3   OH252108   0.637   6.557   5.319 -0.0022  0.2655  0.1619
10206TIP3    H152109   0.653   6.463   5.313 -0.5304  0.1896 -0.0581
10206TIP3    H252110   0.662   6.579   5.409 -1.9284 -0.4965  0.9403
10207TIP3   OH252111   4.604   0.039  13.404  0.0121 -0.1029 -0.1664
10207TIP3    H152112   4.660   0.081  13.338  0.1388  0.5539  0.3530
10207TIP3    H252113   4.619   0.089  13.484 -0.3927 -0.6909  0.2875
10208TIP3   OH252114   4.555   0.590   6.000  0.6369  0.4205  0.1786
10208TIP3    H152115   4.605   0.534   5.940  0.0529 -0.3832  0.4203
10208TIP3    H252116   4.587   0.566   6.087  1.9761  2.0779  0.1890
10209TIP3   OH252117   4.108   1.140  14.872 -0.7717  0.3829  0.1217
10209TIP3    H152118   4.029   1.134  14.819 -0.3516  0.8505 -0.5656
10209TIP3    H252119   4.139   1.230  14.859 -0.1677  0.2242  0.4394
10210TIP3   OH252120   6.509   3.201   6.663 -0.0470  0.6072  0.6678
10210TIP3    H152121   6.591   3.249   6.678 -0.1907  1.0841 -0.0352
10210TIP3    H252122   6.515   3.125   6.720  1.0818  0.4074  0.2906
10211TIP3   OH252123   5.575   0.393   1.170  0.3854 -0.1182  0.9232
10211TIP3    H152124   5.644   0.388   1.104  0.6815  1.4577  1.0682
10211TIP3    H252125   5.495   0.407   1.121  0.5479  0.6339  0.8597
10212TIP3   OH252126   5.219   3.736  15.700 -0.4030 -0.2016 -0.2618
10212TIP3    H152127   5.128   3.739  15.728 -0.8311  1.3686 -1.6776
10212TIP3    H252128   5.233   3.818  15.653  1.8505 -0.2430  0.2081
10213TIP3   OH252129   2.259   0.532   2.552  0.3671 -0.7847 -0.0258
10213TIP3    H152130   2.179   0.515   2.602 -0.2651  2.1199  0.1372
10213TIP3    H252131   2.328   0.535   2.617  0.2519 -1.1104  0.1151
10214TIP3   OH252132   3.865   4.731   2.445 -0.5908  0.6345  0.0030
10214TIP3    H152133   3.832   4.672   2.513 -0.8171 -0.6189 -1.1485
10214TIP3    H252134   3.927   4.677   2.395 -0.6270  1.4503 -0.9528
10215TIP3   OH252135   1.323   0.603   3.784  0.4983  0.8875  0.1081
10215TIP3    H152136   1.325   0.581   3.691 -0.1578  0.6558  0.1394
10215TIP3    H252137   1.391   0.549   3.823  0.2053  0.3435 -0.1181
10216TIP3   OH252138   4.954   6.401   2.869 -0.2772  0.1578 -0.6919
10216TIP3    H152139   5.040   6.372   2.900  0.0852  0.0674 -1.7658
10216TIP3    H252140   4.923   6.330   2.813 -0.2135  0.9841 -1.8154
10217TIP3   OH252141   4.632   1.180  11.470 -0.9160 -0.1670  0.1968
10217TIP3    H152142   4.720   1.212  11.491 -1.2303  0.7463  0.1301
10217TIP3    H252143   4.573   1.239  11.517 -1.5258 -0.2552 -0.4472
10218TIP3   OH252144   3.733   1.755  13.397 -0.1418  0.4214 -0.0183
10218TIP3    H152145   3.811   1.723  13.351  0.2842 -0.6145  1.3402
10218TIP3    H252146   3.703   1.829  13.345  1.7057  0.7963 -0.6215
10219TIP3   OH252147   3.031   2.806   2.569  0.1586  0.4354 -0.3156
10219TIP3    H152148   3.040   2.716   2.540 -0.5351  0.3669 -0.3391
10219TIP3    H252149   3.043   2.858   2.490 -1.5251  0.2591 -0.7427
10220TIP3   OH252150   1.936   6.784   2.774 -0.1633 -0.8466 -0.3912
10220TIP3    H152151   1.956   6.749   2.688  0.6693 -0.0619 -0.5216
10220TIP3    H252152   1.860   6.840   2.760 -0.2516 -1.0020 -0.5422
10221TIP3   OH252153   4.614   2.680  13.024  0.3068 -0.2939  0.4233
10221TIP3    H152154   4.668   2.601  13.024 -0.7388 -1.0403 -0.0672
10221TIP3    H252155   4.666   2.745  12.977  1.0770 -0.7557  0.6122
10222TIP3   OH252156   4.836   2.849  12.956  0.5791 -0.1827  0.0287
10222TIP3    H152157   4.895   2.850  12.881  0.0906  1.2501 -0.3792
10222TIP3    H252158   4.886   2.891  13.026  0.3640  0.2561 -0.0736
10223TIP3   OH252159   3.111   6.046  12.337 -0.3330  0.0532 -0.4324
10223TIP3    H152160   3.151   6.060  12.251 -0.0498  1.2394 -0.1356
10223TIP3    H252161   3.023   6.014  12.318 -0.3941  0.6191 -1.1888
10224TIP3   OH252162   4.068   4.712  14.170  0.4907  0.0950  0.0346
10224TIP3    H152163   4.063   4.790  14.115  0.4401 -0.7901 -1.2847
10224TIP3    H252164   4.154   4.675  14.150  0.4385 -0.2842  0.5057
10225TIP3   OH252165   3.683   3.390   2.022  0.1892 -0.3692  0.7421
10225TIP3    H152166   3.748   3.451   1.986  2.6907 -3.4086 -0.3441
10225TIP3    H252167   3.656   3.337   1.947  0.0146 -2.1620  2.0156
10226TIP3   OH252168   0.312   2.813   5.882 -0.2893 -0.5048  0.4010
10226TIP3    H152169   0.227   2.851   5.859 -0.0314 -0.8546 -1.2376
10226TIP3    H252170   0.295   2.766   5.964 -1.2579  0.7983  0.9907
10227TIP3   OH252171   5.679   0.393   0.721  0.2701 -0.3971 -0.1726
10227TIP3    H152172   5.592   0.366   0.690  0.6004 -2.1498  0.3007
10227TIP3    H252173   5.661   0.457   0.790 -0.6644 -0.8732  0.0546
10228TIP3   OH252174   4.281   2.956  13.362 -0.0402 -0.6768  0.9531
10228TIP3    H152175   4.373   2.932  13.370  0.1545 -0.3959 -0.2523
10228TIP3    H252176   4.249   2.957  13.452  0.7492 -2.2207  1.2808
10229TIP3   OH252177   2.627   0.897  11.889  0.2425 -0.5505  0.2041
10229TIP3    H152178   2.557   0.896  11.824  0.7643  1.5397 -0.4450
10229TIP3    H252179   2.682   0.822  11.866 -0.2804 -0.5908 -0.9685
10230TIP3   OH252180   3.364   1.237  10.653  0.2558  0.1494  0.5011
10230TIP3    H152181   3.300   1.302  10.681 -0.8644 -0.5806 -0.3132
10230TIP3    H252182   3.324   1.193  10.579  1.8531 -0.1024 -0.2635
10231TIP3   OH252183   0.757   3.799   2.520 -0.4684 -0.2717 -0.0219
10231TIP3    H152184   0.662   3.810   2.534 -0.4732  1.6796 -1.2096
10231TIP3    H252185   0.793   3.793   2.609 -1.7662 -2.0664  0.4358
10232TIP3   OH252186   2.758   4.556  12.799 -0.0241  0.2838  0.2922
10232TIP3    H152187   2.763   4.475  12.850  0.6846  0.5318  0.6295
10232TIP3    H252188   2.764   4.527  12.708  2.7758  0.0762  0.4375
10233TIP3   OH252189   1.089   1.890   0.633 -0.4979  0.3786 -0.1954
10233TIP3    H152190   1.127   1.941   0.561  0.6493 -0.3590 -0.1357
10233TIP3    H252191   1.113   1.938   0.712  0.6081 -0.2392 -0.1369
10234TIP3   OH252192   6.798   5.171  15.835  0.4199  0.3801 -0.3146
10234TIP3    H152193   6.769   5.168  15.744 -0.0656  0.2472 -0.1601
10234TIP3    H252194   6.749   5.244  15.873 -1.2793 -1.0946  0.4634
10235TIP3   OH252195   4.294   1.511  16.492  0.0646  0.2294 -0.3506
10235TIP3    H152196   4.250   1.583  16.445  0.5492 -0.1391 -1.4065
10235TIP3    H252197   4.238   1.494  16.567 -0.7883  0.7976 -0.8322
10236TIP3   OH252198   3.610   3.837  14.924  0.3101  0.0979 -0.1365
10236TIP3    H152199   3.583   3.854  15.014  0.4884 -0.8033  0.0981
10236TIP3    H252200   3.554   3.766  14.895  1.1287 -0.5096 -0.2806
10237TIP3   OH252201   3.634   1.016   1.330 -0.3018  0.3459 -0.2320
10237TIP3    H152202   3.634   0.937   1.384  1.2544 -0.0248 -0.7244
10237TIP3    H252203   3.645   0.984   1.240  0.3724  1.1094 -0.4365
10238TIP3   OH252204   0.890   2.792  14.819  0.3425  0.2096 -0.2046
10238TIP3    H152205   0.932   2.878  14.824  0.0188  0.4142 -0.9178
10238TIP3    H252206   0.798   2.812  14.800  0.0197 -0.2532  0.7746
10239TIP3   OH252207   3.341   3.903   4.310 -0.0021  0.0776 -0.1369
10239TIP3    H152208   3.421   3.953   4.329 -0.0293  0.3152 -0.6327
10239TIP3    H252209   3.270   3.963   4.330 -0.1510 -0.8191  2.3707
10240TIP3   OH252210   1.802   2.666   3.745 -0.1938  0.1141  0.1275
10240TIP3    H152211   1.788   2.605   3.818 -0.9193 -0.5138 -0.5206
10240TIP3    H252212   1.733   2.644   3.682  0.5532  0.4921 -0.8451
10241TIP3   OH252213   2.887   2.495   3.698  0.1912  0.0554  1.0143
10241TIP3    H152214   2.921   2.545   3.624 -1.1930  1.1994  1.1060
10241TIP3    H252215   2.809   2.451   3.663  0.5376 -0.8421  1.3383
10242TIP3   OH252216   4.631   4.258   6.048  0.1574 -0.0267  0.3557
10242TIP3    H152217   4.611   4.350   6.036 -1.5309 -0.5671 -1.5115
10242TIP3    H252218   4.720   4.257   6.083  0.6152  2.2626 -0.5528
10243TIP3   OH252219   4.125   2.198   2.385 -0.4684  0.3083  0.4858
10243TIP3    H152220   4.044   2.146   2.388  0.1571 -0.8724 -1.4757
10243TIP3    H252221   4.095   2.288   2.375 -1.5632  0.3277  3.0947
10244TIP3   OH252222   1.538   4.482   1.914  0.2729 -0.2586  0.4673
10244TIP3    H152223   1.610   4.543   1.933 -0.7512  0.1978  3.3565
10244TIP3    H252224   1.530   4.429   1.994 -1.6385 -1.3006 -0.3638
10245TIP3   OH252225   5.508   6.317  17.280  0.1804 -0.2035 -0.1408
10245TIP3    H152226   5.480   6.288  17.194  0.3318 -0.1454 -0.2088
10245TIP3    H252227   5.580   6.259  17.303  1.4424  1.0085 -0.8889
10246TIP3   OH252228   0.985   4.760   3.653  0.4336  0.2179 -0.1130
10246TIP3    H152229   0.922   4.777   3.584  0.6411  0.1500 -0.3193
10246TIP3    H252230   0.997   4.665   3.653 -0.0219  0.1549  0.4190
10247TIP3   OH252231   0.142   1.556   4.382 -0.0856  0.2404 -0.0729
10247TIP3    H152232   0.222   1.527   4.337 -0.4591 -0.5257 -0.2565
10247TIP3    H252233   0.083   1.584   4.312 -0.5586 -0.6780 -0.0518
10248TIP3   OH252234   5.123   0.457   1.761 -0.4378  0.1824  0.0918
10248TIP3    H152235   5.066   0.506   1.702 -2.3175 -2.0307 -0.0637
10248TIP3    H252236   5.092   0.480   1.849  0.9188  1.7847  0.1978
10249TIP3   OH252237   2.490   0.820   2.523 -0.1530  0.3118 -0.7147
10249TIP3    H152238   2.523   0.797   2.610 -2.5547  0.9163  0.4239
10249TIP3    H252239   2.514   0.912   2.512  0.4346  0.1468 -0.8480
10250TIP3   OH252240   0.266   2.732   6.409 -0.1088  0.7326 -0.0402
10250TIP3    H152241   0.224   2.816   6.429  0.4877  1.0187  0.0224
10250TIP3    H252242   0.200   2.685   6.357 -1.1192  0.5351  1.3730
10251TIP3   OH252243   4.660   4.375  15.976  0.3553  0.3502 -0.0367
10251TIP3    H152244   4.646   4.460  16.018  2.4857  0.2040  1.0920
10251TIP3    H252245   4.609   4.313  16.029  0.0416  0.6915  0.0666
10252TIP3   OH252246   4.651   3.949  13.640 -0.0050 -0.6489 -0.7789
10252TIP3    H152247   4.609   3.981  13.720 -0.7129 -0.6792 -1.1265
10252TIP3    H252248   4.742   3.934  13.664 -0.2490 -0.8087  0.0653
10253TIP3   OH252249   4.609   1.948  15.177 -0.0910 -0.3265  0.3776
10253TIP3    H152250   4.532   1.895  15.160  0.7550 -1.6569  0.4926
10253TIP3    H252251   4.580   2.014  15.240 -1.5960  0.4519 -1.0816
10254TIP3   OH252252   2.893   3.132  10.580  0.0308 -0.1579  0.2291
10254TIP3    H152253   2.886   3.038  10.599 -0.9541  0.0720  1.0931
10254TIP3    H252254   2.971   3.160  10.628 -0.5299 -0.2555  1.2351
10255TIP3   OH252255   0.399   5.527  16.955 -0.3385  0.4605  0.5266
10255TIP3    H152256   0.374   5.497  16.868  0.0775 -0.2601  0.6506
10255TIP3    H252257   0.490   5.555  16.945  0.5262 -1.8891  1.2396
10256TIP3   OH252258   1.158   0.390  14.341 -0.0755  0.2461 -0.5773
10256TIP3    H152259   1.114   0.371  14.424  0.5272 -0.1121 -0.3346
10256TIP3    H252260   1.119   0.328  14.279  1.0492 -1.0479 -0.0494
10257TIP3   OH252261   6.796   4.509  16.992 -0.1837 -0.0314 -0.2214
10257TIP3    H152262   6.891   4.502  16.992 -0.2605 -1.1648 -0.1135
10257TIP3    H252263   6.768   4.459  16.915 -0.5805  2.3004 -1.7000
10258TIP3   OH252264   6.414   2.998  13.258 -0.2008  0.0050  0.1809
10258TIP3    H152265   6.336   3.009  13.204  0.1622 -2.1808 -0.9007
10258TIP3    H252266   6.468   3.074  13.238 -0.6066 -0.1541 -1.6659
10259TIP3   OH252267   1.050   5.604  11.220  0.7379 -0.2125  0.7843
10259TIP3    H152268   0.955   5.606  11.207  1.0339  2.0001 -2.1112
10259TIP3    H252269   1.080   5.530  11.167  0.8014  0.6365 -0.3963
10260TIP3   OH252270   6.703   0.978   2.938  0.0545 -0.0031 -0.5642
10260TIP3    H152271   6.654   1.056   2.914  0.2763  0.0002 -1.0163
10260TIP3    H252272   6.652   0.938   3.008  0.5127  1.1455  0.4598
10261TIP3   OH252273   3.449   6.757  14.175 -0.9688 -0.1356  0.2863
10261TIP3    H152274   3.489   6.671  14.189  1.2015  0.4711 -1.5038
10261TIP3    H252275   3.413   6.751  14.086 -0.8336  0.7747  0.1685
10262TIP3   OH252276   2.487   6.141   5.185  0.6552  0.0029 -0.6401
10262TIP3    H152277   2.581   6.119   5.185  0.6067 -0.2117 -0.4126
10262TIP3    H252278   2.458   6.121   5.096  0.9819  0.7713 -0.9390
10263TIP3   OH252279   3.818   4.658  12.384  0.4280 -0.2562  0.3941
10263TIP3    H152280   3.804   4.576  12.337 -1.1378  0.4349 -0.4093
10263TIP3    H252281   3.913   4.674  12.376  0.5180 -1.2261 -0.7154
10264TIP3   OH252282   0.831   1.453  11.857  0.3965 -0.1698  0.3592
10264TIP3    H152283   0.925   1.463  11.873  0.1228  1.0932  1.2602
10264TIP3    H252284   0.809   1.527  11.800 -0.3745  0.5497  1.5648
10265TIP3   OH252285   0.851   0.984   2.092  0.3974 -0.4584  0.1248
10265TIP3    H152286   0.797   0.963   2.168  0.1670 -0.8092 -0.1338
10265TIP3    H252287   0.870   1.077   2.101 -1.5192  0.0476 -0.5864
10266TIP3   OH252288   3.670   5.797   0.212 -0.2842  0.3271  0.0712
10266TIP3    H152289   3.739   5.858   0.238  0.1443 -0.4589  0.8047
10266TIP3    H252290   3.679   5.791   0.116  1.3123 -0.4868  0.2277
10267TIP3   OH252291   5.933   1.652   1.760 -0.2588  0.5020  0.1033
10267TIP3    H152292   5.977   1.729   1.724 -2.2858  0.8468 -1.8270
10267TIP3    H252293   5.867   1.629   1.695  0.4837 -3.1230  0.4464
10268TIP3   OH252294   4.281   1.608   5.161  0.0731  0.2152 -0.5992
10268TIP3    H152295   4.345   1.677   5.179 -0.3890  0.3923  0.4535
10268TIP3    H252296   4.326   1.527   5.185 -0.0422  0.3297  0.0268
10269TIP3   OH252297   6.030   5.498   1.966  0.4318 -0.1078 -0.3284
10269TIP3    H152298   5.964   5.459   2.024  1.0488 -1.0278 -0.2283
10269TIP3    H252299   6.107   5.441   1.975  0.8996  0.3625 -1.2297
10270TIP3   OH252300   0.360   2.920  16.731  0.3538  0.4264  0.1007
10270TIP3    H152301   0.382   2.892  16.642 -0.7118 -0.8397  0.2141
10270TIP3    H252302   0.441   2.906  16.781  0.3456 -0.9199 -0.2182
10271TIP3   OH252303   0.082   5.972  12.086  0.7629  0.4510 -0.3702
10271TIP3    H152304   0.002   5.955  12.036  0.7687 -1.8161  0.2801
10271TIP3    H252305   0.058   5.958  12.177  2.0833 -1.3131 -0.2341
10272TIP3   OH252306   0.056   6.719  16.662 -0.1656  0.4205 -0.4378
10272TIP3    H152307   0.134   6.731  16.716 -0.9178 -1.6093  1.1938
10272TIP3    H252308  -0.008   6.780  16.698 -0.9318 -1.4952  1.6065
10273TIP3   OH252309   4.631   2.344  15.189  0.2528  0.0744  0.3525
10273TIP3    H152310   4.572   2.268  15.194  1.0992 -0.6419 -0.2421
10273TIP3    H252311   4.706   2.321  15.244  0.8687  0.1411 -0.4400
10274TIP3   OH252312   5.529   1.284   1.051 -0.2424 -0.9106 -0.0869
10274TIP3    H152313   5.611   1.308   1.007 -1.4857 -0.5392 -2.3793
10274TIP3    H252314   5.468   1.267   0.979 -3.8574  4.1497  1.2165
10275TIP3   OH252315   3.374   1.919  12.328  0.1714  0.0588 -0.2029
10275TIP3    H152316   3.307   1.850  12.325 -0.4165  0.6398 -0.6277
10275TIP3    H252317   3.447   1.883  12.278  0.1532 -0.5540  0.2043
10276TIP3   OH252318   6.528   2.581   2.784 -0.0610  0.2159  0.2595
10276TIP3    H152319   6.439   2.617   2.776  0.6060  1.7437 -0.6885
10276TIP3    H252320   6.567   2.630   2.855 -0.4996 -1.7099  1.9296
10277TIP3   OH252321   4.684   1.967  16.117  0.4843  0.7851  0.7060
10277TIP3    H152322   4.646   2.050  16.148 -1.4025  0.4570 -0.5349
10277TIP3    H252323   4.644   1.954  16.031  0.7439 -1.4055  0.8696
10278TIP3   OH252324   1.184   0.803   4.908 -0.4987 -0.2034  0.3637
10278TIP3    H152325   1.143   0.842   4.985 -0.3101  0.8535 -0.0482
10278TIP3    H252326   1.133   0.724   4.891  1.1739 -2.0272  3.1968
10279TIP3   OH252327   5.660   3.691  15.198  0.0538 -0.3128  0.0552
10279TIP3    H152328   5.598   3.709  15.269  0.0808 -0.6599  0.1677
10279TIP3    H252329   5.730   3.756  15.210  0.4297 -0.8347  0.7970
10280TIP3   OH252330   6.116   0.680  15.605  0.8294  0.5469 -0.3471
10280TIP3    H152331   6.076   0.620  15.542  1.8937 -2.9074  1.9684
10280TIP3    H252332   6.208   0.684  15.579  0.8492  0.8192 -0.2363
10281TIP3   OH252333   5.250   0.181   1.163 -0.0811  0.1291 -0.1800
10281TIP3    H152334   5.277   0.247   1.099  0.5737  0.1146  0.0800
10281TIP3    H252335   5.331   0.155   1.207 -0.4655 -0.1772  0.3577
10282TIP3   OH252336   6.814   5.226   5.219 -0.4740 -0.1744  0.1208
10282TIP3    H152337   6.769   5.247   5.301  0.7322  1.3559  0.4410
10282TIP3    H252338   6.807   5.305   5.166  2.4725  0.4887  0.5310
10283TIP3   OH252339   5.433   0.130  12.241 -0.0124 -0.3190  0.1359
10283TIP3    H152340   5.380   0.209  12.252  2.9513  2.0194 -0.9640
10283TIP3    H252341   5.482   0.124  12.323  2.2279  1.1032 -1.0034
10284TIP3   OH252342   3.354   5.803   1.189  0.2709 -0.2618  0.1836
10284TIP3    H152343   3.364   5.745   1.265 -2.0551  0.6679  1.3019
10284TIP3    H252344   3.264   5.788   1.159  0.9642 -0.1961 -2.1038
10285TIP3   OH252345   0.520   3.904   2.572 -0.4393 -0.6152  0.0124
10285TIP3    H152346   0.511   3.995   2.602 -0.2332 -0.6754  0.2636
10285TIP3    H252347   0.477   3.903   2.487  0.4285 -0.0357 -0.4489
10286TIP3   OH252348   3.399   1.871  14.335 -0.5120  0.2466 -0.9202
10286TIP3    H152349   3.492   1.848  14.329 -0.3968  0.2540  0.3788
10286TIP3    H252350   3.359   1.830  14.259  0.2177 -1.5605 -0.3856
10287TIP3   OH252351   0.467   4.399  15.066 -0.3475  0.8085  0.0246
10287TIP3    H152352   0.438   4.490  15.071 -0.4587  0.7817 -0.1180
10287TIP3    H252353   0.526   4.397  14.990  0.7414  1.0553  0.8522
10288TIP3   OH252354   6.821   2.294  17.159  0.0473  0.5095  0.1568
10288TIP3    H152355   6.864   2.379  17.148 -3.0330  2.2573  0.5426
10288TIP3    H252356   6.816   2.282  17.254 -0.5109  0.4357  0.1187
10289TIP3   OH252357   1.880   3.418   1.400 -0.3227  0.0839  0.2751
10289TIP3    H152358   1.819   3.448   1.467 -0.9192 -0.7175  0.1009
10289TIP3    H252359   1.836   3.433   1.317 -0.3346 -0.5818  0.1516
10290TIP3   OH252360   2.563   6.558   0.170 -0.3763  0.5272  0.0590
10290TIP3    H152361   2.588   6.600   0.088 -1.3903 -2.2912 -1.8637
10290TIP3    H252362   2.488   6.608   0.201  0.8473  2.4633  0.0894
10291TIP3   OH252363   3.832   4.626   4.496  0.7583  0.1980 -0.3945
10291TIP3    H152364   3.737   4.618   4.497  0.8493 -1.2054 -0.9252
10291TIP3    H252365   3.851   4.695   4.560 -0.4722 -1.0272  1.3773
10292TIP3   OH252366   4.801   3.621   2.574  0.3561 -0.0212  0.4076
10292TIP3    H152367   4.740   3.556   2.608  0.7451 -0.5513  0.1151
10292TIP3    H252368   4.869   3.628   2.641  1.9022 -2.1403 -0.8022
10293TIP3   OH252369   1.643   4.169  14.315 -0.5634 -0.6400  0.3086
10293TIP3    H152370   1.597   4.086  14.313 -0.8149 -0.5080 -1.9871
10293TIP3    H252371   1.731   4.148  14.345 -1.6645 -1.0578  3.6721
10294TIP3   OH252372   5.828   0.488   5.301 -0.2262 -0.5014  0.2180
10294TIP3    H152373   5.917   0.515   5.278 -0.5254  0.0711 -0.2811
10294TIP3    H252374   5.836   0.455   5.391  0.3780  0.0968  0.3943
10295TIP3   OH252375   3.221   5.774  13.403 -0.3051  0.2342 -0.2865
10295TIP3    H152376   3.270   5.728  13.471  0.2822 -0.0290 -0.8724
10295TIP3    H252377   3.220   5.866  13.431 -0.2902  0.0891  0.1958
10296TIP3   OH252378   5.177   1.580  17.000  0.1208 -0.0934  0.2085
10296TIP3    H152379   5.124   1.536  17.066  1.0075  1.2937  1.9714
10296TIP3    H252380   5.203   1.662  17.042  0.7372  0.8642 -1.9063
10297TIP3   OH252381   5.404   5.518  12.623  0.3760 -0.0014  0.3450
10297TIP3    H152382   5.391   5.475  12.707  0.3905 -1.2376 -0.2621
10297TIP3    H252383   5.404   5.446  12.559 -2.7747  1.0812 -1.0944
10298TIP3   OH252384   5.533   5.685   5.036 -0.4091  0.0391 -0.3359
10298TIP3    H152385   5.496   5.645   5.114 -1.0777  0.9006 -0.2022
10298TIP3    H252386   5.620   5.714   5.063 -1.0348  1.2945  0.4158
10299TIP3   OH252387   6.374   0.526   5.994 -0.1048 -0.2757  0.4199
10299TIP3    H152388   6.336   0.497   5.912 -0.4587 -0.5055  0.6612
10299TIP3    H252389   6.420   0.607   5.972 -1.3864  0.4307  0.2742
10300TIP3   OH252390   0.749   4.540  17.001  0.3282 -0.2111 -0.1024
10300TIP3    H152391   0.722   4.468  16.944  1.3235 -1.5904  1.0644
10300TIP3    H252392   0.715   4.516  17.087  0.9058  0.5676  0.3560
10301TIP3   OH252393   2.488   5.401  10.997 -0.3689  0.3602 -0.3290
10301TIP3    H152394   2.457   5.310  10.995 -1.1452  0.6161 -0.2087
10301TIP3    H252395   2.444   5.443  10.924  0.0151  0.6339 -0.4027
10302TIP3   OH252396   2.177   6.573  14.722 -0.6225 -0.3093 -0.2968
10302TIP3    H152397   2.270   6.594  14.711 -0.4436  1.3239  3.0810
10302TIP3    H252398   2.139   6.652  14.760 -3.3127 -1.1548 -1.0293
10303TIP3   OH252399   3.648   4.944   1.175 -0.1777 -0.2718  0.1044
10303TIP3    H152400   3.606   4.862   1.147 -1.3037 -0.0552  1.0650
10303TIP3    H252401   3.576   5.007   1.182  0.4203  0.3370  1.0367
10304TIP3   OH252402   1.665   4.986   2.776  0.6865 -0.9123 -0.2144
10304TIP3    H152403   1.645   4.924   2.847  1.6055 -0.8650  0.0964
10304TIP3    H252404   1.644   5.072   2.812 -0.8218 -1.0377 -0.7288
10305TIP3   OH252405   6.202   5.363  16.026  0.0443 -0.1191 -0.4782
10305TIP3    H152406   6.114   5.327  16.036  0.1186  0.1368  1.3264
10305TIP3    H252407   6.245   5.345  16.109  1.6686 -0.1159 -1.2846
10306TIP3   OH252408   2.007   3.824  16.448  0.8882  0.1922  0.6024
10306TIP3    H152409   1.917   3.822  16.479  1.2938 -0.3947  1.7862
10306TIP3    H252410   2.003   3.872  16.365 -0.8691 -1.8100 -0.5642
10307TIP3   OH252411   2.380   2.808   6.226 -0.6149  0.3872  0.2145
10307TIP3    H152412   2.290   2.840   6.233 -1.7717 -2.4674 -0.2047
10307TIP3    H252413   2.383   2.731   6.282  1.0873 -0.5345 -1.0261
10308TIP3   OH252414   4.889   0.975   3.382  0.2387  0.2837  0.9835
10308TIP3    H152415   4.855   1.064   3.376  0.2754  0.6227  3.9966
10308TIP3    H252416   4.962   0.973   3.320 -2.0333  1.0809 -1.9595
10309TIP3   OH252417   3.798   3.263  13.611  0.0228 -0.4704  0.2451
10309TIP3    H152418   3.824   3.349  13.644 -0.0923  0.4915 -1.9788
10309TIP3    H252419   3.704   3.271  13.591  0.4746 -0.2897 -2.1336
10310TIP3   OH252420   3.839   1.274  13.317  0.1483  0.0472  0.4949
10310TIP3    H152421   3.791   1.193  13.303  0.3568 -0.4954  2.5938
10310TIP3    H252422   3.857   1.275  13.411  2.0247  1.4703  0.1747
10311TIP3   OH252423   5.168   0.167  13.777 -0.2135 -0.0537 -0.2323
10311TIP3    H152424   5.241   0.210  13.821 -0.2086  0.1372 -0.4277
10311TIP3    H252425   5.111   0.238  13.748 -0.4430 -0.1973 -0.1433
10312TIP3   OH252426   2.454   6.350  14.856 -0.2638  0.2858  0.0164
10312TIP3    H152427   2.363   6.320  14.855 -0.4279  0.4819 -3.5126
10312TIP3    H252428   2.451   6.436  14.814  1.4130  0.9319  1.1427
10313TIP3   OH252429   1.396   0.187  13.804  0.3109  0.4739  0.8169
10313TIP3    H152430   1.383   0.280  13.825 -0.1561  0.2430  1.5801
10313TIP3    H252431   1.346   0.140  13.871 -1.2456 -0.3105 -0.8087
10314TIP3   OH252432   3.372   0.090  16.065 -0.3464 -0.3628 -0.0290
10314TIP3    H152433   3.376   0.186  16.072  1.4064 -0.1250 -2.8618
10314TIP3    H252434   3.456   0.060  16.099 -1.6103 -1.1718  2.6683
10315TIP3   OH252435   5.804   0.260   6.158  0.2851 -0.3944  0.0222
10315TIP3    H152436   5.730   0.282   6.101 -1.1112 -1.1401  1.4766
10315TIP3    H252437   5.824   0.342   6.204 -0.8152 -0.5879  0.8898
10316TIP3   OH252438   5.048   0.927  16.157  0.3747 -0.0627  0.0557
10316TIP3    H152439   4.988   0.863  16.197  0.5801 -0.5637 -0.4172
10316TIP3    H252440   5.071   0.888  16.072 -1.7812  1.9670 -1.5890
10317TIP3   OH252441   2.001   6.226   3.383  0.2587 -0.4860 -0.4855
10317TIP3    H152442   1.998   6.160   3.452 -0.7592  0.2470  0.2006
10317TIP3    H252443   2.019   6.308   3.429  1.0837 -0.2112 -1.2746
10318TIP3   OH252444   6.346   1.805  14.379  0.5898  0.2369  0.0586
10318TIP3    H152445   6.302   1.890  14.382  0.6883  0.4494 -2.4995
10318TIP3    H252446   6.298   1.754  14.315  1.3423 -1.1839  0.5685
10319TIP3   OH252447   0.770   1.967  11.370 -0.6726  0.1043  0.0020
10319TIP3    H152448   0.849   1.986  11.320 -1.5129  0.1759 -1.3391
10319TIP3    H252449   0.773   1.873  11.385 -0.5624  0.0364 -0.4404
10320TIP3   OH252450   5.660   5.800   0.189  0.8131 -1.2645  0.2606
10320TIP3    H152451   5.717   5.770   0.119  0.4460 -1.9400  0.2332
10320TIP3    H252452   5.630   5.886   0.162  0.7910 -1.4611 -0.3397
10321TIP3   OH252453   5.903   4.234   5.872  0.0551 -0.1639 -0.0414
10321TIP3    H152454   5.885   4.219   5.780 -0.4715 -2.1445  0.3394
10321TIP3    H252455   5.911   4.147   5.910 -1.4579  0.5371  2.1094
10322TIP3   OH252456   3.688   0.404   3.588 -0.5995 -0.0645  0.0398
10322TIP3    H152457   3.723   0.436   3.671 -0.2685  1.9426 -0.8386
10322TIP3    H252458   3.653   0.317   3.609 -0.1250  0.2161  2.1660
10323TIP3   OH252459   4.347   4.980  11.436  0.2190 -0.9461  0.5746
10323TIP3    H152460   4.426   4.929  11.417  0.1751 -1.3434  1.3809
10323TIP3    H252461   4.309   4.936  11.512 -0.5968 -0.5530  0.3974
10324TIP3   OH252462   4.480   3.080  15.189 -0.0170 -0.2396  0.1052
10324TIP3    H152463   4.418   3.095  15.118 -0.2324  0.4454  0.4309
10324TIP3    H252464   4.545   3.020  15.152  0.4734  0.9268 -1.0120
10325TIP3   OH252465   2.962   6.728  17.196  0.4666 -0.0605  0.3957
10325TIP3    H152466   2.986   6.804  17.144  3.2971 -0.0984  1.5061
10325TIP3    H252467   2.975   6.755  17.286 -0.9718 -1.1085  0.9682
10326TIP3   OH252468   4.247   4.417   2.664 -0.2220  0.4082 -0.0021
10326TIP3    H152469   4.315   4.420   2.731  0.4260  1.1687 -0.6740
10326TIP3    H252470   4.205   4.331   2.677 -0.4342  0.7240  1.6573
10327TIP3   OH252471   4.228   0.445   0.904 -0.2446 -0.0060 -0.1131
10327TIP3    H152472   4.193   0.503   0.972  0.6214 -0.3223  0.6216
10327TIP3    H252473   4.186   0.361   0.921 -1.7017  0.4339 -1.3406
10328TIP3   OH252474   4.499   4.862   0.491 -0.2594 -0.0567 -0.5405
10328TIP3    H152475   4.524   4.849   0.582 -1.4673 -3.4055 -0.5324
10328TIP3    H252476   4.581   4.880   0.446  0.8808 -1.7186  0.7561
10329TIP3   OH252477   0.729   1.580   5.481  0.3281  0.2027  0.4765
10329TIP3    H152478   0.709   1.618   5.395  0.2957  0.4553  0.5967
10329TIP3    H252479   0.819   1.608   5.498  1.2516 -1.8854 -0.5973
10330TIP3   OH252480   2.583   4.468   0.630  0.1055  0.0512  0.3316
10330TIP3    H152481   2.552   4.509   0.711 -1.1196 -0.3306  0.0765
10330TIP3    H252482   2.669   4.507   0.615 -0.6468  1.9174  0.5514
10331TIP3   OH252483   2.154   0.381   3.851 -0.2369 -1.0152  0.3406
10331TIP3    H152484   2.152   0.391   3.756  1.8240 -1.9539  0.1664
10331TIP3    H252485   2.174   0.469   3.884 -0.8507 -0.7119 -0.0786
10332TIP3   OH252486   2.164   2.548  11.489 -0.3379 -0.0506  0.2231
10332TIP3    H152487   2.215   2.607  11.545 -0.4061  0.4496 -0.2406
10332TIP3    H252488   2.102   2.605  11.444 -0.8289 -0.5629  0.2392
10333TIP3   OH252489   1.542   2.593   1.166  0.2725  0.4635 -0.1151
10333TIP3    H152490   1.503   2.510   1.140  0.8516 -0.2211  1.1276
10333TIP3    H252491   1.469   2.655   1.165  0.2365  0.5129 -3.2423
10334TIP3   OH252492   2.111   5.091  15.122  0.0880 -0.4617  0.3505
10334TIP3    H152493   2.204   5.078  15.103 -0.0845  1.3274 -2.2639
10334TIP3    H252494   2.069   5.009  15.097  0.4770  0.3055 -3.3631
10335TIP3   OH252495   4.498   5.741  14.712 -0.2499  0.3107 -0.1103
10335TIP3    H152496   4.473   5.738  14.804 -0.7508  1.4778 -0.1831
10335TIP3    H252497   4.430   5.795  14.671 -0.0633 -0.2349 -1.1740
10336TIP3   OH252498   0.401   5.697   2.387 -0.5095 -0.1125  0.1263
10336TIP3    H152499   0.306   5.687   2.374 -0.7297  1.5064  0.2388
10336TIP3    H252500   0.434   5.726   2.302 -0.2501  0.0674  0.2870
10337TIP3   OH252501   5.679   3.834  16.955  0.3162  0.3497 -0.1921
10337TIP3    H152502   5.756   3.891  16.961  0.1762  0.8316 -2.4291
10337TIP3    H252503   5.715   3.746  16.946  0.6207  0.5920 -1.4072
10338TIP3   OH252504   4.115   2.349  12.529  0.0888 -0.4906 -0.0123
10338TIP3    H152505   4.059   2.292  12.582 -1.0771 -0.7043 -1.3969
10338TIP3    H252506   4.110   2.434  12.572  0.6284 -1.0641  1.2211
10339TIP3   OH252507   2.036   2.757  14.623 -0.1052 -0.6441 -0.2720
10339TIP3    H152508   2.078   2.780  14.540  0.5783  0.7973  0.4291
10339TIP3    H252509   2.101   2.703  14.669  0.2256 -0.0061  0.0225
10340TIP3   OH252510   5.608   2.641   4.509  0.0178  0.3251  0.3874
10340TIP3    H152511   5.560   2.639   4.591  0.6918  0.0619  0.7846
10340TIP3    H252512   5.685   2.586   4.525  0.1860  0.3193 -0.3967
10341TIP3   OH252513   5.392   2.150   5.383 -0.2948 -0.8146  1.1653
10341TIP3    H152514   5.451   2.189   5.447 -2.1070  1.2231  1.7130
10341TIP3    H252515   5.305   2.164   5.419 -1.3226 -0.5888 -1.2242
10342TIP3   OH252516   1.490   4.639  15.152  0.2956 -0.2638 -0.6994
10342TIP3    H152517   1.454   4.726  15.171  2.6909  0.3485  1.6013
10342TIP3    H252518   1.433   4.605  15.084 -1.2555  2.7576 -1.1178
10343TIP3   OH252519   5.034   3.227   0.135  0.7807  0.3358  0.6426
10343TIP3    H152520   4.961   3.215   0.196 -1.1744 -0.2753 -1.6994
10343TIP3    H252521   5.019   3.313   0.097 -0.4665 -0.9490 -1.9699
10344TIP3   OH252522   6.729   1.165  14.275  0.1808 -0.1433 -0.0968
10344TIP3    H152523   6.785   1.138  14.347  0.0994 -1.1164 -0.3822
10344TIP3    H252524   6.641   1.166  14.311  0.0605 -1.2558 -0.3333
10345TIP3   OH252525   6.150   1.040   5.147  0.5223 -0.2776 -0.6303
10345TIP3    H152526   6.089   0.976   5.111  1.6310 -1.2035 -0.9197
10345TIP3    H252527   6.094   1.106   5.187 -0.7080 -2.4506  1.5558
10346TIP3   OH252528   1.993   3.630   1.751 -0.0709  0.0056  0.0724
10346TIP3    H152529   1.966   3.646   1.661  1.0092  0.3005 -0.2165
10346TIP3    H252530   1.943   3.552   1.778 -1.5400  0.8090 -0.2378
10347TIP3   OH252531   5.560   3.410  12.745  0.2596 -0.0264  0.0985
10347TIP3    H152532   5.610   3.330  12.730  2.0139  0.7839  1.1248
10347TIP3    H252533   5.626   3.472  12.779 -1.2486  1.4919  0.3725
10348TIP3   OH252534   6.607   0.988  12.806 -0.6935 -0.2449  0.2084
10348TIP3    H152535   6.598   0.924  12.876  3.0193  1.6077  2.7192
10348TIP3    H252536   6.543   1.056  12.828 -0.1614 -0.0897  1.3392
10349TIP3   OH252537   0.584   0.824   5.438  0.1801 -0.1685  0.1585
10349TIP3    H152538   0.593   0.910   5.480  2.3040  0.2507 -1.0121
10349TIP3    H252539   0.673   0.788   5.439 -0.6802 -2.4559  0.7321
10350TIP3   OH252540   2.760   3.137  15.164  0.5145  0.3824 -0.3067
10350TIP3    H152541   2.668   3.117  15.184  0.2096  0.2553 -1.7498
10350TIP3    H252542   2.799   3.154  15.250 -1.4499  3.0899  0.1988
10351TIP3   OH252543   5.579   0.666   5.297  0.1638 -0.2355  0.1146
10351TIP3    H152544   5.494   0.698   5.327  0.3886  1.0974 -0.6042
10351TIP3    H252545   5.579   0.574   5.321 -1.0659 -0.0237  1.0554
10352TIP3   OH252546   3.661   6.603  10.892  0.1806  0.2178 -0.1461
10352TIP3    H152547   3.575   6.572  10.918 -0.0307  0.0306 -1.0397
10352TIP3    H252548   3.646   6.692  10.859 -0.1079 -0.7087 -2.6714
10353TIP3   OH252549   2.389   0.741  15.736  0.0606 -0.3274  0.0851
10353TIP3    H152550   2.388   0.698  15.821  1.1817 -1.0584 -0.2589
10353TIP3    H252551   2.469   0.710  15.694  0.1646  1.0042 -0.7423
10354TIP3   OH252552   2.626   1.392  12.612  0.2240  0.3609 -0.0241
10354TIP3    H152553   2.641   1.479  12.651  1.7234 -0.0709  0.4195
10354TIP3    H252554   2.710   1.347  12.622  0.3228 -0.2046 -2.7013
10355TIP3   OH252555   0.716   6.006   6.427 -0.1482  0.1956  0.3083
10355TIP3    H152556   0.766   5.945   6.373 -0.9267  0.2862 -0.5439
10355TIP3    H252557   0.708   5.962   6.512  0.3283 -0.3545  0.0716
10356TIP3   OH252558   2.417   4.628   3.449 -0.2090 -0.1937 -0.0599
10356TIP3    H152559   2.429   4.721   3.471 -2.1719 -0.0404  0.6490
10356TIP3    H252560   2.335   4.626   3.400  0.3876 -1.4488 -1.0667
10357TIP3   OH252561   0.215   4.644  16.387 -0.5231 -0.5702 -0.2660
10357TIP3    H152562   0.275   4.570  16.389  1.5474  0.9953  0.6212
10357TIP3    H252563   0.240   4.694  16.309 -0.3646  0.3165  0.3333
10358TIP3   OH252564   0.641   4.087  12.490  0.4146  0.2671 -0.4761
10358TIP3    H152565   0.666   3.997  12.471 -1.5574 -0.2618 -0.7107
10358TIP3    H252566   0.603   4.119  12.408 -2.2780  0.0682  0.6013
10359TIP3   OH252567   2.565   0.067   3.424  0.2492 -0.3343 -0.5036
10359TIP3    H152568   2.518   0.147   3.448  1.5484  0.4125 -0.3712
10359TIP3    H252569   2.496   0.001   3.417 -1.0187  1.0273 -1.7968
10360TIP3   OH252570   0.197   4.354   2.524 -0.4195 -0.3088 -0.3075
10360TIP3    H152571   0.182   4.383   2.614  1.6945 -1.3952  0.4657
10360TIP3    H252572   0.113   4.315   2.497 -1.2872  0.6320  0.9207
10361TIP3   OH252573   1.427   6.789   6.434 -0.4806  0.1060 -0.4059
10361TIP3    H152574   1.395   6.704   6.465  0.7338 -0.0388  0.5703
10361TIP3    H252575   1.517   6.772   6.406  0.2575  1.2816  1.0642
10362TIP3   OH252576   3.052   5.038   0.595 -0.0506 -0.1832 -0.4503
10362TIP3    H152577   3.013   5.055   0.510  0.1217 -0.2858 -0.5499
10362TIP3    H252578   3.090   4.950   0.588  2.8986  1.0546 -1.3858
10363TIP3   OH252579   2.650   1.647   1.224 -0.1421 -0.2511 -0.1447
10363TIP3    H152580   2.706   1.592   1.279  0.6321 -1.2132 -1.8451
10363TIP3    H252581   2.618   1.715   1.284  0.7389 -1.1943  1.4664
10364TIP3   OH252582   1.993   6.689   1.063  0.2521 -0.3063 -0.2365
10364TIP3    H152583   2.032   6.687   0.975 -0.4572  1.1144 -0.6214
10364TIP3    H252584   1.900   6.707   1.047 -0.2969 -2.0383  0.7339
10365TIP3   OH252585   5.836   1.729  12.062 -0.6734 -0.3515  0.2891
10365TIP3    H152586   5.753   1.773  12.047 -1.0243 -0.5660  1.4868
10365TIP3    H252587   5.899   1.776  12.006 -1.2008  1.1309  0.8764
10366TIP3   OH252588   0.541   2.067   5.049 -0.0100  0.7985 -0.0931
10366TIP3    H152589   0.576   2.005   4.986 -1.3034 -0.6894  0.5797
10366TIP3    H252590   0.521   2.145   4.998 -0.3057 -0.0888 -1.3827
10367TIP3   OH252591   1.418   0.669  15.788  0.4710 -0.3027 -0.3701
10367TIP3    H152592   1.510   0.644  15.778  0.6268 -0.3981  1.0133
10367TIP3    H252593   1.391   0.699  15.702  1.7609 -0.4123 -0.8325
10368TIP3   OH252594   6.557   1.507   0.532  0.5664  0.3124 -0.4842
10368TIP3    H152595   6.570   1.600   0.514 -0.6924  0.4610 -0.7309
10368TIP3    H252596   6.484   1.482   0.476  0.8844 -0.8311 -0.4110
10369TIP3   OH252597   1.232   4.125   3.721  0.6231  0.1632 -0.1047
10369TIP3    H152598   1.232   4.104   3.627  0.6712 -0.8624  0.1177
10369TIP3    H252599   1.310   4.082   3.755  0.9883  1.1241  0.2874
10370TIP3   OH252600   0.475   5.879  13.488  0.1963 -0.3505 -0.0809
10370TIP3    H152601   0.420   5.891  13.565  0.5079  0.8281 -0.0351
10370TIP3    H252602   0.553   5.835  13.521  1.2602  2.0122  0.6838
10371TIP3   OH252603   4.905   2.007  11.629  0.3977 -0.0110 -0.5070
10371TIP3    H152604   4.902   2.052  11.714 -0.8148  1.4216 -1.2669
10371TIP3    H252605   4.959   1.929  11.645  2.1916  1.4467  0.9998
10372TIP3   OH252606   6.376   5.467  11.043 -0.0343 -0.7572 -0.2184
10372TIP3    H152607   6.326   5.473  11.124  1.2483  1.5558  0.5039
10372TIP3    H252608   6.310   5.465  10.974 -1.2626  2.7741  0.6662
10373TIP3   OH252609   4.171   6.312   0.984  0.1492 -0.2457  0.1782
10373TIP3    H152610   4.224   6.350   1.054  0.0033 -1.2961  0.8848
10373TIP3    H252611   4.141   6.387   0.933  1.3822  0.4389  0.4350
10374TIP3   OH252612   4.289   3.362   1.108 -0.0948  0.5535 -0.1293
10374TIP3    H152613   4.227   3.433   1.087 -2.6817 -1.5354 -0.1353
10374TIP3    H252614   4.237   3.300   1.159  2.8106 -0.1440  2.2280
10375TIP3   OH252615   3.530   5.656   3.636 -0.1095  0.2130  0.2993
10375TIP3    H152616   3.506   5.740   3.675  0.8251  0.2120  0.9128
10375TIP3    H252617   3.514   5.592   3.705 -1.7710 -0.2840 -0.4801
10376TIP3   OH252618   5.859   0.431  15.702  1.1050  0.2362  0.8254
10376TIP3    H152619   5.810   0.434  15.784  2.2340  0.6476  1.5145
10376TIP3    H252620   5.834   0.348  15.661 -2.8662  1.9040 -0.6202
10377TIP3   OH252621   2.211   3.859  16.008  0.3747 -0.2017  0.1684
10377TIP3    H152622   2.150   3.901  15.948 -3.1762 -3.5218  0.9885
10377TIP3    H252623   2.273   3.814  15.951  0.2205  0.8166 -0.8341
10378TIP3   OH252624   3.904   6.052   4.030 -0.5512 -0.1002  0.8102
10378TIP3    H152625   3.854   6.005   3.963  0.6152 -0.9713  0.5300
10378TIP3    H252626   3.995   6.044   4.003  0.0186 -0.9869  2.7904
10379TIP3   OH252627   0.509   0.118   4.738 -0.1836  0.0278  0.0037
10379TIP3    H152628   0.570   0.188   4.764 -1.5674  1.2287  0.1833
10379TIP3    H252629   0.565   0.044   4.717  1.2423  0.1049  2.9567
10380TIP3   OH252630   5.811   6.197   0.579  0.4052 -0.0121  0.4001
10380TIP3    H152631   5.816   6.200   0.675  0.0476  1.4642  0.4046
10380TIP3    H252632   5.829   6.287   0.552 -0.6149 -0.1650 -0.8691
10381TIP3   OH252633   5.984   3.005  15.685  0.2728  0.0999 -0.3649
10381TIP3    H152634   5.969   2.945  15.612  1.2439 -0.2576 -0.2833
10381TIP3    H252635   5.925   3.079  15.667 -1.1707 -0.9827 -0.3143
10382TIP3   OH252636   4.039   1.777  14.016 -0.0959 -0.1614  0.5593
10382TIP3    H152637   3.998   1.769  13.930  0.2447 -0.2301  0.4026
10382TIP3    H252638   3.975   1.741  14.077  0.1333 -1.1811  0.2122
10383TIP3   OH252639   1.683   6.806  14.999 -0.5791  0.0505 -0.4899
10383TIP3    H152640   1.698   6.867  15.071 -1.7723  0.2686 -0.4146
10383TIP3    H252641   1.631   6.855  14.935  0.1445 -0.2573 -1.3418
10384TIP3   OH252642   4.720   3.773  15.174  0.4260 -0.5365  1.2762
10384TIP3    H152643   4.701   3.759  15.267 -1.6400 -0.1159  0.9664
10384TIP3    H252644   4.711   3.868  15.162  1.2778 -0.5168  0.7637
10385TIP3   OH252645   1.315   2.034  11.330  0.1656  0.0860  0.0374
10385TIP3    H152646   1.314   2.008  11.237 -0.0654  0.8607 -0.1798
10385TIP3    H252647   1.272   1.961  11.375  0.1052 -0.2100 -0.4866
10386TIP3   OH252648   1.659   5.438   4.562 -0.4882  0.2543  0.4060
10386TIP3    H152649   1.679   5.443   4.468  1.8087  0.7299  0.8531
10386TIP3    H252650   1.627   5.350   4.575 -0.2626 -0.0180 -0.7498
10387TIP3   OH252651   6.783   1.966   3.719 -0.4624 -0.2940  0.5083
10387TIP3    H152652   6.837   2.016   3.658 -0.8873  1.2413  1.3436
10387TIP3    H252653   6.749   2.031   3.780 -1.4506 -1.5452  1.3438
10388TIP3   OH252654   1.863   4.568  17.217  0.4702 -0.4483 -0.3703
10388TIP3    H152655   1.848   4.662  17.221  0.0809 -0.5401  0.4479
10388TIP3    H252656   1.776   4.529  17.209  0.4283 -0.8383  1.5499
10389TIP3   OH252657   5.943   0.176   2.668  0.4152 -0.8610 -0.2703
10389TIP3    H152658   5.984   0.259   2.694 -1.1531  0.0773 -0.6493
10389TIP3    H252659   5.852   0.199   2.650 -0.2707 -2.8510  0.4309
10390TIP3   OH252660   3.847   6.397  10.354 -0.0336  0.8517 -0.0836
10390TIP3    H152661   3.826   6.491  10.350 -0.6374  0.8634  2.2119
10390TIP3    H252662   3.763   6.353  10.343 -0.0347  0.6511  0.6721
10391TIP3   OH252663   3.543   4.618  11.309 -0.4941  0.0584 -0.0007
10391TIP3    H152664   3.518   4.603  11.400 -3.3649 -1.3955 -0.8981
10391TIP3    H252665   3.482   4.685  11.277  0.8178  0.9442 -0.7540
10392TIP3   OH252666   4.773   6.082  15.439 -0.2893 -0.5725 -0.1134
10392TIP3    H152667   4.702   6.044  15.491 -0.8696  1.5153  0.7132
10392TIP3    H252668   4.835   6.115  15.503 -1.2346  2.4647 -0.6187
10393TIP3   OH252669   0.286   4.907  17.239 -0.4880  0.3051 -0.2280
10393TIP3    H152670   0.322   4.831  17.192  1.1049  1.8647 -1.6638
10393TIP3    H252671   0.214   4.871  17.290  0.2770 -2.1994 -0.7615
10394TIP3   OH252672   4.497   5.009  16.335  0.0371  1.2064 -0.0481
10394TIP3    H152673   4.587   5.043  16.340  0.6996 -0.0717 -1.8390
10394TIP3    H252674   4.501   4.925  16.382  0.1084  0.6261 -1.0477
10395TIP3   OH252675   4.014   0.596  11.453 -0.0846  0.0707  0.1326
10395TIP3    H152676   3.925   0.587  11.486 -0.8038  0.9518 -1.4232
10395TIP3    H252677   4.033   0.689  11.458 -1.0919  0.6702 -3.7415
10396TIP3   OH252678   1.316   1.535   2.790 -0.0332 -0.4657  0.1094
10396TIP3    H152679   1.275   1.467   2.844  0.5410 -0.7012  0.2529
10396TIP3    H252680   1.243   1.591   2.764 -0.3928 -0.6517  0.6921
10397TIP3   OH252681   0.036   3.955   1.994 -0.5447  0.1999 -0.4464
10397TIP3    H152682   0.014   3.868   2.029  4.7690 -1.2963  0.1545
10397TIP3    H252683   0.040   4.011   2.071  1.7809 -0.6850  0.1699
10398TIP3   OH252684   3.042   5.075   3.743  0.4194  0.6797  0.2219
10398TIP3    H152685   2.955   5.097   3.776 -0.9305 -1.9918 -1.3209
10398TIP3    H252686   3.054   4.983   3.767  1.9259  0.4107 -1.4343
10399TIP3   OH252687   2.091   3.887   0.623  0.5421  0.2680  0.5965
10399TIP3    H152688   2.142   3.820   0.668 -0.6341 -2.5832 -1.9870
10399TIP3    H252689   2.000   3.870   0.648  0.0481 -0.2738 -1.3947
10400TIP3   OH252690   4.219   1.335   5.766 -0.2164 -0.6061 -0.3357
10400TIP3    H152691   4.271   1.339   5.685 -0.3129 -1.0210 -0.4212
10400TIP3    H252692   4.172   1.251   5.760  0.6715 -1.1926  0.7068
10401TIP3   OH252693   1.180   6.651  12.443 -0.4949  0.2628 -0.6675
10401TIP3    H152694   1.089   6.624  12.429 -0.4703  0.6925 -1.7818
10401TIP3    H252695   1.183   6.741  12.410 -0.5965  1.8064  2.9671
10402TIP3   OH252696   2.847   0.714   0.601 -0.1794  0.2168  0.1189
10402TIP3    H152697   2.879   0.716   0.691  1.1758  1.4072 -0.3586
10402TIP3    H252698   2.896   0.643   0.559  0.0055  0.3893  0.0404
10403TIP3   OH252699   0.304   6.107   1.251  0.4696  0.0585  0.1950
10403TIP3    H152700   0.394   6.115   1.283  0.8024  1.1516 -0.9311
10403TIP3    H252701   0.255   6.069   1.325  1.9427 -1.0788  0.6337
10404TIP3   OH252702   6.437   1.137   3.912  0.1736 -0.4819 -0.1995
10404TIP3    H152703   6.498   1.096   3.851 -0.2254 -0.9732 -0.2732
10404TIP3    H252704   6.350   1.120   3.875 -0.0608 -0.5836  0.3828
10405TIP3   OH252705   4.014   0.623   3.190 -0.1817  0.3378  0.8740
10405TIP3    H152706   4.019   0.581   3.276  3.7046  0.3419  0.7957
10405TIP3    H252707   3.980   0.554   3.132  1.1582 -1.0617  1.6936
10406TIP3   OH252708   5.379   0.466  16.580  0.0029 -0.0636 -0.7171
10406TIP3    H152709   5.449   0.495  16.523 -0.8352  1.3453 -1.0836
10406TIP3    H252710   5.300   0.467  16.525 -0.7622  0.9895  0.3467
10407TIP3   OH252711   3.964   3.274   4.880  0.1726 -0.7046 -0.0091
10407TIP3    H152712   3.919   3.215   4.820  0.3170 -0.8056 -0.0188
10407TIP3    H252713   3.917   3.266   4.963 -1.8192  1.5153 -0.8047
10408TIP3   OH252714   0.703   0.504  12.303 -0.2772 -0.7250 -0.6039
10408TIP3    H152715   0.783   0.484  12.351  0.6055  3.2192 -0.1658
10408TIP3    H252716   0.640   0.531  12.370 -0.2067  1.2935 -1.2883
10409TIP3   OH252717   0.853   6.112   0.727 -0.0661  0.1157 -0.5159
10409TIP3    H152718   0.817   6.024   0.739 -0.4888  0.2770 -0.5856
10409TIP3    H252719   0.895   6.133   0.810 -0.5456  0.1133 -0.2691
10410TIP3   OH252720   5.452   6.142   1.011  0.0266  0.2327 -0.0303
10410TIP3    H152721   5.468   6.070   0.949  0.2734  1.0419 -0.9273
10410TIP3    H252722   5.539   6.177   1.030 -0.2602  2.2054 -1.9583
10411TIP3   OH252723   3.813   4.312  12.858 -0.4559 -0.3555  0.2039
10411TIP3    H152724   3.779   4.388  12.906 -2.5153  0.3712 -2.1987
10411TIP3    H252725   3.906   4.332  12.847 -0.4062  0.5448  1.7888
10412TIP3   OH252726   4.131   1.126   2.358 -0.2809  0.1664  0.0428
10412TIP3    H152727   4.210   1.157   2.401  0.5572 -0.6932 -0.8358
10412TIP3    H252728   4.093   1.063   2.420 -1.4482  2.0526  1.3829
10413TIP3   OH252729   1.967   1.881  14.683 -0.3665  0.0306 -0.0226
10413TIP3    H152730   1.887   1.829  14.681 -1.0456  1.0072  0.6914
10413TIP3    H252731   1.991   1.892  14.591  0.5564 -2.6032 -0.1847
10414TIP3   OH252732   4.415   1.600  16.857 -0.5847  0.3477 -0.1473
10414TIP3    H152733   4.330   1.581  16.895 -0.4771 -0.7560 -0.4260
10414TIP3    H252734   4.436   1.523  16.804  0.6082  0.5683 -0.0348
10415TIP3   OH252735   3.600   6.482   5.480  0.1190 -0.2945  0.6457
10415TIP3    H152736   3.609   6.536   5.402  1.3181  1.1545  1.7344
10415TIP3    H252737   3.656   6.406   5.465  0.2411 -0.0868  0.0630
10416TIP3   OH252738   1.223   6.253   1.663 -0.3428  0.1249  0.4117
10416TIP3    H152739   1.184   6.202   1.735 -1.2152  0.9664  0.5544
10416TIP3    H252740   1.253   6.186   1.601  0.8898 -0.6422  1.7559
10417TIP3   OH252741   1.180   3.133  11.540  0.2998  0.3004  0.0824
10417TIP3    H152742   1.137   3.113  11.457  0.9619 -1.5718  0.1464
10417TIP3    H252743   1.273   3.118  11.524  0.4024 -0.5045  1.2437
10418TIP3   OH252744   4.719   3.033  15.692 -0.1696 -0.3791 -0.6717
10418TIP3    H152745   4.659   3.027  15.767 -1.8265 -1.3099 -1.9906
10418TIP3    H252746   4.806   3.018  15.729 -0.6998  1.1045  1.3449
10419TIP3   OH252747   2.702   6.663  17.231 -0.0074 -0.2489  0.0471
10419TIP3    H152748   2.696   6.576  17.192 -0.4061 -0.8820  1.4577
10419TIP3    H252749   2.790   6.693  17.210 -0.2603 -0.4840 -1.4526
10420TIP3   OH252750   0.365   0.204  12.573  0.3712 -0.3177  1.0090
10420TIP3    H152751   0.281   0.186  12.530  0.7368 -0.2354  0.2297
10420TIP3    H252752   0.352   0.177  12.664 -0.0296 -1.7789  0.5555
10421TIP3   OH252753   1.514   4.744  14.009  0.4731 -0.4160 -0.4706
10421TIP3    H152754   1.556   4.660  14.024  0.0617 -0.3940  0.9110
10421TIP3    H252755   1.440   4.724  13.952  1.1195 -0.7769 -1.1914
10422TIP3   OH252756   1.023   1.565   1.170  0.3539 -0.2261 -0.5250
10422TIP3    H152757   0.978   1.538   1.090 -1.9372 -2.5705  1.3974
10422TIP3    H252758   0.971   1.638   1.204  1.0021  0.3950 -0.8265
10423TIP3   OH252759   5.510   3.434  14.083  0.8985 -0.2412  0.5230
10423TIP3    H152760   5.462   3.351  14.077  0.2751  0.1801 -0.9666
10423TIP3    H252761   5.498   3.463  14.174 -1.9317 -0.0530  0.2011
10424TIP3   OH252762   2.270   3.551  16.913  0.4698 -0.0833 -0.5063
10424TIP3    H152763   2.310   3.475  16.957 -0.6027 -0.0693  0.5208
10424TIP3    H252764   2.271   3.527  16.820  0.2028 -1.3479 -0.2091
10425TIP3   OH252765   5.676   6.283  15.494 -0.2223  0.2269 -0.3399
10425TIP3    H152766   5.624   6.222  15.441  0.5889  0.8578 -1.9446
10425TIP3    H252767   5.764   6.245  15.494 -0.3989 -0.2677  1.4360
10426TIP3   OH252768   5.653   5.555  14.584 -0.2883  0.1257 -0.6059
10426TIP3    H152769   5.572   5.583  14.627 -1.5053 -0.9751 -2.0762
10426TIP3    H252770   5.691   5.491  14.644  0.4947  1.9270  0.9387
10427TIP3   OH252771   6.279   4.772  13.799 -0.4917 -0.4090  0.4679
10427TIP3    H152772   6.283   4.685  13.838  1.1479  0.1090  1.5731
10427TIP3    H252773   6.310   4.831  13.867  0.6717  0.7555 -0.9867
10428TIP3   OH252774   3.576   2.412   3.078  0.3623 -0.0827  0.6580
10428TIP3    H152775   3.575   2.500   3.116  1.1409 -0.2159  0.9983
10428TIP3    H252776   3.644   2.416   3.011  0.4384 -0.4468  0.7122
10429TIP3   OH252777   0.211   4.531   3.236  0.2607 -0.0472  0.6584
10429TIP3    H152778   0.208   4.472   3.311  1.3154  0.3917  1.0701
10429TIP3    H252779   0.264   4.605   3.266  1.7013 -0.3965 -0.8751
10430TIP3   OH252780   1.489   5.588   3.868 -0.1290  0.7145  0.4579
10430TIP3    H152781   1.493   5.553   3.778  0.3100  2.4121 -0.2125
10430TIP3    H252782   1.500   5.682   3.858 -0.0843  0.9430  2.3196
10431TIP3   OH252783   1.799   4.118   5.931 -0.3995  0.0218  0.3516
10431TIP3    H152784   1.876   4.090   5.980 -0.0612  0.2412 -0.0419
10431TIP3    H252785   1.781   4.207   5.963  0.2426  0.4384 -0.3940
10432TIP3   OH252786   1.214   1.170  12.235 -0.5762 -0.0075 -0.4700
10432TIP3    H152787   1.133   1.140  12.276 -1.1176  4.5178  2.5211
10432TIP3    H252788   1.280   1.165  12.305  1.0797 -0.9307 -2.0058
10433TIP3   OH252789   0.678   1.464  17.268  0.0402  0.4453 -0.4970
10433TIP3    H152790   0.662   1.401  17.198 -2.1056  2.3269 -1.8603
10433TIP3    H252791   0.627   1.432  17.342  1.0487 -0.7323 -0.2899
10434TIP3   OH252792   6.023   3.219   1.664  0.6244  0.3880 -0.2790
10434TIP3    H152793   6.002   3.280   1.593 -0.6870  1.5368  1.0295
10434TIP3    H252794   6.043   3.137   1.620 -0.8002  0.8713 -1.9454
10435TIP3   OH252795   4.054   2.951   4.884 -0.5812  0.6671 -0.4992
10435TIP3    H152796   4.048   2.914   4.796 -0.7071  0.3848 -0.3745
10435TIP3    H252797   4.057   2.874   4.942  2.9193  0.6731 -0.4276
10436TIP3   OH252798   4.385   2.706   1.671  0.5585  0.3751  0.6458
10436TIP3    H152799   4.390   2.699   1.576  1.0947  1.9479  0.5308
10436TIP3    H252800   4.309   2.761   1.687 -0.8199 -1.5907  1.2641
10437TIP3   OH252801   6.339   4.958  14.929  0.8834  0.3261  0.4864
10437TIP3    H152802   6.381   4.892  14.873 -1.0937  0.0710 -0.7797
10437TIP3    H252803   6.340   5.038  14.877 -1.5355 -0.0633 -0.2648
10438TIP3   OH252804   5.774   2.903   3.218 -0.2025 -0.6381  0.2092
10438TIP3    H152805   5.828   2.896   3.297 -0.4618 -2.4292  0.2745
10438TIP3    H252806   5.834   2.882   3.146 -0.4770 -1.1927  0.1428
10439TIP3   OH252807   4.063   2.656   1.487  0.2754 -0.4656 -0.3721
10439TIP3    H152808   4.063   2.712   1.565 -1.6834 -0.4586 -0.3143
10439TIP3    H252809   4.114   2.704   1.423  0.1368  0.5538  0.2492
10440TIP3   OH252810   2.130   2.224   0.402 -0.3113 -0.2068  0.1732
10440TIP3    H152811   2.057   2.268   0.446  0.5545  0.9869  0.4629
10440TIP3    H252812   2.089   2.173   0.332 -1.4207  0.4440  0.3260
10441TIP3   OH252813   4.740   3.748  13.443  0.2284 -0.6895 -0.1104
10441TIP3    H152814   4.706   3.778  13.527 -1.0439  1.4651 -1.2713
10441TIP3    H252815   4.731   3.653  13.445 -2.3554 -0.5046  1.1703
10442TIP3   OH252816   4.815   3.098   3.920  0.1265  1.2588 -0.2708
10442TIP3    H152817   4.724   3.069   3.912  0.8223 -0.8536 -1.3214
10442TIP3    H252818   4.864   3.017   3.934  1.8015  2.4168  0.8346
10443TIP3   OH252819   4.475   2.547  16.293  0.4188 -0.1667  0.1470
10443TIP3    H152820   4.396   2.492  16.296 -0.3941  0.9326 -0.5828
10443TIP3    H252821   4.454   2.621  16.350  0.5464  0.6093 -0.8024
10444TIP3   OH252822   3.518   3.603   1.234 -0.2672 -0.2776 -0.1006
10444TIP3    H152823   3.545   3.514   1.213 -3.3524 -0.9262 -1.9861
10444TIP3    H252824   3.528   3.610   1.329  1.4264 -2.0898 -0.1002
10445TIP3   OH252825   4.974   3.866  16.623 -0.2396 -0.7110 -0.7010
10445TIP3    H152826   4.881   3.888  16.632 -0.5552 -1.8356 -1.1080
10445TIP3    H252827   5.018   3.951  16.621 -1.1760 -0.1694  0.2988
10446TIP3   OH252828   5.720   6.307   6.541  0.8393  0.2510  0.2278
10446TIP3    H152829   5.815   6.305   6.530  0.8485  1.4246 -0.0709
10446TIP3    H252830   5.702   6.392   6.581 -0.1854  0.5782 -0.8519
10447TIP3   OH252831   4.206   6.505  14.027 -0.1789 -0.6263 -0.3945
10447TIP3    H152832   4.209   6.600  14.015 -0.1224 -0.6065 -0.2232
10447TIP3    H252833   4.113   6.484  14.026 -0.2527 -0.4087  0.8235
10448TIP3   OH252834   2.067   5.547  17.090 -0.2539 -0.0347 -0.0060
10448TIP3    H152835   2.048   5.531  17.183  0.7201  0.6019  0.3224
10448TIP3    H252836   2.084   5.461  17.053 -1.8284 -0.4278  0.1144
10449TIP3   OH252837   4.316   1.227  12.155 -0.2473  0.4580 -0.1143
10449TIP3    H152838   4.282   1.181  12.078  0.8283 -0.1339 -0.2629
10449TIP3    H252839   4.368   1.299  12.120 -1.1592  1.2460  0.1064
10450TIP3   OH252840   2.498   5.612   4.591 -0.1210 -0.3407 -0.4513
10450TIP3    H152841   2.407   5.584   4.590 -0.2945 -0.4550 -5.7268
10450TIP3    H252842   2.548   5.535   4.563  1.6688 -0.1177  1.7793
10451TIP3   OH252843   3.955   4.743  16.261  0.3520 -0.2859  0.6471
10451TIP3    H152844   3.930   4.715  16.174 -0.8619  0.0553  0.8677
10451TIP3    H252845   3.888   4.807  16.286  1.7319  1.0421  1.0747
10452TIP3   OH252846   4.625   1.761   2.505  0.2786  0.4144  0.7337
10452TIP3    H152847   4.664   1.742   2.590  1.7430  2.5698  0.6074
10452TIP3    H252848   4.609   1.855   2.506  2.0266  0.8272 -2.0214
10453TIP3   OH252849   2.359   4.504   5.601 -0.3561  0.1945 -0.8787
10453TIP3    H152850   2.304   4.542   5.532  1.2091  2.6928 -0.8827
10453TIP3    H252851   2.413   4.439   5.556 -1.3245 -0.2660 -1.4058
10454TIP3   OH252852   0.894   0.169   1.705 -0.3809 -0.0864 -0.5893
10454TIP3    H152853   0.908   0.105   1.636  0.0841  1.6064 -2.1657
10454TIP3    H252854   0.824   0.226   1.671 -0.7153  0.3026  0.7001
10455TIP3   OH252855   0.750   6.791  12.099 -0.4104  0.3417 -0.8609
10455TIP3    H152856   0.756   6.696  12.105 -0.5780  0.3410 -0.6871
10455TIP3    H252857   0.778   6.811  12.010  1.7332  0.3148 -0.2338
10456TIP3   OH252858   0.299   2.386   1.337 -0.5640  0.0026 -0.3407
10456TIP3    H152859   0.231   2.392   1.404 -2.0769  0.0968 -1.8241
10456TIP3    H252860   0.298   2.295   1.309 -2.1794  0.5803 -2.3988
10457TIP3   OH252861   4.974   5.475   2.069  0.3369  0.4713 -0.0119
10457TIP3    H152862   4.933   5.497   1.985 -1.5849 -1.8503  0.1867
10457TIP3    H252863   4.943   5.542   2.130 -0.3340  0.7366 -0.6308
10458TIP3   OH252864   5.627   1.138   3.459 -0.5904  0.7039  0.0003
10458TIP3    H152865   5.649   1.139   3.366  1.8616 -0.0865  0.4846
10458TIP3    H252866   5.673   1.215   3.495  0.0765 -0.0440  0.8187
10459TIP3   OH252867   2.112   0.094  11.873 -0.1443 -0.5340  0.1455
10459TIP3    H152868   2.196   0.094  11.918  0.1902 -1.3751 -0.4627
10459TIP3    H252869   2.118   0.167  11.811  0.3720 -0.9460 -0.3020
10460TIP3   OH252870   6.761   2.121   5.885  0.2718 -0.6893 -0.3021
10460TIP3    H152871   6.799   2.100   5.800  1.6861 -0.9498  0.3698
10460TIP3    H252872   6.803   2.204   5.909 -1.2109  0.1487 -0.4906
10461TIP3   OH252873   1.210   5.976  16.382  0.0073  0.3684  0.4517
10461TIP3    H152874   1.157   5.924  16.321  0.1176  0.6061  0.1475
10461TIP3    H252875   1.148   6.038  16.420  0.0065  0.4449  0.3264
10462TIP3   OH252876   2.092   5.868  13.891 -0.3244 -0.6050  0.2927
10462TIP3    H152877   2.022   5.902  13.836  0.0583  1.3587  0.9576
10462TIP3    H252878   2.047   5.832  13.968 -0.7130 -1.4399 -0.3032
10463TIP3   OH252879   2.839   6.135  13.390 -0.2589  0.2084 -0.5981
10463TIP3    H152880   2.774   6.096  13.448  0.1062 -0.5784 -0.6967
10463TIP3    H252881   2.842   6.227  13.416  0.1814 -0.1940  0.9118
10464TIP3   OH252882   2.691   1.797  12.413  0.0830 -0.0645  0.0527
10464TIP3    H152883   2.761   1.753  12.461 -0.9362  0.8337  2.4987
10464TIP3    H252884   2.737   1.858  12.355  1.3725  0.8821  1.9741
10465TIP3   OH252885   1.103   3.015  16.906  0.3064  0.0589 -0.1248
10465TIP3    H152886   1.198   3.003  16.906  0.4253  0.8975 -0.4804
10465TIP3    H252887   1.071   2.957  16.975  1.1322  0.1702  0.3666
10466TIP3   OH252888   5.699   1.863   1.567 -0.4838  0.0970  0.1701
10466TIP3    H152889   5.705   1.818   1.482 -0.8767 -0.6576  0.5280
10466TIP3    H252890   5.703   1.956   1.546  0.3771 -0.0965 -0.5971
10467TIP3   OH252891   5.855   2.356   1.748  0.4196  0.1327  0.5489
10467TIP3    H152892   5.877   2.412   1.674  0.4099 -1.7638 -0.9499
10467TIP3    H252893   5.936   2.311   1.770 -0.2917 -1.7702 -0.5171
10468TIP3   OH252894   5.038   1.086   1.172 -0.6870 -0.2941 -0.3277
10468TIP3    H152895   4.976   1.094   1.099 -0.9429 -0.1668 -0.1027
10468TIP3    H252896   5.123   1.110   1.134 -0.4533 -2.1600 -1.0653
10469TIP3   OH252897   0.329   0.018   3.810 -0.0427  0.7776 -0.1851
10469TIP3    H152898   0.286   0.077   3.749  0.1624  1.8729  0.7152
10469TIP3    H252899   0.281   0.027   3.892 -0.2008 -0.5430 -0.1053
10470TIP3   OH252900   3.890   4.422  17.004  0.4404  0.1837 -0.1776
10470TIP3    H152901   3.828   4.493  16.989  0.7043  0.2315 -1.1171
10470TIP3    H252902   3.864   4.384  17.088 -1.3111 -0.2681 -0.8797
10471TIP3   OH252903   3.055   1.969  15.256  0.0265 -0.2240  0.3228
10471TIP3    H152904   2.968   1.972  15.295 -0.4686  0.0857 -0.7774
10471TIP3    H252905   3.067   1.878  15.231  0.1957 -0.3493  0.8440
10472TIP3   OH252906   4.876   0.393  13.481 -0.0961 -0.2862  0.0449
10472TIP3    H152907   4.781   0.403  13.471  0.0663  0.3588 -1.1143
10472TIP3    H252908   4.897   0.441  13.561 -0.5928  0.7172 -0.4032
10473TIP3   OH252909   3.973   1.508   0.000 -0.4329  0.0616 -0.0610
10473TIP3    H152910   4.065   1.496   0.023 -0.4842 -0.4243 -0.1064
10473TIP3    H252911   3.926   1.492   0.082 -0.3517  2.5985  0.5716
10474TIP3   OH252912   5.325   0.978   1.824 -0.3262 -0.3993  0.9021
10474TIP3    H152913   5.376   0.998   1.746 -0.1600  1.1919  1.3696
10474TIP3    H252914   5.336   0.884   1.837  0.5893 -0.4855 -0.3210
10475TIP3   OH252915   3.970   6.730   1.533 -0.1117 -0.8260  0.2278
10475TIP3    H152916   4.020   6.785   1.594 -1.9515 -0.7739  1.7790
10475TIP3    H252917   4.034   6.704   1.467  1.1308  2.1570  0.0857
10476TIP3   OH252918   2.182   1.984  16.131 -0.5144 -0.3027 -0.6078
10476TIP3    H152919   2.175   1.889  16.125  0.2299 -0.4128  0.0377
10476TIP3    H252920   2.168   2.015  16.042 -2.3178 -0.9000 -0.5655
10477TIP3   OH252921   5.282   0.959   3.642 -0.3755  0.2989 -0.3092
10477TIP3    H152922   5.256   0.922   3.558 -0.4616 -0.5225  0.0692
10477TIP3    H252923   5.199   0.985   3.683 -0.2835  1.3534 -0.7626
10478TIP3   OH252924   3.382   0.076   6.029 -1.2461 -0.4469  0.2309
10478TIP3    H152925   3.339   0.123   6.101 -1.3774  0.3876 -0.3881
10478TIP3    H252926   3.461   0.039   6.069 -0.0564  1.9986  0.2785
10479TIP3   OH252927   0.201   0.947  16.057  0.0297 -0.5121  0.2843
10479TIP3    H152928   0.262   0.982  15.992 -0.1262 -0.0599  0.3769
10479TIP3    H252929   0.115   0.956  16.017 -0.1349  0.3827  0.8046
10480TIP3   OH252930   3.646   0.493  13.700 -0.5238  0.5860  0.0808
10480TIP3    H152931   3.567   0.538  13.729 -1.7487 -0.2987 -1.7047
10480TIP3    H252932   3.684   0.551  13.635 -0.5067  0.3533 -0.1183
10481TIP3   OH252933   2.436   5.429  12.228  0.4726 -0.0540 -0.4897
10481TIP3    H152934   2.478   5.477  12.156  1.9957  2.2442  1.7748
10481TIP3    H252935   2.352   5.472  12.241  0.1219 -0.5800 -0.9560
10482TIP3   OH252936   2.344   2.370  11.824 -0.3387 -0.4729  0.2860
10482TIP3    H152937   2.329   2.299  11.762 -0.6074  0.4654 -0.7599
10482TIP3    H252938   2.344   2.327  11.910 -2.1590 -1.5045 -0.1747
10483TIP3   OH252939   3.835   2.969   3.663 -0.2437 -0.6120  0.0544
10483TIP3    H152940   3.884   3.046   3.632 -2.6119  1.8956  2.0366
10483TIP3    H252941   3.852   2.903   3.596  0.5519  2.1592 -2.7751
10484TIP3   OH252942   3.364   0.917  12.519  0.1063 -0.4267  0.6161
10484TIP3    H152943   3.316   0.967  12.453  0.1091  1.8272  2.2215
10484TIP3    H252944   3.454   0.949  12.514  0.0317  0.0390  1.9242
10485TIP3   OH252945   5.122   0.269  12.618 -0.0413 -0.7206  0.0257
10485TIP3    H152946   5.149   0.180  12.638  2.6490  0.2757  1.3511
10485TIP3    H252947   5.187   0.324  12.662 -0.4983  1.8668 -2.2738
10486TIP3   OH252948   2.623   1.662  12.680  0.1032 -0.1574  0.3188
10486TIP3    H152949   2.556   1.712  12.634 -2.5194 -1.9092  1.9478
10486TIP3    H252950   2.617   1.692  12.771  1.9085 -0.0166  0.4244
10487TIP3   OH252951   0.124   1.144   1.440 -0.0228 -0.2232 -0.1069
10487TIP3    H152952   0.101   1.154   1.347  1.5783 -2.7815 -0.8940
10487TIP3    H252953   0.096   1.055   1.462 -1.2097  0.6319  2.2046
10488TIP3   OH252954   1.863   5.064   3.825 -0.3681  0.4449  0.6773
10488TIP3    H152955   1.905   4.982   3.849 -1.8555 -0.4686  0.2799
10488TIP3    H252956   1.772   5.054   3.854 -0.4001  2.3075  1.4096
10489TIP3   OH252957   3.997   5.600  15.104  0.3919 -0.2428 -0.4710
10489TIP3    H152958   4.019   5.510  15.130  2.5104  0.8075  1.6746
10489TIP3    H252959   4.013   5.602  15.010  0.4097 -2.0511 -0.5493
10490TIP3   OH252960   4.536   1.771  16.640 -0.7147 -0.1115 -0.0192
10490TIP3    H152961   4.512   1.716  16.715 -1.6653  0.4034  0.0800
10490TIP3    H252962   4.562   1.710  16.572  0.1621 -0.5933  0.7198
10491TIP3   OH252963   2.230   3.338  11.969 -0.3186  0.3491  0.7102
10491TIP3    H152964   2.295   3.282  11.929 -0.4594  0.8530 -0.2512
10491TIP3    H252965   2.146   3.303  11.939 -0.4312  0.6226  0.7017
10492TIP3   OH252966   1.688   1.162   2.440  0.7058 -0.0736 -0.2387
10492TIP3    H152967   1.747   1.148   2.514 -0.4266  2.6895  1.3230
10492TIP3    H252968   1.678   1.075   2.401  1.8012 -1.5513  2.5066
10493TIP3   OH252969   2.947   5.043  10.773 -0.6896 -0.2713  0.5527
10493TIP3    H152970   2.911   5.110  10.714  1.5186  0.3831 -0.1422
10493TIP3    H252971   3.010   4.995  10.720 -0.3060 -1.1819  1.7762
10494TIP3   OH252972   5.498   0.579   3.122 -0.1949 -0.2741 -0.1882
10494TIP3    H152973   5.553   0.550   3.195 -1.5705  0.8024  1.3471
10494TIP3    H252974   5.411   0.544   3.141 -1.4379  2.8456  0.6724
10495TIP3   OH252975   1.566   2.997   2.736  0.1187  0.3597  0.3892
10495TIP3    H152976   1.552   3.034   2.649  1.3729  0.2457  0.1209
10495TIP3    H252977   1.572   3.072   2.794 -0.2136  0.4575  0.2969
10496TIP3   OH252978   6.222   3.090   5.704 -0.3127  0.4710 -0.5516
10496TIP3    H152979   6.280   3.113   5.777 -0.0604 -1.0757 -0.2328
10496TIP3    H252980   6.143   3.142   5.718 -0.2765  0.1813  0.8401
10497TIP3   OH252981   3.631   0.214  12.013 -0.0161  0.2288 -0.5792
10497TIP3    H152982   3.566   0.147  12.033  0.3069 -0.0567 -0.4701
10497TIP3    H252983   3.662   0.193  11.925  0.3917 -0.0191 -0.3791
10498TIP3   OH252984   0.681   5.415  17.242 -0.3084 -0.3030 -0.7772
10498TIP3    H152985   0.589   5.392  17.252 -0.3490 -0.2664 -1.0748
10498TIP3    H252986   0.704   5.385  17.154 -0.3586  0.7821 -1.1788
10499TIP3   OH252987   2.001   4.003  10.435 -0.0092  0.7540 -0.6888
10499TIP3    H152988   2.094   4.011  10.458 -0.0798  0.5105 -0.3136
10499TIP3    H252989   2.002   3.990  10.340  0.2624  2.1511 -0.8965
10500TIP3   OH252990   3.462   0.812  10.993 -0.3017  0.4638  0.3057
10500TIP3    H152991   3.371   0.785  10.981 -0.8205  2.0102  0.6258
10500TIP3    H252992   3.475   0.883  10.930  2.0817 -2.6132 -3.0855
10501TIP3   OH252993   0.152   5.895  13.433  0.0041  0.1100  0.5141
10501TIP3    H152994   0.135   5.989  13.440 -0.0274  0.1896 -0.4843
10501TIP3    H252995   0.236   5.890  13.386  1.3302 -0.3256  2.7879
10502TIP3   OH252996   2.068   2.822   2.564 -0.7457 -0.0045 -0.7797
10502TIP3    H152997   2.042   2.754   2.502  1.7310 -1.6085 -0.2015
10502TIP3    H252998   2.117   2.885   2.511 -0.1369 -0.4711 -0.7914
10503TIP3   OH252999   5.000   3.650  11.070  0.1412 -0.2185 -0.2090
10503TIP3    H153000   5.002   3.581  11.003 -0.4033 -2.4879  1.9632
10503TIP3    H253001   5.089   3.651  11.105 -0.4066 -1.4899  1.3012
10504TIP3   OH253002   4.389   2.985  10.157 -0.5333  0.0403  0.5498
10504TIP3    H153003   4.365   2.921  10.224 -0.6103  0.3974  0.8667
10504TIP3    H253004   4.305   3.010  10.117 -0.4673 -0.3237  0.1803
10505TIP3   OH253005   0.906   6.410   2.455 -0.1126 -0.4139 -0.1263
10505TIP3    H153006   0.871   6.446   2.537  0.2755  0.1725 -0.2099
10505TIP3    H253007   0.831   6.403   2.397 -0.4321 -1.0500  0.3551
10506TIP3   OH253008   6.598   0.211   0.003  0.2418 -0.1326  0.4455
10506TIP3    H153009   6.533   0.194   0.072 -0.7872 -2.8359 -1.0635
10506TIP3    H253010   6.652   0.133   0.000  0.5858  0.1300 -1.4704
10507TIP3   OH253011   4.339   6.014  13.830 -0.0573 -0.0645  0.6871
10507TIP3    H153012   4.352   6.050  13.918  0.3758 -0.7273  0.8951
10507TIP3    H253013   4.426   5.985  13.802  0.1526  1.7132 -0.6774
10508TIP3   OH253014   3.846   3.803  11.200 -0.7816  0.0442 -0.6281
10508TIP3    H153015   3.858   3.710  11.220 -2.4079 -0.1095 -0.2245
10508TIP3    H253016   3.900   3.848  11.265  1.3300 -0.5882 -1.8375
10509TIP3   OH253017   5.035   6.216  11.311  0.1160 -0.3620 -0.0970
10509TIP3    H153018   5.099   6.281  11.341  1.2451 -1.5585  0.1237
10509TIP3    H253019   5.051   6.207  11.217  0.1875 -0.5791 -0.0637
10510TIP3   OH253020   1.329   3.215   5.788  0.4479  0.3745  0.3536
10510TIP3    H153021   1.323   3.236   5.694  1.1645 -0.5325  0.0926
10510TIP3    H253022   1.396   3.148   5.793  1.0905  1.0826  1.6458
10511TIP3   OH253023   2.105   4.727  16.585  0.0520 -0.0945 -0.1482
10511TIP3    H153024   2.029   4.767  16.629  0.5371  1.0478 -0.3183
10511TIP3    H253025   2.114   4.642  16.627  0.1201  0.7067  1.5577
10512TIP3   OH253026   4.776   0.455   1.410  0.3993 -0.0689 -0.0868
10512TIP3    H153027   4.783   0.548   1.389  1.7221  0.1939  1.3191
10512TIP3    H253028   4.735   0.416   1.333 -0.4407  1.7083 -0.5982
10513TIP3   OH253029   6.379   0.919   1.016 -0.2981  0.2696  0.3342
10513TIP3    H153030   6.299   0.968   1.034 -1.6168 -1.0934 -1.4664
10513TIP3    H253031   6.414   0.960   0.937  0.2756  0.2431  0.5718
10514TIP3   OH253032   0.291   5.411  16.712  0.4836 -0.0186 -0.3747
10514TIP3    H153033   0.281   5.496  16.671  0.9343 -1.0279 -2.7756
10514TIP3    H253034   0.317   5.353  16.640  0.9341 -2.0250  1.3057
10515TIP3   OH253035   3.567   1.498  10.979 -0.6072  0.5953  0.1100
10515TIP3    H153036   3.594   1.574  11.031 -0.1576  0.1996  0.4774
10515TIP3    H253037   3.650   1.457  10.953 -0.8402  0.4887 -0.4778
10516TIP3   OH253038   5.030   0.828   5.402  0.1812 -0.4413  0.5398
10516TIP3    H153039   5.117   0.796   5.377  0.9681  0.2343  2.2254
10516TIP3    H253040   4.996   0.871   5.323  0.9195 -1.6278 -0.4530
10517TIP3   OH253041   4.751   2.440  12.969 -0.2518 -0.3162  0.4518
10517TIP3    H153042   4.778   2.455  12.878 -0.6556  0.6061  0.4706
10517TIP3    H253043   4.821   2.387  13.007 -0.1178 -0.7787 -0.4172
10518TIP3   OH253044   6.734   5.029   3.674 -0.1491  0.1541 -0.6210
10518TIP3    H153045   6.643   5.011   3.650  0.4658 -1.3383 -2.0033
10518TIP3    H253046   6.730   5.052   3.767 -1.9199  0.0486 -0.6370
10519TIP3   OH253047   2.478   3.215  10.615 -0.3313 -0.0798  0.0802
10519TIP3    H153048   2.516   3.273  10.549 -2.7557  0.1019 -1.2682
10519TIP3    H253049   2.402   3.177  10.573 -0.1280 -2.5208  1.7267
10520TIP3   OH253050   3.195   4.743  11.419  0.1097 -0.4897 -0.5412
10520TIP3    H153051   3.101   4.734  11.409 -0.1463  0.1765  0.9583
10520TIP3    H253052   3.229   4.748  11.330 -1.3008 -0.4524 -1.0898
10521TIP3   OH253053   4.934   4.777  16.417  0.2547 -0.0774 -0.0523
10521TIP3    H153054   4.858   4.721  16.428  0.7727 -0.6178  0.9522
10521TIP3    H253055   5.007   4.725  16.452  0.6960  1.3454  1.2490
10522TIP3   OH253056   0.877   4.232   1.344 -0.3353 -0.4457 -0.5464
10522TIP3    H153057   0.830   4.191   1.272 -1.5982  1.2317 -0.7372
10522TIP3    H253058   0.955   4.270   1.303 -1.6656  1.5746 -1.3333
10523TIP3   OH253059   4.743   6.109   0.037  0.1238 -0.5886 -0.1642
10523TIP3    H153060   4.713   6.122   0.127  1.4564 -0.5912  0.2998
10523TIP3    H253061   4.830   6.069   0.046 -0.5793 -2.5635 -1.4752
10524TIP3   OH253062   1.755   3.643  12.748 -0.1293 -0.3353 -0.5118
10524TIP3    H153063   1.806   3.578  12.795  1.0722 -0.2143 -1.5913
10524TIP3    H253064   1.772   3.625  12.655 -1.6471  0.0450 -0.8905
10525TIP3   OH253065   3.140   6.448   4.367 -0.3554  0.1787  0.1305
10525TIP3    H153066   3.080   6.384   4.329  0.7581 -0.4197 -0.6945
10525TIP3    H253067   3.207   6.395   4.409  0.4999  0.7885 -0.4354
10526TIP3   OH253068   3.054   2.809   0.912  0.2821 -0.5228 -0.3696
10526TIP3    H153069   3.149   2.820   0.910  0.4840 -1.9694  0.0666
10526TIP3    H253070   3.020   2.898   0.921  1.5540  0.0876 -1.2555
10527TIP3   OH253071   0.243   4.130  11.005 -0.2900 -0.3762  0.8640
10527TIP3    H153072   0.210   4.088  11.084 -2.7230  2.5719  1.5967
10527TIP3    H253073   0.235   4.223  11.022  0.7912  0.4019 -2.2051
10528TIP3   OH253074   4.072   1.607   2.730 -0.1295  0.0308 -0.6951
10528TIP3    H153075   4.112   1.568   2.653 -0.6037  1.0746 -1.5044
10528TIP3    H253076   3.989   1.643   2.698 -0.7497 -0.2796  0.4957
10529TIP3   OH253077   4.972   4.232  16.287  0.0543  0.2518  0.7889
10529TIP3    H153078   4.970   4.260  16.196  2.6662  1.1247  0.8935
10529TIP3    H253079   4.961   4.313  16.337  1.4819  0.2549  1.1628
10530TIP3   OH253080   5.113   3.527  15.332  0.3568 -0.0418  0.2901
10530TIP3    H153081   5.101   3.529  15.427 -1.4337  2.3202  0.1115
10530TIP3    H253082   5.038   3.479  15.298  0.1688  0.4572 -0.0075
10531TIP3   OH253083   6.806   0.693  13.443 -0.3288 -0.2267  0.1282
10531TIP3    H153084   6.868   0.765  13.457  0.6740 -1.3760  2.0476
10531TIP3    H253085   6.821   0.665  13.353 -1.5961  2.6886 -1.0993
10532TIP3   OH253086   3.925   4.531   0.874 -0.1412  0.6033 -0.0727
10532TIP3    H153087   3.912   4.581   0.794 -0.4366  2.4357  1.0709
10532TIP3    H253088   3.945   4.596   0.941  1.4702 -0.9781  1.0983
10533TIP3   OH253089   6.233   1.818   3.560  0.5942  0.3922 -0.6564
10533TIP3    H153090   6.280   1.900   3.577  0.1968  0.5106 -0.0917
10533TIP3    H253091   6.214   1.783   3.647 -1.0484  0.7472 -0.8446
10534TIP3   OH253092   4.871   3.690   1.213 -0.4208 -0.1685  0.4768
10534TIP3    H153093   4.928   3.614   1.222 -0.5448 -0.1895  1.0752
10534TIP3    H253094   4.889   3.722   1.124  1.7633  0.8058  1.1816
10535TIP3   OH253095   3.508   0.311   4.143 -0.1400  0.3736 -0.1997
10535TIP3    H153096   3.536   0.220   4.131  1.7553  1.1775 -2.6051
10535TIP3    H253097   3.538   0.334   4.231  0.2902 -0.9927  0.0378
10536TIP3   OH253098   1.646   4.527  14.138 -0.2994  0.2769 -0.4297
10536TIP3    H153099   1.719   4.589  14.145  1.0089 -1.3678  1.9189
10536TIP3    H253100   1.687   4.443  14.119 -2.0083 -0.0763 -3.1731
10537TIP3   OH253101   6.359   1.571   1.306 -0.3268 -0.1997 -0.2133
10537TIP3    H153102   6.447   1.595   1.334  1.1208 -2.6716 -2.1807
10537TIP3    H253103   6.303   1.642   1.338  1.9944  0.3767  3.0510
10538TIP3   OH253104   1.134   4.952   2.795  0.1124 -0.1256 -0.8154
10538TIP3    H153105   1.223   4.936   2.763 -0.5028 -0.9776 -2.1761
10538TIP3    H253106   1.090   4.998   2.723 -0.2747  1.2571  0.2503
10539TIP3   OH253107   1.482   4.248   4.743  0.1121 -0.0247 -0.0409
10539TIP3    H153108   1.410   4.226   4.802 -0.3970  1.7806  0.0663
10539TIP3    H253109   1.452   4.326   4.696  3.3595  3.2681  2.7269
10540TIP3   OH253110   4.732   3.535  10.375  0.1400  1.0649  0.2573
10540TIP3    H153111   4.717   3.628  10.385 -1.7881  0.6394  2.0454
10540TIP3    H253112   4.669   3.507  10.309  0.8028  1.0294 -0.3708
10541TIP3   OH253113   0.764   0.705  13.270 -0.0279 -0.2654  0.6136
10541TIP3    H153114   0.670   0.717  13.276  0.2724  2.0137  2.1788
10541TIP3    H253115   0.787   0.740  13.183 -0.7731 -2.7334 -0.6612
10542TIP3   OH253116   2.860   6.575   4.808  0.3603  0.3530 -0.6637
10542TIP3    H153117   2.781   6.527   4.831  0.3451  0.8395  0.3597
10542TIP3    H253118   2.908   6.517   4.750  1.6065 -2.1311  2.5196
10543TIP3   OH253119   0.351   2.002   3.511 -0.1007 -0.0440  0.2697
10543TIP3    H153120   0.325   2.036   3.425  0.5666  1.0974  0.4932
10543TIP3    H253121   0.387   1.916   3.492 -1.7852 -0.6511 -0.3257
10544TIP3   OH253122   6.673   2.826  15.472 -0.1690  0.1272 -0.3057
10544TIP3    H153123   6.607   2.789  15.531 -0.8707 -1.1942 -1.8558
10544TIP3    H253124   6.653   2.788  15.387  2.8468 -0.6540 -0.7785
10545TIP3   OH253125   4.807   2.577   5.220  0.4374 -0.2452 -0.7818
10545TIP3    H153126   4.751   2.608   5.291  1.3103  1.9195 -0.9673
10545TIP3    H253127   4.860   2.508   5.260 -0.7225 -0.7082  0.0013
10546TIP3   OH253128   5.914   5.600  15.948  0.3304  0.1742 -0.3555
10546TIP3    H153129   5.897   5.626  15.857  2.0033 -0.6123 -0.9360
10546TIP3    H253130   5.871   5.515  15.956 -0.3516  0.5252 -0.1997
10547TIP3   OH253131   1.436   1.196   3.581 -0.2053  0.2087  0.3405
10547TIP3    H153132   1.366   1.256   3.607  0.1875 -0.1436  2.3825
10547TIP3    H253133   1.471   1.163   3.664  1.3412 -0.8216 -0.6741
10548TIP3   OH253134   4.722   5.196  15.039 -0.7186  0.4764 -0.1269
10548TIP3    H153135   4.816   5.187  15.022 -0.7792 -0.3889 -0.0306
10548TIP3    H253136   4.690   5.107  15.046 -1.7941  0.7270 -1.4098
10549TIP3   OH253137   5.521   4.213   6.539  0.1565 -0.5309 -0.2540
10549TIP3    H153138   5.454   4.174   6.596 -1.0764  0.0055 -1.2649
10549TIP3    H253139   5.599   4.159   6.552 -0.9761 -2.2620 -0.2894
10550TIP3   OH253140   5.052   5.246   6.466  0.2259  0.6252 -0.7584
10550TIP3    H153141   5.072   5.339   6.457 -4.1896  1.9825  0.7102
10550TIP3    H253142   5.075   5.225   6.557 -0.2317  0.7787 -0.6019
10551TIP3   OH253143   3.238   5.544   5.170  0.0050 -0.8120 -0.2746
10551TIP3    H153144   3.263   5.526   5.079 -0.6521 -0.9501 -0.4292
10551TIP3    H253145   3.188   5.626   5.165  0.3923 -0.5522  0.0319
10552TIP3   OH253146   5.279   4.378  14.690  0.0049 -0.1906  0.1379
10552TIP3    H153147   5.228   4.390  14.770 -0.2939  1.0556 -0.2151
10552TIP3    H253148   5.252   4.293  14.656 -1.6393  0.3304  0.0985
10553TIP3   OH253149   1.716   3.244  15.953  0.0380  0.5649 -0.1147
10553TIP3    H153150   1.810   3.253  15.969 -0.3603  0.4518  2.8289
10553TIP3    H253151   1.689   3.331  15.922  0.6348  1.6875  2.2285
10554TIP3   OH253152   0.840   0.153   6.111 -0.5355 -0.0759  0.2430
10554TIP3    H153153   0.929   0.119   6.119 -1.1138 -1.8748 -0.3030
10554TIP3    H253154   0.850   0.246   6.092  1.2796 -0.6137 -1.7094
10555TIP3   OH253155   4.831   3.151  11.191  0.1843  0.1282  0.4984
10555TIP3    H153156   4.788   3.108  11.265  2.9661 -1.3916  1.3414
10555TIP3    H253157   4.909   3.191  11.228  1.4011 -0.2443 -1.5151
10556TIP3   OH253158   5.773   1.275   3.968 -0.3571 -0.6255  0.6871
10556TIP3    H153159   5.825   1.313   3.898 -0.9127 -1.0952  0.0093
10556TIP3    H253160   5.821   1.197   3.995 -0.7461 -1.1091 -0.0002
10557TIP3   OH253161   2.257   0.894   1.517  0.1405 -0.0440  0.1946
10557TIP3    H153162   2.302   0.859   1.594 -0.6722  0.4783  0.9209
10557TIP3    H253163   2.207   0.820   1.483 -0.4175  0.0153  0.8654
10558TIP3   OH253164   3.622   5.336  14.312  0.0168 -0.0291  0.2984
10558TIP3    H153165   3.647   5.327  14.219  2.5544  0.8161  0.8140
10558TIP3    H253166   3.696   5.299  14.360 -0.7340  0.5951  2.0053
10559TIP3   OH253167   3.549   4.276  16.438  0.1362  0.7596  0.2845
10559TIP3    H153168   3.559   4.187  16.471  0.2948  0.5224 -0.3934
10559TIP3    H253169   3.520   4.327  16.514 -2.0336 -0.2654  0.1895
10560TIP3   OH253170   3.069   6.093   4.227 -0.1226 -0.1904  0.0852
10560TIP3    H153171   3.005   6.023   4.236  0.3735 -0.6382  0.1849
10560TIP3    H253172   3.104   6.105   4.315 -0.7774  0.7502  0.2366
10561TIP3   OH253173   3.579   3.052   5.831  0.1387 -0.1536  0.1649
10561TIP3    H153174   3.520   3.020   5.764 -1.1810  0.8271  0.8137
10561TIP3    H253175   3.618   2.973   5.869  0.9706 -0.7232 -1.7469
10562TIP3   OH253176   1.258   0.640  16.921  0.2337  0.0399 -0.6352
10562TIP3    H153177   1.282   0.628  17.013 -2.1875  0.9818  0.2073
10562TIP3    H253178   1.306   0.718  16.893  0.8805 -0.1753 -0.1501
10563TIP3   OH253179   4.740   5.028  11.276 -0.1362  0.0118 -0.1264
10563TIP3    H153180   4.787   5.043  11.195 -1.0717 -0.2515 -0.7395
10563TIP3    H253181   4.767   5.100  11.334 -0.2043  0.7615 -1.0060
10564TIP3   OH253182   3.580   6.314  17.219 -0.8201 -0.2030 -0.2094
10564TIP3    H153183   3.570   6.238  17.276  3.1192 -0.7258  0.0822
10564TIP3    H253184   3.568   6.389  17.277 -1.0496 -0.6553  0.3365
10565TIP3   OH253185   5.069   3.799  16.886  0.7040 -0.2378 -0.0410
10565TIP3    H153186   5.042   3.798  16.794  0.9593 -0.1847 -0.1150
10565TIP3    H253187   5.117   3.881  16.897  0.0201  0.1210  0.3304
10566TIP3   OH253188   0.702   0.293  13.614 -0.0512 -0.4263  0.3923
10566TIP3    H153189   0.657   0.321  13.535  0.3402  1.0750  0.6686
10566TIP3    H253190   0.773   0.356  13.625  0.2805 -0.9763  1.5946
10567TIP3   OH253191   1.076   4.550  12.699  0.2894 -0.0702  0.0983
10567TIP3    H153192   1.034   4.486  12.641  0.5331 -0.2696  0.1393
10567TIP3    H253193   1.078   4.507  12.785 -1.2143  0.7211  0.5508
10568TIP3   OH253194   4.578   6.298  15.016  0.2892 -0.6676  0.5438
10568TIP3    H153195   4.488   6.297  15.048 -0.4685  0.1701 -1.4142
10568TIP3    H253196   4.573   6.257  14.929  1.3769  1.2992 -0.5151
10569TIP3   OH253197   4.369   2.073  12.168  0.0525 -0.0941 -0.1448
10569TIP3    H153198   4.308   2.136  12.208  2.6289  2.0184  0.7567
10569TIP3    H253199   4.345   2.071  12.076 -1.4932  0.4774  0.2091
10570TIP3   OH253200   1.637   1.452  12.868 -0.0068 -0.1888 -0.5705
10570TIP3    H153201   1.543   1.448  12.855 -0.2349  0.5382  0.7132
10570TIP3    H253202   1.652   1.534  12.915  1.1481 -0.7332  0.0737
10571TIP3   OH253203   3.711   2.024   0.978  0.0740 -0.1058 -0.1088
10571TIP3    H153204   3.675   2.103   0.938 -2.1667 -0.7152  0.6096
10571TIP3    H253205   3.803   2.023   0.950 -1.0377  0.0302 -4.4124
10572TIP3   OH253206   5.434   2.447  13.422 -0.0387 -0.1236  0.2769
10572TIP3    H153207   5.414   2.493  13.503 -1.5644 -0.4157  0.0965
10572TIP3    H253208   5.404   2.357  13.437  3.5351 -1.3578  0.8871
10573TIP3   OH253209   0.558   3.597   1.263 -0.1754 -0.4064 -0.7001
10573TIP3    H153210   0.491   3.558   1.319  0.7773  0.7790  1.4130
10573TIP3    H253211   0.621   3.635   1.324  1.4850  0.1213 -2.6100
10574TIP3   OH253212   3.850   0.775   3.771 -0.2116 -0.1226  0.1872
10574TIP3    H153213   3.797   0.820   3.705  0.8802  2.2372  0.8269
10574TIP3    H253214   3.941   0.798   3.748  0.5249 -2.8300  0.0049
10575TIP3   OH253215   0.509   2.426  16.473 -0.2203 -0.2916 -0.1892
10575TIP3    H153216   0.453   2.500  16.450 -2.0543 -1.2745  0.8242
10575TIP3    H253217   0.502   2.367  16.398 -0.0714 -0.1716 -0.2999
10576TIP3   OH253218   2.833   5.319  16.498 -0.0785 -0.2391  0.1466
10576TIP3    H153219   2.906   5.380  16.486 -0.4485  0.5965  1.9409
10576TIP3    H253220   2.832   5.299  16.591  1.0090 -4.3029 -0.5082
10577TIP3   OH253221   2.013   1.070   1.956  0.2744 -0.1832 -0.3786
10577TIP3    H153222   1.993   1.162   1.941 -0.4923 -0.2675  0.0947
10577TIP3    H253223   2.107   1.062   1.936  0.7424  1.0546  1.1317
10578TIP3   OH253224   0.236   5.345  12.893  0.3672 -0.1755  0.4349
10578TIP3    H153225   0.224   5.413  12.827 -0.3744  0.4936  1.2411
10578TIP3    H253226   0.165   5.283  12.876  0.1157  0.0481  0.6575
10579TIP3   OH253227   1.516   2.173  15.738  0.0388  0.0361 -0.3442
10579TIP3    H153228   1.520   2.235  15.810  0.7695  0.9001 -1.1142
10579TIP3    H253229   1.601   2.130  15.738  0.2228  0.3884 -0.9929
10580TIP3   OH253230   2.888   1.309  12.629  0.1255  0.2082 -0.9829
10580TIP3    H153231   2.922   1.359  12.703  2.1909  0.7570 -2.2264
10580TIP3    H253232   2.911   1.218  12.650 -0.6747  0.1565 -0.2666
10581TIP3   OH253233   2.701   0.066  16.501 -0.2385  0.0303  0.2469
10581TIP3    H153234   2.736   0.110  16.579 -0.3179  0.5006  0.0238
10581TIP3    H253235   2.777   0.027  16.459 -0.0510  0.5903  0.0537
10582TIP3   OH253236   4.302   5.612  15.240  0.2999  0.2648 -0.3316
10582TIP3    H153237   4.239   5.674  15.202 -0.2164  0.8194  1.3326
10582TIP3    H253238   4.318   5.548  15.170 -1.4784  0.5673 -1.0767
10583TIP3   OH253239   3.387   5.953   3.437 -0.2549  0.0838  0.1669
10583TIP3    H153240   3.458   5.964   3.374 -1.3459  0.2121 -1.0648
10583TIP3    H253241   3.309   5.939   3.384 -1.2509  0.4505  1.4785
10584TIP3   OH253242   0.745   2.445   0.627 -0.3339  0.3030 -0.4163
10584TIP3    H153243   0.790   2.481   0.704 -1.6145  0.7100  0.1651
10584TIP3    H253244   0.780   2.357   0.618  1.6510  1.0686 -0.8707
10585TIP3   OH253245   5.522   2.576  12.610  0.0349  0.2297  0.9857
10585TIP3    H153246   5.428   2.567  12.596 -0.0140  1.2015  0.5925
10585TIP3    H253247   5.561   2.557  12.525  0.3158 -1.5843  1.4827
10586TIP3   OH253248   3.285   5.222   4.883 -0.0924 -0.4716  0.0451
10586TIP3    H153249   3.243   5.227   4.968 -0.1288 -2.0912  0.1406
10586TIP3    H253250   3.356   5.287   4.887 -1.1195  0.6438  0.6866
10587TIP3   OH253251   5.628   4.092   4.950  0.1000  0.6186  0.4168
10587TIP3    H153252   5.609   4.051   4.866  0.4368  1.1237  0.0860
10587TIP3    H253253   5.558   4.156   4.963  0.8369  1.5704 -0.1869
10588TIP3   OH253254   4.872   0.406   2.771 -0.2466 -0.1972  0.5673
10588TIP3    H153255   4.832   0.450   2.846 -1.1217  3.1381 -1.6340
10588TIP3    H253256   4.966   0.421   2.781 -0.2800 -0.4605  1.3423
10589TIP3   OH253257   0.997   2.385  11.531 -0.3576  1.0862 -0.5011
10589TIP3    H153258   0.971   2.432  11.452 -0.8093 -0.0453 -1.0488
10589TIP3    H253259   1.076   2.338  11.506  0.0975  1.5336  0.0467
10590TIP3   OH253260   5.491   5.214  14.580 -0.5599  0.0023 -0.8913
10590TIP3    H153261   5.568   5.229  14.526 -0.9105  0.3846 -1.3003
10590TIP3    H253262   5.455   5.132  14.547  0.0408 -0.5331 -0.2447
10591TIP3   OH253263   0.489   4.990   2.838 -0.1767 -0.4331  0.0965
10591TIP3    H153264   0.508   4.933   2.913  2.7958  0.1236 -0.1442
10591TIP3    H253265   0.431   5.057   2.874  2.2745  0.6341  2.3703
10592TIP3   OH253266   5.588   0.158   2.188 -0.4895  0.1131 -0.2171
10592TIP3    H153267   5.624   0.224   2.129  1.0146 -0.0894  0.4255
10592TIP3    H253268   5.554   0.090   2.129  0.6782  0.0681 -0.8655
10593TIP3   OH253269   0.036   3.783  16.127  0.3428 -0.6228 -0.1182
10593TIP3    H153270  -0.017   3.852  16.169 -1.4111 -1.9531 -0.0386
10593TIP3    H253271   0.075   3.736  16.200  0.3551 -0.6169 -0.1203
10594TIP3   OH253272   6.079   6.151   4.529 -0.4580  0.5616  1.0062
10594TIP3    H153273   6.030   6.070   4.516 -0.4378  0.9329 -2.2009
10594TIP3    H253274   6.170   6.123   4.542 -0.2501  0.0395 -1.2729
10595TIP3   OH253275   6.324   2.397  11.863 -0.1295 -0.0474  0.5733
10595TIP3    H153276   6.251   2.392  11.801 -0.1196  0.7358  0.4845
10595TIP3    H253277   6.284   2.422  11.946 -0.1618 -1.2560  0.9316
10596TIP3   OH253278   4.380   4.333   0.133 -0.8085  0.1057 -0.0441
10596TIP3    H153279   4.463   4.302   0.099 -0.1221  1.0810  0.6757
10596TIP3    H253280   4.315   4.270   0.101  0.5970 -2.7730  2.2700
10597TIP3   OH253281   1.516   6.215  17.051 -0.1874  0.0613 -0.1953
10597TIP3    H153282   1.459   6.206  17.127 -0.4921  1.6541 -0.2060
10597TIP3    H253283   1.604   6.200  17.085 -0.4996 -1.5810 -0.0199
10598TIP3   OH253284   4.120   0.893  15.694  0.0161  0.5535  0.7821
10598TIP3    H153285   4.146   0.815  15.644  0.2925  0.9123  0.3661
10598TIP3    H253286   4.047   0.862  15.749 -0.6246  0.2768 -0.1968
10599TIP3   OH253287   4.190   4.133  15.175  0.2053 -0.0435  0.2266
10599TIP3    H153288   4.259   4.072  15.203  0.6464  1.2038  2.0760
10599TIP3    H253289   4.121   4.122  15.240 -0.7075 -0.1684 -0.7384
10600TIP3   OH253290   2.830   1.865   1.213  0.2108  0.3090 -0.2609
10600TIP3    H153291   2.786   1.780   1.209  1.0983 -0.1015 -2.0141
10600TIP3    H253292   2.876   1.863   1.297  0.3896 -1.0386 -0.3681
10601TIP3   OH253293   1.713   0.218  15.637 -0.2896 -0.3067 -0.5712
10601TIP3    H153294   1.624   0.248  15.655 -0.1901  0.5088 -1.3951
10601TIP3    H253295   1.740   0.265  15.559  0.5807 -1.1499 -0.8102
10602TIP3   OH253296   5.236   1.411   5.692 -0.1507  0.1703  0.2080
10602TIP3    H153297   5.195   1.338   5.738  0.7690  0.1584  1.0402
10602TIP3    H253298   5.226   1.486   5.751 -0.5619  0.5811 -0.3759
10603TIP3   OH253299   4.524   2.493   2.193  0.5414 -0.1253 -0.1667
10603TIP3    H153300   4.446   2.521   2.145  1.1844  1.9831 -0.0640
10603TIP3    H253301   4.491   2.429   2.256 -0.7636 -0.7951 -1.4827
10604TIP3   OH253302   0.646   5.527   1.026 -0.1047  0.4776  0.1780
10604TIP3    H153303   0.632   5.549   0.934  0.5486  0.6598  0.1146
10604TIP3    H253304   0.560   5.536   1.067 -0.1705  1.5494 -0.1785
10605TIP3   OH253305   6.428   6.739   6.664  0.1172  0.0843 -0.4327
10605TIP3    H153306   6.437   6.790   6.583 -0.8533  0.5187 -0.2726
10605TIP3    H253307   6.519   6.726   6.693  0.4131  1.4230 -0.6702
10606TIP3   OH253308   6.573   6.239   2.120 -0.3004  0.3262 -0.4435
10606TIP3    H153309   6.567   6.210   2.211 -0.3876 -0.2905 -0.6395
10606TIP3    H253310   6.482   6.254   2.094 -0.2737  0.5226 -0.4242
10607TIP3   OH253311   3.183   5.253   6.478  0.5221  0.0426 -0.1681
10607TIP3    H153312   3.246   5.212   6.538  1.0412  0.9767 -0.0456
10607TIP3    H253313   3.157   5.183   6.418  1.0121 -0.5765  0.3344
10608TIP3   OH253314   0.625   2.565  11.341  0.2104  0.4186  0.4735
10608TIP3    H153315   0.593   2.518  11.264  0.1287 -1.3218  1.5185
10608TIP3    H253316   0.573   2.529  11.413  1.0086  1.2584  1.4835
10609TIP3   OH253317   1.449   3.113   3.676  0.1913  0.5742  0.1415
10609TIP3    H153318   1.371   3.076   3.718  0.7899 -1.9022 -0.7411
10609TIP3    H253319   1.426   3.117   3.583  0.6073  1.2468  0.0655
10610TIP3   OH253320   4.220   1.586   3.255 -0.3994  0.4542  0.0964
10610TIP3    H153321   4.142   1.616   3.303  0.0643  0.5512  0.7972
10610TIP3    H253322   4.190   1.509   3.208 -1.5497  1.8180 -1.5257
10611TIP3   OH253323   3.287   2.391   4.431  0.0515 -0.0236 -0.1092
10611TIP3    H153324   3.261   2.359   4.345 -2.7032  0.9490  0.2851
10611TIP3    H253325   3.230   2.466   4.448 -0.0400 -0.6331  2.8642
10612TIP3   OH253326   4.682   1.918  13.182 -0.5350  0.5460  0.1393
10612TIP3    H153327   4.634   1.836  13.191 -0.5138  0.4722 -0.3888
10612TIP3    H253328   4.763   1.894  13.137 -0.6034  0.8837 -0.1649
10613TIP3   OH253329   3.361   6.428   0.432  0.3655 -0.2460  0.1897
10613TIP3    H153330   3.376   6.341   0.393  1.7662  1.7029 -4.4005
10613TIP3    H253331   3.271   6.425   0.463 -0.1535 -2.9329 -1.2241
10614TIP3   OH253332   2.819   5.687  14.308 -0.1896  0.4385  0.4669
10614TIP3    H153333   2.762   5.734  14.247 -0.1483 -0.2274 -0.0987
10614TIP3    H253334   2.908   5.707  14.278 -0.1787 -0.3228 -0.0391
10615TIP3   OH253335   6.566   4.748  11.762  0.1928  0.6769  0.6257
10615TIP3    H153336   6.476   4.742  11.793 -0.6130 -0.6009 -1.7262
10615TIP3    H253337   6.619   4.723  11.838 -1.3621  1.7749  2.1518
10616TIP3   OH253338   2.808   0.809  12.619  0.1063  0.2938  0.3549
10616TIP3    H153339   2.880   0.752  12.590  0.1288 -0.1336  1.2047
10616TIP3    H253340   2.852   0.888  12.651  0.1315  0.4271 -0.0007
10617TIP3   OH253341   2.564   6.701  15.701 -0.2084 -0.6220 -0.4726
10617TIP3    H153342   2.589   6.629  15.643  1.8608 -1.3375  1.1929
10617TIP3    H253343   2.492   6.666  15.753 -0.8417 -0.5941 -1.2895
10618TIP3   OH253344   2.826   1.253   1.088 -0.2004 -0.1040 -0.5991
10618TIP3    H153345   2.817   1.158   1.089  0.3261 -0.1570 -0.4424
10618TIP3    H253346   2.905   1.270   1.140 -0.4143  0.4305 -0.4438
10619TIP3   OH253347   1.088   2.767  12.657  0.2573 -0.3667 -0.1413
10619TIP3    H153348   1.110   2.780  12.749 -0.7217 -2.4730  0.4333
10619TIP3    H253349   1.170   2.739  12.617  1.0856  2.0241 -0.3210
10620TIP3   OH253350   3.175   3.247   5.062 -0.2251 -0.0355  0.1188
10620TIP3    H153351   3.233   3.255   4.987 -0.2591 -0.6819  0.0129
10620TIP3    H253352   3.119   3.171   5.041 -1.3607  0.7954  0.0496
10621TIP3   OH253353   2.243   4.953  11.405 -0.0653  0.6441 -0.3188
10621TIP3    H153354   2.168   4.959  11.464 -0.0307  1.2481 -0.3305
10621TIP3    H253355   2.288   4.874  11.432 -1.5844 -0.6411 -1.3567
10622TIP3   OH253356   0.076   6.633  15.705 -0.3851 -0.2677 -0.0021
10622TIP3    H153357  -0.017   6.637  15.686 -0.2995  2.5737 -0.2687
10622TIP3    H253358   0.082   6.594  15.792 -2.1996  2.9441  1.7275
10623TIP3   OH253359   3.779   5.187   3.000  0.1567 -0.1084  0.3961
10623TIP3    H153360   3.742   5.100   2.988 -0.7366  0.3806 -0.4816
10623TIP3    H253361   3.720   5.230   3.062 -0.5681  0.5378 -0.7055
10624TIP3   OH253362   4.795   6.495  14.320  0.2113 -0.0068  0.0010
10624TIP3    H153363   4.877   6.476  14.274 -0.1778 -3.3136  0.4780
10624TIP3    H253364   4.729   6.444  14.274 -1.2032  0.9172  0.9282
10625TIP3   OH253365   0.287   3.070  12.526  0.2184 -0.5070 -0.0495
10625TIP3    H153366   0.371   3.040  12.491  0.2591 -0.4098 -0.0363
10625TIP3    H253367   0.311   3.118  12.605  0.1110 -0.9086  0.2295
10626TIP3   OH253368   2.235   0.090  13.594 -0.2874  0.1319 -0.3947
10626TIP3    H153369   2.238   0.116  13.686  0.8857  1.6535 -0.8274
10626TIP3    H253370   2.173   0.150  13.554 -0.5789 -0.3439 -0.6738
10627TIP3   OH253371   3.285   6.751  15.100 -0.0226 -0.1231  0.3593
10627TIP3    H153372   3.208   6.776  15.050 -0.6744  1.7434  2.1799
10627TIP3    H253373   3.349   6.820  15.083  1.1052 -1.3666 -0.6971
10628TIP3   OH253374   0.972   5.246   3.850 -0.1994 -0.3477  0.6419
10628TIP3    H153375   0.945   5.330   3.889 -2.4325 -0.6134 -0.1528
10628TIP3    H253376   1.012   5.270   3.767 -1.1156 -0.0401  0.2706
10629TIP3   OH253377   0.200   5.337   0.510  0.0170 -0.4758  0.6899
10629TIP3    H153378   0.255   5.306   0.582  0.6361  1.7840  1.2949
10629TIP3    H253379   0.248   5.412   0.474 -0.9670 -0.6883 -1.1640
10630TIP3   OH253380   3.462   4.679  14.925  0.0182 -0.6334  0.1130
10630TIP3    H153381   3.407   4.672  14.847  1.2360 -0.3031 -0.8198
10630TIP3    H253382   3.401   4.688  14.997 -1.1632  2.0010 -1.0828
10631TIP3   OH253383   1.562   4.239   5.252 -0.2552 -0.5819 -0.1634
10631TIP3    H153384   1.563   4.287   5.169  1.2333 -1.5403 -0.7362
10631TIP3    H253385   1.570   4.307   5.319  0.0266  0.1013 -0.8780
10632TIP3   OH253386   3.751   2.440   2.486  0.3207  0.3671  0.5198
10632TIP3    H153387   3.687   2.430   2.557  2.1202 -1.6110  1.9789
10632TIP3    H253388   3.832   2.466   2.530  0.5235  3.4769 -1.3465
10633TIP3   OH253389   1.652   4.136  12.576  0.0937 -0.0249 -0.0317
10633TIP3    H153390   1.735   4.182  12.576  1.1831 -1.8611 -1.1782
10633TIP3    H253391   1.668   4.056  12.626 -0.4789 -1.1498 -1.5648
10634TIP3   OH253392   3.208   5.678   5.848 -0.2843  0.5566 -0.0882
10634TIP3    H153393   3.218   5.772   5.833 -1.4280  0.7556  0.2642
10634TIP3    H253394   3.113   5.663   5.844 -0.2557 -0.2811  1.5025
10635TIP3   OH253395   0.010   5.660  13.473 -0.2365  0.0203  0.2668
10635TIP3    H153396  -0.079   5.671  13.440  0.0298 -1.8347 -1.2982
10635TIP3    H253397   0.047   5.748  13.473 -2.0491  0.8414  1.0156
10636TIP3   OH253398   0.637   5.360   6.160 -0.1315 -0.1612 -0.1105
10636TIP3    H153399   0.583   5.409   6.221  1.3809 -0.8192  1.8586
10636TIP3    H253400   0.711   5.418   6.140 -1.3486  0.6637 -2.6332
10637TIP3   OH253401   0.063   2.355  12.701 -0.0716  0.9055  0.0903
10637TIP3    H153402   0.032   2.382  12.788  0.6388 -0.3646  0.7809
10637TIP3    H253403   0.038   2.426  12.643 -1.5360  1.3027  1.1421
10638TIP3   OH253404   1.227   5.042  13.313 -0.3880  0.2157 -0.1998
10638TIP3    H153405   1.238   5.135  13.291 -0.9941 -0.2541 -2.8249
10638TIP3    H253406   1.317   5.010  13.326 -0.0020  0.7256 -1.4468
10639TIP3   OH253407   4.232   1.403  15.341  0.7679  0.4295 -0.6785
10639TIP3    H153408   4.271   1.319  15.365 -0.0111 -0.1475 -1.3709
10639TIP3    H253409   4.255   1.414  15.249  1.6305  1.4253 -0.3621
10640TIP3   OH253410   0.044   0.727   2.788 -0.2216 -0.2159 -0.2967
10640TIP3    H153411   0.126   0.766   2.761  0.1065 -1.8653 -1.8747
10640TIP3    H253412   0.004   0.792   2.847  2.7559  0.0884  1.5798
10641TIP3   OH253413   5.569   6.432   3.245 -0.6692 -0.2267 -0.8799
10641TIP3    H153414   5.611   6.416   3.330 -0.1114 -0.5998 -1.2148
10641TIP3    H253415   5.523   6.515   3.256 -0.8989 -0.4487 -0.1013
10642TIP3   OH253416   0.858   2.200   0.617 -0.0354  0.0534  0.0896
10642TIP3    H153417   0.829   2.108   0.614 -0.5772  0.2043  0.6351
10642TIP3    H253418   0.945   2.196   0.656 -1.0881 -0.0085  2.5723
10643TIP3   OH253419   6.561   4.940  17.107  0.1438 -0.2659 -0.1823
10643TIP3    H153420   6.532   5.031  17.097  0.0135 -0.3096 -0.2029
10643TIP3    H253421   6.562   4.925  17.201 -0.6761 -0.5141 -0.2082
10644TIP3   OH253422   6.696   6.639   1.746 -0.3092 -0.0341  0.2538
10644TIP3    H153423   6.768   6.576   1.744 -1.0819 -0.9969  1.4112
10644TIP3    H253424   6.622   6.590   1.783 -2.5161 -0.0321 -3.6621
10645TIP3   OH253425   2.936   5.711   3.318  0.1928  0.1601 -0.2840
10645TIP3    H153426   2.845   5.701   3.289  0.1153  0.2045 -0.0583
10645TIP3    H253427   2.979   5.630   3.291 -0.0231 -0.0525  0.0174
10646TIP3   OH253428   5.185   6.435  11.440  0.8552 -0.4102  0.1309
10646TIP3    H153429   5.209   6.508  11.497  2.4737  1.0630 -2.2440
10646TIP3    H253430   5.105   6.464  11.397  0.2378 -1.0523  0.8207
10647TIP3   OH253431   0.739   2.308  15.460  0.3174  0.4509 -0.1661
10647TIP3    H153432   0.798   2.232  15.465 -0.4986 -0.6265 -3.8746
10647TIP3    H253433   0.787   2.372  15.407  0.1755  1.7548  1.2173
10648TIP3   OH253434   1.541   0.860   4.540  0.5277  0.3639  0.1480
10648TIP3    H153435   1.475   0.829   4.478  0.0447  0.1850  0.7407
10648TIP3    H253436   1.536   0.798   4.613  0.2278  1.2597  0.9150
10649TIP3   OH253437   1.731   3.821   6.579 -0.0480  0.7874 -0.0155
10649TIP3    H153438   1.726   3.882   6.653 -0.8023 -0.1001  0.6882
10649TIP3    H253439   1.673   3.749   6.604 -3.4554  2.1428 -3.0460
10650TIP3   OH253440   4.771   4.074  12.991  0.1829  0.0606  0.4044
10650TIP3    H153441   4.706   4.094  13.060 -0.6192  0.3387 -0.4091
10650TIP3    H253442   4.847   4.127  13.015 -0.8926  1.9731 -0.1205
10651TIP3   OH253443   0.990   4.233   3.719  0.0664 -0.1157  0.0869
10651TIP3    H153444   1.076   4.198   3.742 -0.4410  0.0337  2.5410
10651TIP3    H253445   0.928   4.170   3.756 -0.8737  0.3827 -0.6049
10652TIP3   OH253446   4.919   0.771   2.387 -0.3799  0.1998 -0.4228
10652TIP3    H153447   4.847   0.819   2.346 -0.8910 -0.3867 -0.2266
10652TIP3    H253448   4.977   0.840   2.421  0.6360  0.7546 -3.0205
10653TIP3   OH253449   2.110   3.494  12.754  0.0527  0.1007 -0.0333
10653TIP3    H153450   2.093   3.446  12.673 -1.7039 -0.3352  0.5559
10653TIP3    H253451   2.037   3.471  12.812  0.0994  2.0922  0.8972
10654TIP3   OH253452   0.052   3.955   3.105 -0.1020  0.1520  0.1175
10654TIP3    H153453   0.067   3.904   3.025  2.1761 -1.2952  1.3436
10654TIP3    H253454   0.052   3.889   3.175 -0.9904  1.4848  1.4151
10655TIP3   OH253455   3.723   4.534   1.694  0.3667  0.6121 -0.4234
10655TIP3    H153456   3.785   4.473   1.654 -0.0436  0.0183 -0.1656
10655TIP3    H253457   3.643   4.524   1.642 -0.6401 -1.1934  1.3333
10656TIP3   OH253458   2.756   0.316   4.341 -0.6966  0.2039  0.2972
10656TIP3    H153459   2.801   0.397   4.362 -0.4313  0.1406 -0.0210
10656TIP3    H253460   2.663   0.339   4.341 -0.6185  0.5263  0.1291
10657TIP3   OH253461   5.803   3.135   0.271  0.1783 -0.2511  0.3536
10657TIP3    H153462   5.845   3.119   0.187  1.1550  1.1626  0.5551
10657TIP3    H253463   5.714   3.162   0.248  0.1910 -0.6445 -0.1836
10658TIP3   OH253464   4.881   3.691   5.765  0.0983  0.6768  0.7761
10658TIP3    H153465   4.836   3.754   5.708  1.0110  1.3859  0.8052
10658TIP3    H253466   4.864   3.723   5.853  0.9996  1.2069  0.7703
10659TIP3   OH253467   3.495   1.541  15.758  0.5497 -0.3709  0.3741
10659TIP3    H153468   3.555   1.564  15.686  0.2787  0.2222  0.3327
10659TIP3    H253469   3.457   1.625  15.785 -1.2567 -0.8850 -0.4736
10660TIP3   OH253470   2.581   2.931  12.248  0.3868  0.8058  0.1781
10660TIP3    H153471   2.529   2.976  12.181  0.3052  1.1343  0.4588
10660TIP3    H253472   2.562   2.979  12.329 -0.4266 -0.3110  0.6695
10661TIP3   OH253473   0.910   1.270  15.312  0.1446 -0.4816  0.0377
10661TIP3    H153474   0.854   1.255  15.236  1.4022  2.6716 -1.7313
10661TIP3    H253475   0.994   1.230  15.290  0.6509  0.8178 -0.5481
10662TIP3   OH253476   0.001   0.082   2.877  0.0814  0.3428  0.3392
10662TIP3    H153477   0.041   0.109   2.794  0.4464 -0.8760  0.0955
10662TIP3    H253478  -0.068   0.146   2.893  0.3079  0.8562 -0.6703
10663TIP3   OH253479   3.671   2.537  16.684 -0.2308 -0.3808 -0.1436
10663TIP3    H153480   3.742   2.534  16.619 -0.8003  1.8980 -0.9934
10663TIP3    H253481   3.609   2.471  16.654  0.5712 -0.9756 -0.5578
10664TIP3   OH253482   2.753   0.186  11.801 -0.2682  0.3287 -0.0584
10664TIP3    H153483   2.730   0.196  11.708 -0.8011  0.0277  0.0433
10664TIP3    H253484   2.718   0.264  11.843 -2.6556 -0.8896  0.3882
10665TIP3   OH253485   0.149   0.903  13.446 -0.1647 -0.1801  0.2366
10665TIP3    H153486   0.244   0.917  13.454 -0.0493  0.1264 -1.3646
10665TIP3    H253487   0.118   0.980  13.397 -0.9003 -1.2840 -1.1008
10666TIP3   OH253488   4.855   4.171   1.115  0.1175 -0.1573  0.0390
10666TIP3    H153489   4.812   4.254   1.095  2.3628  0.7619 -1.3545
10666TIP3    H253490   4.811   4.107   1.059 -0.2250  0.5181 -0.4766
10667TIP3   OH253491   6.000   4.847   1.744 -0.3137 -0.3010 -0.2834
10667TIP3    H153492   6.000   4.777   1.679 -1.3847  0.9241 -1.6884
10667TIP3    H253493   5.908   4.867   1.758 -0.0727 -0.0909  1.1380
10668TIP3   OH253494   4.144   1.138  15.571  0.0205  0.4927  0.4593
10668TIP3    H153495   4.229   1.175  15.595  0.4783 -0.1374 -0.1625
10668TIP3    H253496   4.138   1.056  15.620 -0.3412  0.6526  0.6905
10669TIP3   OH253497   0.393   3.618  13.793  0.5444 -0.5204  0.1089
10669TIP3    H153498   0.345   3.570  13.726  0.0407  0.6074 -0.3777
10669TIP3    H253499   0.462   3.558  13.822  1.1694 -0.8395 -1.8701
10670TIP3   OH253500   2.247   1.021  12.777  0.5484 -0.4532 -0.5886
10670TIP3    H153501   2.178   1.004  12.840 -0.3071 -0.7997 -1.5841
10670TIP3    H253502   2.283   1.106  12.802 -0.2206 -0.2869 -0.0366
10671TIP3   OH253503   5.739   5.512  12.400 -0.5407 -0.1012 -0.5676
10671TIP3    H153504   5.711   5.596  12.435 -0.8498  0.0174 -1.0946
10671TIP3    H253505   5.696   5.505  12.314  2.1727  0.7660 -2.1098
10672TIP3   OH253506   0.682   3.228  11.229 -0.0501 -0.1301 -0.2074
10672TIP3    H153507   0.737   3.284  11.174  1.4911 -0.6024  0.7832
10672TIP3    H253508   0.605   3.209  11.175 -0.5483  2.7388 -0.6483
10673TIP3   OH253509   6.177   2.904  11.693  0.3761 -0.3217  0.3807
10673TIP3    H153510   6.185   2.815  11.659 -0.1737 -0.5969  0.9355
10673TIP3    H253511   6.125   2.894  11.773 -0.4914  0.6070 -0.0416
10674TIP3   OH253512   2.010   5.116  17.084  0.2855  0.0588  0.1713
10674TIP3    H153513   2.030   5.189  17.025  1.6158 -1.1030 -0.8951
10674TIP3    H253514   1.936   5.071  17.042  1.9026 -1.3996 -1.3290
10675TIP3   OH253515   6.126   3.182   4.434 -0.1430 -0.0454 -0.1766
10675TIP3    H153516   6.087   3.173   4.520 -0.6983  0.8884 -0.3143
10675TIP3    H253517   6.109   3.099   4.390  0.4346 -0.6506  0.7169
10676TIP3   OH253518   3.900   0.713  12.269 -0.2133 -0.4622 -0.7175
10676TIP3    H153519   3.972   0.758  12.225 -1.0569 -1.3387 -3.1797
10676TIP3    H253520   3.884   0.764  12.348  0.7826  1.8119 -1.8968
10677TIP3   OH253521   5.527   2.901   1.116 -0.0741 -0.0186 -0.1168
10677TIP3    H153522   5.534   2.995   1.098 -1.3524 -0.0589 -0.9416
10677TIP3    H253523   5.608   2.880   1.163  0.4739  1.3839 -0.3690
10678TIP3   OH253524   1.664   1.866   1.645 -0.3108 -0.3066 -0.8548
10678TIP3    H153525   1.584   1.898   1.603  0.0294  1.8368 -0.0062
10678TIP3    H253526   1.633   1.804   1.711 -1.4826  1.5460  0.4465
10679TIP3   OH253527   2.266   2.222  14.751  0.3352 -0.2730 -0.3280
10679TIP3    H153528   2.198   2.222  14.684 -0.3552 -2.4352  0.3019
10679TIP3    H253529   2.236   2.285  14.816  0.1955  0.6165 -1.2279
10680TIP3   OH253530   0.337   5.276   4.288  0.0121  0.2266  0.2141
10680TIP3    H153531   0.431   5.292   4.277  0.5678 -1.6608  1.7365
10680TIP3    H253532   0.301   5.291   4.201  2.1351 -1.3520 -1.0656
10681TIP3   OH253533   5.843   3.961  10.859 -0.2356 -0.3043 -0.4794
10681TIP3    H153534   5.854   3.880  10.810  1.5242 -0.1442 -0.3884
10681TIP3    H253535   5.784   3.938  10.931 -1.6251 -0.9066 -1.7382
10682TIP3   OH253536   4.858   1.282  11.826 -0.2760  0.0404 -0.2262
10682TIP3    H153537   4.834   1.190  11.838  0.2516 -0.1221 -0.4162
10682TIP3    H253538   4.891   1.309  11.911 -1.0381  0.2446  0.0164
10683TIP3   OH253539   2.047   1.644  15.078 -0.0681  0.0259  0.8819
10683TIP3    H153540   2.073   1.649  14.986  0.3839 -0.9644  0.9471
10683TIP3    H253541   2.101   1.709  15.122  0.0089  0.2130  0.5152
10684TIP3   OH253542   3.965   1.811  16.105  1.0045 -0.3747 -0.4556
10684TIP3    H153543   3.961   1.757  16.184 -0.1558 -0.0214 -0.2574
10684TIP3    H253544   4.059   1.817  16.085  1.1280 -4.0329 -1.5834
10685TIP3   OH253545   5.611   1.851  11.956 -0.1676  0.2535 -0.1582
10685TIP3    H153546   5.605   1.936  11.913  0.7150 -0.0596 -0.9279
10685TIP3    H253547   5.525   1.810  11.941 -1.9971  2.3612  3.2821
10686TIP3   OH253548   5.355   4.423   2.163  0.0763  0.2479  0.0899
10686TIP3    H153549   5.448   4.440   2.148  0.1737 -1.3791 -1.4669
10686TIP3    H253550   5.312   4.449   2.082 -0.5973 -0.6065  0.1525
10687TIP3   OH253551   3.213   6.681  13.517 -0.1197  0.4490 -0.4337
10687TIP3    H153552   3.287   6.742  13.512 -0.5489  0.8962 -1.6146
10687TIP3    H253553   3.140   6.733  13.548 -0.2875  0.3535 -0.6595
10688TIP3   OH253554   0.553   6.542   4.177 -0.5443  0.5810  0.6615
10688TIP3    H153555   0.620   6.485   4.139 -0.0719  1.2215  0.5139
10688TIP3    H253556   0.482   6.483   4.201  0.1706 -0.1379  1.0367
10689TIP3   OH253557   1.171   2.120   5.915  0.2274 -0.5761 -0.1414
10689TIP3    H153558   1.173   2.204   5.870  0.9333 -0.5385 -0.0424
10689TIP3    H253559   1.253   2.115   5.963 -0.2141 -0.9191  0.6037
10690TIP3   OH253560   5.746   3.351  11.602 -0.1317  0.0181  0.1682
10690TIP3    H153561   5.829   3.338  11.649 -0.7299  2.9733  2.4054
10690TIP3    H253562   5.768   3.413  11.532 -0.1344 -0.6746 -0.4569
10691TIP3   OH253563   1.975   4.182  12.052  0.5304 -0.5983  0.2587
10691TIP3    H153564   2.032   4.105  12.048  0.8861 -0.2801 -1.4429
10691TIP3    H253565   1.897   4.157  12.003  1.0393  0.3940 -1.1448
10692TIP3   OH253566   0.107   6.153  14.265 -0.0260  0.6703 -0.1222
10692TIP3    H153567   0.022   6.166  14.223 -0.4252 -0.5205  0.2816
10692TIP3    H253568   0.122   6.059  14.260  1.7771  0.9687 -1.1496
10693TIP3   OH253569   3.780   3.858   1.312 -0.2043 -0.3274 -0.3598
10693TIP3    H153570   3.809   3.768   1.296 -2.5875 -1.8824  2.9172
10693TIP3    H253571   3.847   3.894   1.370 -0.1439 -0.6597 -0.2161
10694TIP3   OH253572   6.097   1.721   2.643 -0.4805 -0.0440 -0.6346
10694TIP3    H153573   6.114   1.671   2.722 -1.7633  1.2396  0.5141
10694TIP3    H253574   6.092   1.656   2.573  0.7100 -1.1932  0.3177
10695TIP3   OH253575   4.538   4.380   1.469  0.5779 -0.4881  0.3131
10695TIP3    H153576   4.607   4.325   1.434  0.0875 -1.2034  0.4509
10695TIP3    H253577   4.466   4.371   1.406  0.2018 -0.6613  0.7664
10696TIP3   OH253578   5.852   1.608   0.692  0.2110 -0.5300 -0.2125
10696TIP3    H153579   5.876   1.521   0.725  1.6114  0.2872  1.0780
10696TIP3    H253580   5.866   1.603   0.598 -0.0932 -1.7999 -0.2141
10697TIP3   OH253581   3.258   1.310  15.114  0.0091  0.4248 -0.5354
10697TIP3    H153582   3.296   1.222  15.121  2.6781  1.3966 -1.4551
10697TIP3    H253583   3.262   1.330  15.020  2.2761  2.6112 -0.0537
10698TIP3   OH253584   1.865   0.327   2.919 -0.0472 -0.4035  0.4956
10698TIP3    H153585   1.831   0.290   3.000  0.3974  1.4785  1.6104
10698TIP3    H253586   1.790   0.372   2.880 -0.3967 -1.7516 -0.4631
10699TIP3   OH253587   6.765   4.213  17.101  0.5188  0.2162 -0.1769
10699TIP3    H153588   6.712   4.284  17.136  0.9008  0.0201  0.8410
10699TIP3    H253589   6.849   4.253  17.081  1.8403 -0.4391  3.3095
10700TIP3   OH253590   5.891   6.810  12.339 -0.5162  0.0183  0.1600
10700TIP3    H153591   5.931   6.888  12.377  0.8274 -0.2978 -0.5392
10700TIP3    H253592   5.914   6.739  12.399 -1.2413  0.0499  0.4876
10701TIP3   OH253593   4.975   3.665   3.826  0.2131  0.2219  0.2082
10701TIP3    H153594   4.945   3.622   3.745 -0.5076  2.3725 -0.7244
10701TIP3    H253595   4.910   3.733   3.843  1.2468  0.8887  1.6951
10702TIP3   OH253596   1.298   6.485   2.093 -0.0140 -0.0704  0.0722
10702TIP3    H153597   1.238   6.543   2.047 -1.0205 -1.8847 -0.9891
10702TIP3    H253598   1.254   6.466   2.176 -0.4771 -0.6745 -0.3128
10703TIP3   OH253599   1.575   5.753   0.395 -0.2675  1.2099 -0.6267
10703TIP3    H153600   1.648   5.709   0.351 -0.7094 -1.8854  1.3865
10703TIP3    H253601   1.497   5.712   0.357 -0.6852 -0.2966  1.6208
10704TIP3   OH253602   2.809   1.935  11.920  0.4513  0.2521 -0.3829
10704TIP3    H153603   2.872   1.885  11.868 -0.4927 -0.1744 -1.1543
10704TIP3    H253604   2.821   1.903  12.010 -0.6283 -1.9434 -0.9573
10705TIP3   OH253605   5.892   3.476  11.864 -0.1943  0.1614  0.0792
10705TIP3    H153606   5.839   3.535  11.810  1.0947  0.7620 -0.5906
10705TIP3    H253607   5.874   3.503  11.954  0.2450  1.4833 -0.2089
10706TIP3   OH253608   1.913   2.277  12.260  0.0380  0.4085 -0.3879
10706TIP3    H153609   1.821   2.258  12.274  0.3526 -0.7905  0.2286
10706TIP3    H253610   1.934   2.237  12.175 -0.1760  1.3691 -0.9108
10707TIP3   OH253611   5.197   5.425  14.689  0.1634  0.3999 -0.0184
10707TIP3    H153612   5.142   5.466  14.622  0.7365  1.2947  0.0512
10707TIP3    H253613   5.254   5.495  14.720  0.8993 -0.3564  0.3821
10708TIP3   OH253614   2.526   2.666   4.585  0.6049 -0.3603 -0.2282
10708TIP3    H153615   2.580   2.742   4.607  0.6303  0.4981 -2.9056
10708TIP3    H253616   2.437   2.694   4.605  0.7173 -0.0644 -0.1265
10709TIP3   OH253617   1.415   3.190  16.016  0.1502  0.4249 -0.3907
10709TIP3    H153618   1.362   3.156  16.088  2.1837 -0.9060  0.5555
10709TIP3    H253619   1.472   3.117  15.992  1.9992  1.9803 -0.9104
10710TIP3   OH253620   6.236   1.671  15.590 -0.1970 -0.1219 -0.1727
10710TIP3    H153621   6.164   1.733  15.580  0.8742  0.8814 -2.5798
10710TIP3    H253622   6.285   1.702  15.665 -0.8435  0.7287 -0.0960
10711TIP3   OH253623   2.726   0.859   3.138  0.1405 -0.4943  0.7335
10711TIP3    H153624   2.652   0.916   3.114  0.7250 -0.4009 -0.9626
10711TIP3    H253625   2.725   0.790   3.073  1.7830 -0.2818  0.4563
10712TIP3   OH253626   4.166   2.485   1.790 -0.2277  0.0010 -0.1146
10712TIP3    H153627   4.230   2.530   1.734  1.5606 -0.7879  1.2111
10712TIP3    H253628   4.124   2.422   1.731  2.4023 -1.6116 -0.4392
10713TIP3   OH253629   3.380   3.577   2.390  0.1256 -0.1048 -0.0490
10713TIP3    H153630   3.427   3.583   2.306  1.5103  0.9421  0.7617
10713TIP3    H253631   3.288   3.595   2.367  0.6772  1.5875 -1.1761
10714TIP3   OH253632   6.184   6.449  12.503 -0.3209  0.2490  0.2392
10714TIP3    H153633   6.211   6.449  12.595 -0.7970  1.2840  0.3993
10714TIP3    H253634   6.238   6.382  12.462  1.4245  1.2175  0.8481
10715TIP3   OH253635   5.770   6.592   0.197  0.3027  0.3657  0.1550
10715TIP3    H153636   5.685   6.557   0.223  0.8688 -1.0237  0.2444
10715TIP3    H253637   5.749   6.665   0.138 -1.0149 -1.7627 -2.2232
10716TIP3   OH253638   0.330   6.811   5.011 -0.6822  0.2824  0.1654
10716TIP3    H153639   0.401   6.758   4.976  0.7990  0.8947  2.0622
10716TIP3    H253640   0.294   6.857   4.935  0.0673 -1.0145 -1.0215
10717TIP3   OH253641   2.380   2.198  16.549 -0.1282 -0.0561 -0.5476
10717TIP3    H153642   2.396   2.104  16.541 -0.4184 -0.0773 -0.9170
10717TIP3    H253643   2.374   2.214  16.643 -0.3182 -0.4476 -0.4942
10718TIP3   OH253644   0.518   4.742  13.883 -0.3781  0.4473 -0.0767
10718TIP3    H153645   0.560   4.787  13.810  0.8757  0.3424  0.5642
10718TIP3    H253646   0.441   4.701  13.843  1.0227 -0.8030 -1.6634
10719TIP3   OH253647   6.475   4.746  13.586  0.0369  0.2300 -0.1665
10719TIP3    H153648   6.437   4.701  13.510  0.3983  1.0730 -0.8598
10719TIP3    H253649   6.402   4.760  13.645 -0.0923 -1.2589  0.0803
10720TIP3   OH253650   2.070   5.971   4.925  0.5082 -0.1501 -0.5471
10720TIP3    H153651   2.126   5.937   4.995  2.1939  0.8660 -1.3205
10720TIP3    H253652   1.995   6.010   4.970  1.2766 -0.0343  0.6680
10721TIP3   OH253653   5.653   4.765   3.561 -0.6758  0.1967 -0.2543
10721TIP3    H153654   5.636   4.841   3.505 -1.4070 -0.1067 -0.4668
10721TIP3    H253655   5.677   4.801   3.646 -1.5319  0.6757 -0.2048
10722TIP3   OH253656   2.648   5.827  15.540 -0.1337  0.1519 -0.2974
10722TIP3    H153657   2.666   5.751  15.485 -0.4392 -0.2566  0.1552
10722TIP3    H253658   2.556   5.845  15.526  0.2471  1.3368 -1.4910
10723TIP3   OH253659   4.936   1.103  16.846  0.0986  0.0345 -0.2548
10723TIP3    H153660   4.875   1.168  16.879  0.8379  0.8187 -0.4026
10723TIP3    H253661   4.952   1.045  16.921  0.3122  0.6954  0.2223
10724TIP3   OH253662   5.449   2.267   2.644 -0.3167 -0.9103 -0.5350
10724TIP3    H153663   5.441   2.362   2.652  2.0652 -0.7731  1.5900
10724TIP3    H253664   5.363   2.238   2.613 -1.3745  1.8354 -0.4738
10725TIP3   OH253665   2.231   4.556   5.369  0.5854  0.4616  0.5244
10725TIP3    H153666   2.144   4.550   5.409  1.0156 -0.6894  1.3150
10725TIP3    H253667   2.262   4.643   5.393 -0.8572  1.4402 -0.8807
10726TIP3   OH253668   6.272   6.346  15.160  0.0896  0.3500 -0.1061
10726TIP3    H153669   6.235   6.258  15.146  0.2425  0.1620  0.6369
10726TIP3    H253670   6.247   6.369  15.249  1.3789  0.4015  0.2643
10727TIP3   OH253671   4.470   2.231  11.790 -0.0943  0.1004  0.2694
10727TIP3    H153672   4.482   2.258  11.699  0.2210 -1.3941 -0.1661
10727TIP3    H253673   4.376   2.218  11.799  0.0290 -1.7562 -0.5106
10728TIP3   OH253674   3.238   5.727   6.395  0.3030 -0.3818  0.5025
10728TIP3    H153675   3.217   5.800   6.454  0.1010 -2.3652  3.0546
10728TIP3    H253676   3.170   5.731   6.327  1.2870  2.7421 -0.4727
10729TIP3   OH253677   4.419   2.910  10.942  0.3223 -0.4860  0.1817
10729TIP3    H153678   4.333   2.870  10.929  0.3017 -0.8353  1.2988
10729TIP3    H253679   4.430   2.968  10.867 -0.3262 -1.4097 -0.6506
10730TIP3   OH253680   1.581   3.236   2.885 -0.6244  0.3260 -0.2426
10730TIP3    H153681   1.521   3.289   2.833  0.4691  1.5859 -0.2637
10730TIP3    H253682   1.602   3.290   2.960  1.3704  0.4054 -0.8065
10731TIP3   OH253683   2.532   0.413   3.246  0.1343 -0.1184  0.5303
10731TIP3    H153684   2.459   0.440   3.191 -0.9075  0.1829  1.9887
10731TIP3    H253685   2.590   0.363   3.188 -1.0503 -0.0649 -0.7310
10732TIP3   OH253686   3.124   1.897  13.570 -0.0269  0.4076  0.3945
10732TIP3    H153687   3.128   1.960  13.497 -0.8901  0.8719  0.7312
10732TIP3    H253688   3.141   1.951  13.647  1.1255 -0.1271  0.5232
10733TIP3   OH253689   1.248   0.567   6.047 -0.1912  0.0153 -0.5096
10733TIP3    H153690   1.238   0.640   6.109 -1.2722 -1.1492  0.7479
10733TIP3    H253691   1.158   0.539   6.028  0.1953 -0.7065 -1.3478
10734TIP3   OH253692   5.795   3.030   1.739 -0.0018  0.2470  0.1827
10734TIP3    H153693   5.793   2.982   1.821  3.0419  0.3943  0.4707
10734TIP3    H253694   5.841   3.111   1.760 -0.3910  0.9027 -1.3834
10735TIP3   OH253695   4.188   0.983   2.146 -0.2570 -0.3012  0.0853
10735TIP3    H153696   4.217   0.935   2.223  0.9864  0.7010  0.2722
10735TIP3    H253697   4.131   1.052   2.181  0.2961  0.1448  0.1174
10736TIP3   OH253698   4.259   4.991   2.416 -0.2459 -0.5112  0.0773
10736TIP3    H153699   4.168   4.998   2.446  0.1969 -1.4682  1.7960
10736TIP3    H253700   4.298   4.926   2.474  1.2861 -0.8820 -1.2927
10737TIP3   OH253701   5.160   4.443  16.812  0.2774  0.5256  0.0024
10737TIP3    H153702   5.116   4.520  16.849 -0.2325 -0.0344  0.5847
10737TIP3    H253703   5.121   4.369  16.858 -0.2213 -0.1898 -1.4907
10738TIP3   OH253704   0.547   1.062   5.039 -0.4835 -0.1138  0.3047
10738TIP3    H153705   0.570   1.139   5.090 -1.3590  0.0630  0.4416
10738TIP3    H253706   0.598   1.070   4.958  0.5499 -0.1589  0.9411
10739TIP3   OH253707   3.617   0.455   2.907 -0.4188 -1.0206  0.1114
10739TIP3    H153708   3.678   0.389   2.874  0.7150 -1.0466  2.0742
10739TIP3    H253709   3.612   0.437   3.001 -2.2306  0.0053  0.2488
10740TIP3   OH253710   0.406   4.519   2.993 -0.4289  0.1253 -0.1552
10740TIP3    H153711   0.364   4.594   2.951  2.7442  1.9899 -0.3618
10740TIP3    H253712   0.343   4.490   3.059 -2.0957  2.5151 -0.5601
10741TIP3   OH253713   4.042   1.830   2.391  0.0634 -0.0870  0.1063
10741TIP3    H153714   4.005   1.792   2.311 -1.3124  0.0481  0.6482
10741TIP3    H253715   3.988   1.795   2.462  0.8910  0.2515  0.9334
10742TIP3   OH253716   0.036   0.554   2.422  0.1544 -0.8161  0.3904
10742TIP3    H153717   0.110   0.502   2.388  0.9998  1.1487 -0.9804
10742TIP3    H253718   0.001   0.599   2.345 -0.0725  1.1830  1.5937
10743TIP3   OH253719   3.684   0.695  16.149  0.1674  0.0067  0.8341
10743TIP3    H153720   3.638   0.642  16.084 -0.2105  0.3717  0.7978
10743TIP3    H253721   3.623   0.766  16.169  0.2585 -0.1391  1.6365
10744TIP3   OH253722   5.421   0.156   3.103 -0.0656  0.6045 -0.3252
10744TIP3    H153723   5.421   0.061   3.095  1.8714  0.3478  1.8776
10744TIP3    H253724   5.513   0.181   3.092  0.1571  1.7302  3.0165
10745TIP3   OH253725   6.174   0.206  16.469  0.3449 -0.0929 -0.0328
10745TIP3    H153726   6.202   0.188  16.559  1.2613  0.9515 -0.0850
10745TIP3    H253727   6.079   0.208  16.473  0.3106 -1.6302  0.5882
10746TIP3   OH253728   0.257   3.453   4.222  0.5078 -0.1426 -0.2971
10746TIP3    H153729   0.307   3.421   4.297 -1.2783  0.9876  1.4971
10746TIP3    H253730   0.284   3.545   4.213  0.6788 -0.2583 -1.0303
10747TIP3   OH253731   0.870   6.139  12.830  0.0329 -0.0487  0.3641
10747TIP3    H153732   0.900   6.094  12.909 -2.3414 -1.8933  0.3298
10747TIP3    H253733   0.940   6.126  12.766  1.1298 -0.2338  1.5883
10748TIP3   OH253734   5.494   2.820   4.904 -0.0795  0.2776  0.3508
10748TIP3    H153735   5.483   2.908   4.869 -1.7882 -0.6916 -1.7861
10748TIP3    H253736   5.589   2.806   4.905  0.1403  1.4679 -1.0598
10749TIP3   OH253737   5.630   0.533  11.313 -0.4282 -0.4024 -0.4152
10749TIP3    H153738   5.726   0.537  11.319 -0.4177  3.4763 -0.8590
10749TIP3    H253739   5.612   0.528  11.219 -0.7163 -1.1427 -0.3325
10750TIP3   OH253740   0.583   4.129  12.225  0.1922  0.2098  0.1772
10750TIP3    H153741   0.604   4.213  12.185 -0.8630  0.9200  1.0459
10750TIP3    H253742   0.565   4.071  12.151 -0.5040  1.1507 -0.4214
10751TIP3   OH253743   2.595   1.714   0.364  0.1209  0.3616  0.3518
10751TIP3    H153744   2.683   1.742   0.387 -0.0423 -0.0580  1.5388
10751TIP3    H253745   2.600   1.618   0.360  0.2852  0.3972 -2.0598
10752TIP3   OH253746   6.562   5.845  15.170 -0.3611  0.5730 -0.5769
10752TIP3    H153747   6.483   5.844  15.116 -0.2892  1.2230 -0.7026
10752TIP3    H253748   6.564   5.933  15.208 -0.2545  0.2184  0.2609
10753TIP3   OH253749   2.650   1.614  11.519  0.4987  0.3351  0.1193
10753TIP3    H153750   2.745   1.601  11.521  0.2441 -2.3789 -0.4980
10753TIP3    H253751   2.624   1.618  11.611  1.0987 -0.1797  0.3208
10754TIP3   OH253752   5.986   0.379  13.439  0.1672 -0.4371  0.5244
10754TIP3    H153753   6.030   0.301  13.406  0.0521  0.1639 -1.1298
10754TIP3    H253754   5.982   0.365  13.534  1.4084 -1.7768  0.4266
10755TIP3   OH253755   0.065   3.306  12.573  0.0416  0.1874  0.1816
10755TIP3    H153756   0.093   3.253  12.498  0.0457 -1.5951  1.3872
10755TIP3    H253757   0.110   3.389  12.562  1.4914 -0.6871 -0.8265
10756TIP3   OH253758   2.758   4.699   6.270  0.0287  0.2535  0.2326
10756TIP3    H153759   2.770   4.753   6.348 -2.0338  1.4825 -0.2326
10756TIP3    H253760   2.701   4.627   6.299 -0.0437  0.2410  0.0618
10757TIP3   OH253761   4.442   6.128   2.190 -0.0333 -0.3105  0.3510
10757TIP3    H153762   4.366   6.077   2.161 -0.1204  0.1522 -0.2642
10757TIP3    H253763   4.506   6.119   2.119 -0.0072  0.3288  0.2893
10758TIP3   OH253764   4.979   4.069   0.064  0.1573  0.1193 -0.3483
10758TIP3    H153765   5.057   4.124   0.053  0.5846 -0.7507 -2.0291
10758TIP3    H253766   4.916   4.125   0.109  1.2431  1.3388 -0.2881
10759TIP3   OH253767   3.013   2.446  12.305  0.2933  0.1569 -0.3688
10759TIP3    H153768   3.006   2.352  12.320 -1.3585  0.3660  0.3881
10759TIP3    H253769   2.934   2.483  12.346  0.8847  1.8628 -0.6895
10760TIP3   OH253770   6.481   6.282   2.676  0.8667  0.0439  0.3734
10760TIP3    H153771   6.459   6.363   2.722  2.2767  0.5120  0.2892
10760TIP3    H253772   6.450   6.212   2.734 -0.4835  0.6237  0.3801
10761TIP3   OH253773   2.900   2.091  13.195  0.0969 -0.1095 -0.5329
10761TIP3    H153774   2.886   2.173  13.243 -0.5142 -1.3824  1.6278
10761TIP3    H253775   2.822   2.039  13.214  1.4172 -1.9948 -0.0299
10762TIP3   OH253776   5.884   3.777  12.329 -0.0370 -0.7112 -0.2871
10762TIP3    H153777   5.966   3.821  12.353 -0.7899  0.5940  0.0115
10762TIP3    H253778   5.873   3.796  12.236 -0.2158 -0.4816 -0.2223
10763TIP3   OH253779   5.788   6.004   3.216 -0.6054  0.0263  0.0658
10763TIP3    H153780   5.868   6.038   3.175 -0.6264 -1.3931 -1.2751
10763TIP3    H253781   5.816   5.976   3.303  0.4873 -0.8485 -0.5386
10764TIP3   OH253782   5.003   2.943   0.544 -0.4870  0.1094 -0.4010
10764TIP3    H153783   5.083   2.928   0.494  0.9532  0.2132  1.7237
10764TIP3    H253784   4.980   2.856   0.577 -1.1186  0.1235 -0.7932
10765TIP3   OH253785   4.459   0.437  13.222 -0.3982 -0.1636 -0.5237
10765TIP3    H153786   4.544   0.433  13.267  0.0277 -0.1191 -1.2983
10765TIP3    H253787   4.480   0.418  13.131 -1.1444  0.4662 -0.8347
10766TIP3   OH253788   1.238   5.565  14.557  0.1975  0.0657  0.0654
10766TIP3    H153789   1.190   5.515  14.491 -1.3079  0.1800  1.0083
10766TIP3    H253790   1.313   5.601  14.511  0.5426 -1.8706 -0.9839
10767TIP3   OH253791   4.411   1.621   1.046  0.0311 -0.0112  0.0394
10767TIP3    H153792   4.390   1.714   1.047 -0.2814 -0.0572  2.0721
10767TIP3    H253793   4.458   1.606   1.128 -0.5826 -1.7846  0.1169
10768TIP3   OH253794   2.611   2.348  13.093 -0.1648 -0.1754 -0.4275
10768TIP3    H153795   2.702   2.364  13.067  0.8494 -3.8424  0.1907
10768TIP3    H253796   2.558   2.398  13.031  2.2625 -0.3776 -2.8145
10769TIP3   OH253797   0.350   0.982   6.043  0.1724 -0.0900  0.0520
10769TIP3    H153798   0.349   1.078   6.043  0.8686 -0.0760 -0.0374
10769TIP3    H253799   0.387   0.959   5.958  0.9571 -0.4140  0.4692
10770TIP3   OH253800   5.879   5.424  12.706 -0.1791 -0.3825  0.0493
10770TIP3    H153801   5.890   5.498  12.646  0.4437 -1.0774 -0.7227
10770TIP3    H253802   5.950   5.363  12.682 -0.1326 -0.8360  1.2612
10771TIP3   OH253803   1.806   1.611   4.449  0.0812 -0.0933 -0.2285
10771TIP3    H153804   1.891   1.654   4.458  0.1534 -0.2160 -0.3193
10771TIP3    H253805   1.790   1.571   4.534  1.0656 -1.8071 -0.7952
10772TIP3   OH253806   6.766   4.179   4.665 -0.4092 -0.3060 -0.0780
10772TIP3    H153807   6.705   4.197   4.593 -1.9514 -1.3930  0.9010
10772TIP3    H253808   6.714   4.193   4.744  0.9227 -0.2714  0.8193
10773TIP3   OH253809   1.922   1.598  14.057 -0.5710  0.1778 -0.2612
10773TIP3    H153810   1.931   1.503  14.065 -0.4844  0.1590 -0.5822
10773TIP3    H253811   1.835   1.616  14.093  0.9750  0.4966  3.9610
10774TIP3   OH253812   1.512   0.795  14.110  0.3439  0.0522 -0.7617
10774TIP3    H153813   1.432   0.745  14.128  0.2517 -0.4583 -2.4237
10774TIP3    H253814   1.549   0.813  14.197 -0.4809 -1.4855 -0.0433
10775TIP3   OH253815   4.066   5.783  14.419  0.6974 -0.2204 -0.0657
10775TIP3    H153816   4.095   5.714  14.360  1.0714  0.5255 -0.7757
10775TIP3    H253817   4.146   5.831  14.440  0.1728  1.2486 -1.2375
10776TIP3   OH253818   3.011   5.544  15.004  0.0755  0.0211 -1.0043
10776TIP3    H153819   2.919   5.564  14.987  0.5121  3.7828  0.1538
10776TIP3    H253820   3.013   5.514  15.095  0.0871  0.8106 -0.7429
10777TIP3   OH253821   6.221   5.123   4.625  0.1102  0.0230 -0.1305
10777TIP3    H153822   6.297   5.175   4.650 -0.4436  0.0524  1.5849
10777TIP3    H253823   6.224   5.046   4.681 -0.6243 -0.4342 -0.6977
10778TIP3   OH253824   1.448   3.733   1.122  0.8539  0.0795  0.1875
10778TIP3    H153825   1.478   3.691   1.041 -1.7026 -1.2916 -0.1409
10778TIP3    H253826   1.488   3.682   1.192 -0.9451 -2.0372 -0.2344
10779TIP3   OH253827   2.906   4.278  16.435  0.1631  0.1594 -0.2522
10779TIP3    H153828   2.937   4.343  16.373  1.2724 -0.7600 -0.6967
10779TIP3    H253829   2.965   4.285  16.510 -0.5462  0.5722  0.2828
10780TIP3   OH253830   1.231   6.544   3.586 -0.2471 -0.2047 -0.2444
10780TIP3    H153831   1.278   6.527   3.505 -0.3529  0.8707 -0.5453
10780TIP3    H253832   1.291   6.598   3.638 -0.6884  0.2230 -0.1676
10781TIP3   OH253833   4.762   0.423  16.768 -0.4962 -0.4229  0.2954
10781TIP3    H153834   4.830   0.367  16.806  0.7512 -0.6429 -2.0971
10781TIP3    H253835   4.740   0.484  16.839  2.0711 -0.4499  1.2374
10782TIP3   OH253836   1.824   0.166   1.438  0.3826  0.0114  0.5720
10782TIP3    H153837   1.868   0.225   1.500  0.0956 -0.1013  0.8827
10782TIP3    H253838   1.891   0.147   1.372  0.2816  1.2170  0.0918
10783TIP3   OH253839   0.638   4.340   3.276 -0.8705 -0.1910 -0.2392
10783TIP3    H153840   0.578   4.413   3.266 -0.0549  0.5728  0.2318
10783TIP3    H253841   0.661   4.340   3.369 -0.3902 -0.6633 -0.3481
10784TIP3   OH253842   2.437   5.300   3.408 -0.5099 -0.0313  0.9762
10784TIP3    H153843   2.481   5.215   3.402 -0.5070  0.0606 -0.6044
10784TIP3    H253844   2.344   5.278   3.416 -0.9761 -0.2982 -3.0094
10785TIP3   OH253845   6.815   3.411  16.227  0.0988  0.4310 -0.6530
10785TIP3    H153846   6.753   3.402  16.154 -0.2230  0.9622 -0.4459
10785TIP3    H253847   6.901   3.401  16.187 -0.1234 -0.6099 -0.9033
10786TIP3   OH253848   5.998   5.100  17.291 -0.0795 -0.5440 -0.4640
10786TIP3    H153849   6.057   5.159  17.243  0.7390 -0.7593  0.2476
10786TIP3    H253850   5.932   5.075  17.227 -0.5290  1.2432 -0.7538
10787TIP3   OH253851   4.104   4.728  15.982 -0.0174 -0.8765 -0.4131
10787TIP3    H153852   4.092   4.636  16.005 -0.7188 -1.2101 -2.0024
10787TIP3    H253853   4.199   4.741  15.984  0.1804 -2.0043 -1.4881
10788TIP3   OH253854   3.847   3.839   3.581  0.1258  0.0384 -0.3415
10788TIP3    H153855   3.907   3.765   3.582 -1.0250 -0.9880  2.1565
10788TIP3    H253856   3.765   3.804   3.546 -0.6390 -0.1345  1.5162
10789TIP3   OH253857   5.117   5.573   1.553 -0.5618 -0.1191  0.9001
10789TIP3    H153858   5.129   5.489   1.597  0.1362 -0.1488  0.6500
10789TIP3    H253859   5.185   5.576   1.487 -0.2261  0.8810  1.2718
10790TIP3   OH253860   4.761   2.545   2.945 -0.0902 -0.0724  0.3193
10790TIP3    H153861   4.783   2.452   2.947  2.2676  0.4323  1.2075
10790TIP3    H253862   4.716   2.561   3.028  0.2159 -0.2500  0.5171
10791TIP3   OH253863   3.486   0.411   2.107 -0.6599  0.0401  0.4725
10791TIP3    H153864   3.578   0.413   2.081 -0.4586  0.0104  1.1602
10791TIP3    H253865   3.438   0.396   2.026 -0.1438  1.2226 -0.0778
10792TIP3   OH253866   2.333   4.661  16.191 -0.1619 -0.6351 -0.0463
10792TIP3    H153867   2.393   4.652  16.265 -1.2512 -1.6276  0.7615
10792TIP3    H253868   2.261   4.714  16.225 -0.5123 -0.8197 -0.4963
10793TIP3   OH253869   5.311   4.314   5.459  0.0955  0.6476  0.1186
10793TIP3    H153870   5.237   4.361   5.421 -0.8046  1.2879  2.5220
10793TIP3    H253871   5.318   4.347   5.548  2.0959 -0.7954  0.5681
10794TIP3   OH253872   4.762   0.522  12.411 -0.0274  0.2086  0.0848
10794TIP3    H153873   4.760   0.452  12.476  0.3919  0.1861  0.0764
10794TIP3    H253874   4.797   0.598  12.458 -2.9610  1.2158  0.8460
10795TIP3   OH253875   2.223   3.364  14.528  0.9167 -0.6096 -0.0782
10795TIP3    H153876   2.134   3.331  14.542  0.0453  1.8897  0.8129
10795TIP3    H253877   2.267   3.350  14.611  0.3184  0.9728  0.5490
10796TIP3   OH253878   6.527   4.980   2.251  0.3506  0.3532  0.3455
10796TIP3    H153879   6.515   4.886   2.258  2.5845  0.0870  1.1906
10796TIP3    H253880   6.552   4.994   2.160  2.2648 -0.1882  0.7641
10797TIP3   OH253881   5.738   3.102  14.443 -0.0356  0.0974  0.5001
10797TIP3    H153882   5.664   3.051  14.476  1.0059 -1.0035  1.2328
10797TIP3    H253883   5.739   3.181  14.497  0.9811 -1.1773  2.4724
10798TIP3   OH253884   5.342   2.383  12.377 -0.0554 -0.1413  0.0958
10798TIP3    H153885   5.314   2.465  12.335 -0.1918 -0.2949 -0.1136
10798TIP3    H253886   5.293   2.381  12.459  1.5440  1.0574  1.1443
10799TIP3   OH253887   0.344   2.704   4.465  0.2780  0.3625  0.4528
10799TIP3    H153888   0.354   2.625   4.519  1.2522  0.6908  0.7775
10799TIP3    H253889   0.300   2.767   4.522 -0.7924 -0.0304  0.0896
10800TIP3   OH253890   4.342   1.221   5.995  0.2197  0.0994 -0.7305
10800TIP3    H153891   4.335   1.277   5.918  0.2379  0.0669 -0.7562
10800TIP3    H253892   4.337   1.280   6.070 -0.0876  0.1036 -0.7542
10801TIP3   OH253893   1.840   5.157   2.608  1.3333 -0.3632 -0.5641
10801TIP3    H153894   1.860   5.244   2.642  2.2564 -0.5600 -0.5788
10801TIP3    H253895   1.750   5.141   2.635  0.7676  1.0519 -1.5265
10802TIP3   OH253896   6.138   4.032  12.708 -0.0439  0.2586  0.2851
10802TIP3    H153897   6.061   3.996  12.664 -0.5053  0.3195  1.0082
10802TIP3    H253898   6.102   4.074  12.787  0.7045  0.5112  0.4967
10803TIP3   OH253899   5.064   6.826  10.868  0.4582  0.1638  0.7027
10803TIP3    H153900   5.025   6.803  10.952  0.1519  0.1743  0.5684
10803TIP3    H253901   5.125   6.897  10.888 -0.5713  1.0703  0.7390
10804TIP3   OH253902   1.722   2.431  14.738 -0.2118  0.4266 -0.2681
10804TIP3    H153903   1.648   2.490  14.726 -0.9966 -0.7173 -1.4149
10804TIP3    H253904   1.765   2.428  14.653  1.1157  0.9935  0.3569
10805TIP3   OH253905   5.512   1.904   5.343 -0.3825  0.0336 -0.1350
10805TIP3    H153906   5.471   1.989   5.358  1.6193  0.9336  0.4912
10805TIP3    H253907   5.555   1.913   5.258  0.7706  0.0467  0.4395
10806TIP3   OH253908   2.529   6.205  15.737  0.1830 -0.0849  0.3043
10806TIP3    H153909   2.477   6.176  15.812  0.3856 -0.7259  0.1997
10806TIP3    H253910   2.591   6.267  15.775  0.4859 -0.6340  0.7266
10807TIP3   OH253911   1.536   5.275   4.169 -0.3738  0.8052  0.1973
10807TIP3    H153912   1.504   5.205   4.112  0.9930 -0.3769  0.7967
10807TIP3    H253913   1.458   5.310   4.210 -1.0547 -1.0593  0.6202
10808TIP3   OH253914   0.302   2.487  16.890 -0.4880 -0.3709 -0.3046
10808TIP3    H153915   0.334   2.402  16.920 -0.4454 -0.6002 -0.9816
10808TIP3    H253916   0.369   2.550  16.920 -1.2280 -0.3710  1.4524
10809TIP3   OH253917   0.822   3.550  15.633 -0.4724 -0.0550 -0.0104
10809TIP3    H153918   0.774   3.469  15.648  0.1562 -0.1908  1.4202
10809TIP3    H253919   0.764   3.619  15.666 -0.2281 -0.1092  0.5502
10810TIP3   OH253920   4.222   5.200  16.814 -0.5035  0.3921  0.6953
10810TIP3    H153921   4.150   5.217  16.875 -0.3568  1.3182  0.6214
10810TIP3    H253922   4.216   5.106  16.797 -0.9791  0.2421  1.5864
10811TIP3   OH253923   3.143   5.749  14.670 -0.1397 -0.6327  0.0237
10811TIP3    H153924   3.079   5.721  14.604  0.1114 -0.1253 -0.4389
10811TIP3    H253925   3.160   5.670  14.721 -1.9187 -0.5510  0.8188
10812TIP3   OH253926   5.571   3.018   3.748  0.0186  0.3009  0.5309
10812TIP3    H153927   5.561   2.939   3.801 -1.5623 -0.4163 -0.7208
10812TIP3    H253928   5.617   2.988   3.669  0.6262  0.9360  0.6371
10813TIP3   OH253929   3.670   1.850  13.654 -0.3431 -1.2021 -0.5323
10813TIP3    H153930   3.586   1.874  13.615  0.5544  0.2605 -1.6738
10813TIP3    H253931   3.707   1.785  13.593 -0.1942 -1.0629 -0.5909
10814TIP3   OH253932   6.228   3.576  17.225 -0.4809 -0.0545  0.2341
10814TIP3    H153933   6.309   3.598  17.271 -1.6836  2.5699  1.2956
10814TIP3    H253934   6.255   3.562  17.134  1.1877  0.5821  0.6007
10815TIP3   OH253935   6.042   3.566  16.972 -0.1577 -0.6189  0.2341
10815TIP3    H153936   6.082   3.484  16.945  2.7999  0.0955  2.0260
10815TIP3    H253937   6.031   3.557  17.067  0.5536  1.1362  0.5178
10816TIP3   OH253938   6.508   5.373  13.723  0.5358  0.0819  0.3691
10816TIP3    H153939   6.596   5.337  13.717  1.1926  1.5629  0.8097
10816TIP3    H253940   6.451   5.296  13.723  1.6152 -0.8490 -2.6440
10817TIP3   OH253941   0.157   2.642   3.887 -0.5707 -0.0479 -0.3454
10817TIP3    H153942   0.065   2.668   3.886 -0.9286 -1.2660 -0.7866
10817TIP3    H253943   0.176   2.624   3.979 -0.4682  1.1674 -0.1083
10818TIP3   OH253944   1.234   6.282  14.999 -0.0971 -0.7687  0.1655
10818TIP3    H153945   1.221   6.372  14.971  0.0457 -0.3007  1.5352
10818TIP3    H253946   1.325   6.263  14.976  0.1940 -0.1968  0.8026
10819TIP3   OH253947   6.352   1.886   4.446 -0.0977  0.6961  0.1918
10819TIP3    H153948   6.418   1.914   4.510  0.4868  2.5808 -1.1768
10819TIP3    H253949   6.301   1.819   4.493  1.6425  0.4552  1.8877
10820TIP3   OH253950   6.397   2.694  12.961  0.4252 -0.1775 -0.0651
10820TIP3    H153951   6.464   2.680  13.029  2.2804 -0.3554 -1.8475
10820TIP3    H253952   6.416   2.782  12.927  0.8903 -0.8928 -1.7500
10821TIP3   OH253953   0.026   3.459  12.954  0.1414  0.1843 -0.1217
10821TIP3    H153954   0.078   3.420  13.024  0.6841  1.5410  0.2694
10821TIP3    H253955   0.090   3.502  12.897 -0.5078  2.1650  0.5471
10822TIP3   OH253956   2.083   6.782   5.526  0.3109  0.0969  0.3029
10822TIP3    H153957   2.087   6.785   5.622 -0.5174  1.5891  0.3210
10822TIP3    H253958   2.092   6.873   5.498 -1.4099 -0.0481 -0.9199
10823TIP3   OH253959   4.717   6.156  16.359  0.2016 -0.1194 -0.1915
10823TIP3    H153960   4.741   6.238  16.316 -1.3913 -1.5660 -4.2548
10823TIP3    H253961   4.630   6.173  16.396  0.1355  0.1833 -0.4878
10824TIP3   OH253962   3.406   2.510  10.637 -0.3002  0.7621  0.1256
10824TIP3    H153963   3.393   2.417  10.615  1.4199  0.2851  0.9388
10824TIP3    H253964   3.335   2.555  10.592 -1.5965 -1.0183  0.2540
10825TIP3   OH253965   2.865   3.565  11.818 -0.0032  0.1093 -0.1586
10825TIP3    H153966   2.931   3.498  11.836 -0.1707  0.0894  0.3807
10825TIP3    H253967   2.899   3.611  11.741 -0.1997 -1.0122 -0.9469
10826TIP3   OH253968   2.661   3.812   0.253  0.0509 -0.3141 -0.3322
10826TIP3    H153969   2.614   3.764   0.321 -0.2973 -0.8992 -0.9727
10826TIP3    H253970   2.610   3.797   0.173 -1.8488  3.6067 -0.0749
10827TIP3   OH253971   6.618   5.003   1.955  0.5325 -0.4461  0.3953
10827TIP3    H153972   6.636   4.999   1.861  1.4150  0.8113  0.4902
10827TIP3    H253973   6.690   4.953   1.995 -0.0153 -1.2525  0.4097
10828TIP3   OH253974   4.335   3.444   6.385 -0.1165  0.0037 -0.0507
10828TIP3    H153975   4.311   3.525   6.429  1.7155  1.6527 -1.8311
10828TIP3    H253976   4.370   3.473   6.300 -0.2304 -2.7311 -1.1258
10829TIP3   OH253977   4.381   0.569   0.201 -0.2551  0.3718  0.3914
10829TIP3    H153978   4.472   0.579   0.175  0.2587 -0.9919  1.5495
10829TIP3    H253979   4.332   0.618   0.135  1.0051 -2.3314 -2.8457
10830TIP3   OH253980   0.989   2.575  13.544  0.0343 -0.7398  0.0912
10830TIP3    H153981   1.016   2.666  13.536 -0.6160 -0.4905  0.6715
10830TIP3    H253982   1.062   2.532  13.588 -0.2164 -0.2105  1.0481
10831TIP3   OH253983   0.025   2.800   1.591 -0.7525  0.0518  0.5903
10831TIP3    H153984   0.094   2.796   1.525 -0.6108 -0.1342  0.7459
10831TIP3    H253985   0.012   2.708   1.617 -0.8007  0.1249  0.8224
10832TIP3   OH253986   3.114   5.470   3.211  0.1209  0.1681  0.3798
10832TIP3    H153987   3.202   5.442   3.188 -0.9194 -1.8687 -1.4645
10832TIP3    H253988   3.058   5.395   3.190 -2.1860  1.7334  0.5128
10833TIP3   OH253989   2.941   2.252  11.919 -0.2819 -0.5776  0.4112
10833TIP3    H153990   2.978   2.211  11.840  1.1918 -0.5188  1.0296
10833TIP3    H253991   2.977   2.341  11.918 -2.0196  0.1644  0.0202
10834TIP3   OH253992   3.215   1.548  16.356  0.2982 -0.4184  0.0690
10834TIP3    H153993   3.243   1.483  16.292  0.4856 -0.8087  0.5441
10834TIP3    H253994   3.230   1.632  16.313  0.5005 -0.6730 -0.3633
10835TIP3   OH253995   5.983   4.450   2.296  0.3335  0.0723  0.2082
10835TIP3    H153996   6.060   4.496   2.263  1.4157 -1.6474  0.2323
10835TIP3    H253997   5.958   4.390   2.225 -0.5209  0.0638  0.5022
10836TIP3   OH253998   2.057   5.235  10.619  0.4729 -0.8422  0.2441
10836TIP3    H153999   2.013   5.150  10.615 -0.0379 -0.7138  2.0621
10836TIP3    H254000   2.149   5.216  10.602  0.2948 -1.7019  0.1985
10837TIP3   OH254001   3.897   5.667  14.612 -0.2998 -0.6608  0.2658
10837TIP3    H154002   3.968   5.677  14.547  0.0191  0.5785  0.7669
10837TIP3    H254003   3.818   5.662  14.559 -0.0857  0.7199 -0.2590
10838TIP3   OH254004   1.588   1.635  13.756  0.0526 -0.0668 -0.6397
10838TIP3    H154005   1.559   1.573  13.824 -2.7293 -0.2111 -1.8268
10838TIP3    H254006   1.617   1.712  13.805 -2.5839  0.1280  0.7698
10839TIP3   OH254007   2.605   3.694  13.850  0.4865  0.3099 -0.0181
10839TIP3    H154008   2.589   3.609  13.892  1.3289  0.2937  0.2890
10839TIP3    H254009   2.523   3.714  13.805 -0.6931  0.5979  2.0856
10840TIP3   OH254010   0.486   5.087  13.080  0.0704  0.0145 -0.6551
10840TIP3    H154011   0.544   5.148  13.034  0.9342 -1.5853 -1.8118
10840TIP3    H254012   0.544   5.015  13.105 -0.4003  0.6803  2.8394
10841TIP3   OH254013   4.810   6.626   3.777  0.0280  0.0793 -0.7479
10841TIP3    H154014   4.752   6.551   3.785 -0.4106  0.5358  0.5948
10841TIP3    H254015   4.759   6.691   3.729 -0.6655  0.5218  0.5277
10842TIP3   OH254016   1.563   6.043  13.841 -0.0650 -0.5993  0.4362
10842TIP3    H154017   1.540   6.026  13.750 -0.0440  0.6119  0.1842
10842TIP3    H254018   1.496   6.105  13.871  0.7487  0.1391  0.7896
10843TIP3   OH254019   5.959   5.393   4.102  0.1009  0.0222 -0.1036
10843TIP3    H154020   6.000   5.406   4.188  1.7965 -0.5707 -0.7874
10843TIP3    H254021   5.909   5.312   4.112 -3.2770  2.0473  1.5221
10844TIP3   OH254022   5.062   3.941   5.715  0.4972 -0.3003  0.0031
10844TIP3    H154023   5.028   3.960   5.802  0.8837 -0.5191  0.2024
10844TIP3    H254024   4.984   3.927   5.661  0.2471  0.2511  0.2152
10845TIP3   OH254025   6.505   1.045   4.170  0.5745 -0.2022  0.4900
10845TIP3    H154026   6.452   1.069   4.094  2.3104  0.9911 -0.4122
10845TIP3    H254027   6.456   0.974   4.212 -1.5550  0.6091 -0.4466
10846TIP3   OH254028   2.723   5.124   4.148  0.1146  0.5378  0.6917
10846TIP3    H154029   2.805   5.075   4.145 -0.5885 -0.6663  0.5046
10846TIP3    H254030   2.695   5.130   4.057 -1.7110 -2.1055  0.9597
10847TIP3   OH254031   0.556   4.117   4.017  0.0136 -0.2171 -0.3574
10847TIP3    H154032   0.528   4.109   4.108 -0.1241  0.1078 -0.3664
10847TIP3    H254033   0.553   4.028   3.982  0.7348 -0.4457  0.1463
10848TIP3   OH254034   2.373   1.070   5.409 -0.1894 -0.2292 -0.3888
10848TIP3    H154035   2.281   1.047   5.397  0.1555 -1.0068 -1.7523
10848TIP3    H254036   2.377   1.163   5.388 -0.9542  0.2475  1.4550
10849TIP3   OH254037   0.741   0.615   4.381  0.1502  0.5923 -0.5559
10849TIP3    H154038   0.705   0.649   4.299 -1.7770  0.5684  0.2446
10849TIP3    H254039   0.823   0.663   4.392 -0.1967  1.5383 -1.8381
10850TIP3   OH254040   0.118   5.076   1.082 -0.0728 -0.4195 -0.6734
10850TIP3    H154041   0.193   5.136   1.084 -1.2298  1.0632 -0.0723
10850TIP3    H254042   0.061   5.106   1.152 -0.9170 -1.9654 -0.6542
10851TIP3   OH254043   0.417   2.204  16.646 -0.0502 -0.0936  0.2278
10851TIP3    H154044   0.470   2.283  16.657 -2.6267  1.5131  2.3728
10851TIP3    H254045   0.369   2.219  16.565  0.2673  0.0459  0.0645
10852TIP3   OH254046   0.737   0.082   2.314  0.3497  0.2479 -0.4846
10852TIP3    H154047   0.808   0.142   2.291  0.0540  0.8669  0.1761
10852TIP3    H254048   0.771  -0.005   2.291  0.4698  0.7227 -2.2025
10853TIP3   OH254049   3.530   3.131   2.502 -0.0365  0.3578  0.3405
10853TIP3    H154050   3.443   3.155   2.471  0.4143 -0.2066 -1.5366
10853TIP3    H254051   3.590   3.177   2.443  0.8914 -0.7162  0.4085
10854TIP3   OH254052   5.053   0.746   5.716 -0.0730 -0.4083 -0.0193
10854TIP3    H154053   5.086   0.680   5.656  0.7885 -1.0168  1.0968
10854TIP3    H254054   5.115   0.819   5.709 -1.6277  0.8397 -2.0970
10855TIP3   OH254055   1.476   6.679  11.403  0.7133  0.4028 -0.0072
10855TIP3    H154056   1.417   6.607  11.382  1.2324 -0.3726  1.0605
10855TIP3    H254057   1.538   6.641  11.466 -0.3813  2.3324  2.4178
10856TIP3   OH254058   2.574   5.967  14.825 -0.2521 -0.3057  0.2854
10856TIP3    H154059   2.550   5.924  14.907 -0.8753 -0.8986 -0.2014
10856TIP3    H254060   2.595   6.057  14.851  1.5680 -0.9819  1.3981
10857TIP3   OH254061   6.636   4.163   5.429  0.3582  0.4016 -0.1276
10857TIP3    H154062   6.721   4.118   5.428  0.1248 -0.0426 -0.1430
10857TIP3    H254063   6.621   4.187   5.338  0.2585  0.0787 -0.1980
10858TIP3   OH254064   2.695   0.609  12.205 -0.4137 -0.6521 -0.3236
10858TIP3    H154065   2.714   0.657  12.285 -2.2550  1.6294 -1.1193
10858TIP3    H254066   2.610   0.568  12.221  0.6089 -2.7863 -0.0792
10859TIP3   OH254067   5.915   6.089   4.080 -0.0870 -0.3492  0.1694
10859TIP3    H154068   5.935   6.066   3.989  1.4237 -0.3729  0.4699
10859TIP3    H254069   5.941   6.012   4.130 -4.6752 -2.0248  0.3775
10860TIP3   OH254070   5.715   0.054  10.594 -0.0819  0.1879 -0.4812
10860TIP3    H154071   5.620   0.068  10.589 -0.1120  1.2743  1.8439
10860TIP3    H254072   5.742   0.041  10.503 -2.1947  1.6139 -1.3887
10861TIP3   OH254073   5.665   5.767  12.572  0.1963 -0.2702 -0.3061
10861TIP3    H154074   5.711   5.836  12.619 -0.8637  0.5476 -0.4425
10861TIP3    H254075   5.652   5.698  12.636 -0.2893  0.3920  0.3204
10862TIP3   OH254076   1.592   1.228  16.386  0.6187  0.2308  0.0640
10862TIP3    H154077   1.579   1.317  16.419 -1.3483  0.5168 -1.3335
10862TIP3    H254078   1.560   1.172  16.457 -1.2367  0.7675 -0.2841
10863TIP3   OH254079   0.732   5.843   4.612  0.0846 -0.9079 -0.1547
10863TIP3    H154080   0.681   5.765   4.635  0.2538 -1.4678 -1.5467
10863TIP3    H254081   0.730   5.897   4.691 -3.2943 -0.5201 -0.3765
10864TIP3   OH254082   3.977   3.430  12.094 -0.1759  0.3946 -0.0177
10864TIP3    H154083   3.968   3.523  12.074 -0.8444  0.4021  0.2831
10864TIP3    H254084   3.891   3.404  12.127 -0.5231 -0.7084 -1.6474
10865TIP3   OH254085   6.574   3.504   2.425 -0.2767  0.0582 -0.0754
10865TIP3    H154086   6.500   3.564   2.427  1.1686  1.9362  0.3692
10865TIP3    H254087   6.569   3.463   2.338 -2.9146 -1.4226  0.6562
10866TIP3   OH254088   6.110   2.740   5.838 -0.3433 -0.0208 -0.2658
10866TIP3    H154089   6.024   2.780   5.827 -0.4648  0.0760  0.8703
10866TIP3    H254090   6.099   2.650   5.808 -0.8219  0.0100 -0.1932
10867TIP3   OH254091   3.377   4.746  13.617  0.3723  0.3642 -0.3373
10867TIP3    H154092   3.356   4.658  13.584  2.5023 -0.3750  0.0654
10867TIP3    H254093   3.342   4.748  13.706  0.2361 -0.0634 -0.3797
10868TIP3   OH254094   4.465   5.974  10.518  0.0833 -0.3096 -0.1607
10868TIP3    H154095   4.557   5.990  10.539 -0.0338  0.3235 -0.0952
10868TIP3    H254096   4.456   6.002  10.427 -0.1527  0.1110 -0.0107
10869TIP3   OH254097   3.342   1.393  15.353  0.0726 -0.1016 -0.2737
10869TIP3    H154098   3.334   1.307  15.393 -0.0069  0.1162  0.1875
10869TIP3    H254099   3.272   1.396  15.289 -2.9582  1.2879  2.8079
10870TIP3   OH254100   2.163   5.970   3.810  0.0898 -0.0110 -0.6054
10870TIP3    H154101   2.217   6.043   3.839 -0.4796  0.0557  0.3504
10870TIP3    H254102   2.085   5.974   3.866  0.0970 -1.4105 -0.4434
10871TIP3   OH254103   1.389   5.413  16.771  0.3527 -0.2712  0.5447
10871TIP3    H154104   1.415   5.384  16.684 -2.0378 -1.8844  0.2896
10871TIP3    H254105   1.440   5.357  16.830  0.3875 -0.6603  0.1525
10872TIP3   OH254106   6.633   5.980  16.163 -0.0800  0.6925  0.2805
10872TIP3    H154107   6.554   6.025  16.191 -0.2490  0.2886  0.4674
10872TIP3    H254108   6.677   5.955  16.244 -0.1429  0.2609  0.1832
10873TIP3   OH254109   5.007   4.966  12.463  0.3612  0.4505  0.5269
10873TIP3    H154110   4.944   5.039  12.461  1.8075  1.9030  3.0483
10873TIP3    H254111   5.052   4.971  12.378 -1.4744  0.6555 -0.4866
10874TIP3   OH254112   2.135   1.377  15.213 -0.5539 -0.1793  1.0444
10874TIP3    H154113   2.200   1.336  15.156 -1.1889  0.1840  0.0305
10874TIP3    H254114   2.103   1.452  15.162 -2.1112 -0.6226  1.3116
10875TIP3   OH254115   5.499   6.476   2.679  0.5694 -0.4194  0.5494
10875TIP3    H154116   5.584   6.501   2.642 -0.0645  1.4941  0.2933
10875TIP3    H254117   5.440   6.474   2.604 -0.1973  1.0883  1.0698
10876TIP3   OH254118   4.900   3.082  10.452  0.0597  0.4518  0.3757
10876TIP3    H154119   4.913   3.174  10.429  1.4769  0.0596 -0.5321
10876TIP3    H254120   4.805   3.071  10.453 -0.1192  1.6619 -0.5886
10877TIP3   OH254121   2.862   0.180   6.063 -0.1820 -0.4347  0.8485
10877TIP3    H154122   2.889   0.116   5.997 -0.4887 -0.9349  1.1954
10877TIP3    H254123   2.939   0.236   6.075 -0.5651  0.5539 -0.9323
10878TIP3   OH254124   6.039   4.725   5.900  0.3361 -0.0283 -0.0098
10878TIP3    H154125   6.097   4.719   5.825  0.6873 -1.4832  0.3506
10878TIP3    H254126   6.084   4.784   5.961  1.4432 -1.0901  0.2405
10879TIP3   OH254127   0.933   5.410   4.678  0.0413  0.0817 -0.0590
10879TIP3    H154128   0.971   5.330   4.642  0.7225 -0.3692  1.5754
10879TIP3    H254129   0.994   5.480   4.652 -1.5293  0.4464 -3.1241
10880TIP3   OH254130   1.542   1.043  11.408  0.1926  0.0382 -0.1267
10880TIP3    H154131   1.593   1.013  11.483 -1.8789 -2.0468  0.5908
10880TIP3    H254132   1.533   0.965  11.352  0.0301  1.0335 -1.5484
10881TIP3   OH254133   6.188   0.383  16.228  0.1799 -0.5159  0.7290
10881TIP3    H154134   6.114   0.382  16.167  0.5587 -0.2658  0.2603
10881TIP3    H254135   6.160   0.327  16.301 -0.8250  0.2689  0.9705
10882TIP3   OH254136   2.725   2.197  16.943 -0.0593  0.0861 -0.7002
10882TIP3    H154137   2.658   2.258  16.974 -0.4641 -0.7418  0.1014
10882TIP3    H254138   2.742   2.140  17.018  1.4561  0.1865 -0.9229
10883TIP3   OH254139   6.093   4.436   4.221 -0.5452 -0.2398  0.3550
10883TIP3    H154140   6.108   4.529   4.209  3.5533 -1.0566 -3.3448
10883TIP3    H254141   6.019   4.416   4.163 -2.5960  0.7689  2.4534
10884TIP3   OH254142   4.871   0.706  16.671  0.3530 -0.0897 -0.0658
10884TIP3    H154143   4.939   0.720  16.605 -1.3776  0.9891 -1.7128
10884TIP3    H254144   4.818   0.634  16.636 -0.2529  0.1098  0.4254
10885TIP3   OH254145   0.469   2.599   5.292  0.1209  0.2041 -0.2857
10885TIP3    H154146   0.493   2.628   5.204 -2.4433  0.9039 -0.8471
10885TIP3    H254147   0.538   2.632   5.349  0.0199  2.9258 -1.5968
10886TIP3   OH254148   5.741   3.356  14.560  0.4783 -0.0023 -0.2038
10886TIP3    H154149   5.695   3.375  14.642  2.4380  1.4793  0.6434
10886TIP3    H254150   5.700   3.414  14.495 -1.0593 -1.1574 -0.3080
10887TIP3   OH254151   3.042   6.590   5.456 -0.9083 -0.8776  0.6429
10887TIP3    H154152   2.946   6.599   5.461 -0.7950  0.5411  0.6146
10887TIP3    H254153   3.072   6.673   5.420  0.2185 -1.9604 -1.0257
10888TIP3   OH254154   6.463   0.815   0.579  0.1382 -0.5502 -0.9787
10888TIP3    H154155   6.535   0.788   0.636 -0.3245  0.3113  0.0464
10888TIP3    H254156   6.475   0.909   0.568  1.0843 -0.8867 -3.5856
10889TIP3   OH254157   2.634   0.853   5.125 -0.0471 -0.7087 -0.0761
10889TIP3    H154158   2.656   0.944   5.107 -1.4572 -0.1005  1.1132
10889TIP3    H254159   2.627   0.848   5.220 -2.8511 -1.3183 -0.2400
10890TIP3   OH254160   5.023   5.238  11.322 -1.2118 -0.2498 -0.5608
10890TIP3    H154161   5.116   5.231  11.300 -1.5861  0.3498 -2.4766
10890TIP3    H254162   4.997   5.325  11.292 -2.1661  0.0470  0.9790
10891TIP3   OH254163   4.543   3.244  16.124  0.8036  0.4882 -0.6487
10891TIP3    H154164   4.467   3.292  16.093  0.6333 -0.7231 -2.2626
10891TIP3    H254165   4.518   3.213  16.211 -1.0655 -0.8155 -1.5631
10892TIP3   OH254166   5.800   6.750   6.708  0.0438  0.1645  0.0217
10892TIP3    H154167   5.833   6.704   6.632  0.4766 -0.5136  0.6110
10892TIP3    H254168   5.740   6.816   6.672 -0.8027 -1.0287 -0.8215
10893TIP3   OH254169   4.986   3.062   4.791 -0.6818  0.3463  0.3528
10893TIP3    H154170   5.032   3.089   4.712  0.8066 -0.5819  0.8616
10893TIP3    H254171   4.943   2.980   4.767 -0.0421 -0.0554  0.5443
10894TIP3   OH254172   5.500   3.845   5.290 -0.2901  0.1616 -0.3026
10894TIP3    H154173   5.509   3.773   5.353 -0.9066 -0.4998 -0.9396
10894TIP3    H254174   5.439   3.906   5.332 -2.4600 -1.3223 -1.0891
10895TIP3   OH254175   3.551   2.801   0.332 -0.3255  0.3457 -0.2054
10895TIP3    H154176   3.504   2.881   0.355  1.0718  0.8459  1.0680
10895TIP3    H254177   3.643   2.822   0.347  0.1926 -1.0667 -1.2125
10896TIP3   OH254178   1.692   1.282   4.609  0.3987 -0.1764 -0.0212
10896TIP3    H154179   1.768   1.338   4.627 -1.1713  2.1476 -0.2201
10896TIP3    H254180   1.633   1.296   4.683 -0.5869 -0.5467 -0.7126
10897TIP3   OH254181   4.594   1.555   4.421 -0.4843 -0.1814  0.0556
10897TIP3    H154182   4.604   1.465   4.390  0.5474  0.3732 -1.3171
10897TIP3    H254183   4.680   1.595   4.408 -0.2544  0.3952  2.7866
10898TIP3   OH254184   2.957   0.583   2.586 -1.0214 -1.1608 -0.3479
10898TIP3    H154185   2.997   0.497   2.601 -0.9556 -0.8095  1.8694
10898TIP3    H254186   3.006   0.642   2.643 -0.9106  0.4323 -2.0101
10899TIP3   OH254187   3.375   3.185  14.998  0.4694  0.1593 -0.0698
10899TIP3    H154188   3.312   3.134  15.047  0.1015 -1.1368 -1.8030
10899TIP3    H254189   3.364   3.275  15.031  0.2191 -0.6168  2.0991
10900TIP3   OH254190   6.825   0.073  17.275  0.4032  0.1826 -0.0014
10900TIP3    H154191   6.834   0.113  17.362  2.5710 -1.0379  0.4052
10900TIP3    H254192   6.841  -0.020  17.290 -0.7431 -0.2981 -1.5026
10901TIP3   OH254193   0.435   5.686  12.568  0.0971  0.6020  0.1347
10901TIP3    H154194   0.398   5.657  12.485 -1.1067  1.4041  0.3658
10901TIP3    H254195   0.390   5.768  12.587  1.0842  0.9489  1.0875
10902TIP3   OH254196   5.044   0.770  11.918 -0.6498  0.7313 -0.1618
10902TIP3    H154197   5.000   0.685  11.908 -1.3597  1.1895 -1.1898
10902TIP3    H254198   5.099   0.777  11.840 -1.6292  1.7879 -0.7894
10903TIP3   OH254199   3.885   3.315  12.514 -0.4356 -0.4712  0.3141
10903TIP3    H154200   3.839   3.234  12.537 -0.3468 -0.7160 -0.3472
10903TIP3    H254201   3.907   3.355  12.598  0.1975 -1.5222  0.6733
10904TIP3   OH254202   5.579   4.943   3.901 -0.3564  0.5880  0.3013
10904TIP3    H154203   5.583   4.969   3.993  1.0412  2.0018 -0.1194
10904TIP3    H254204   5.521   5.007   3.860  0.1959  0.8553 -0.0707
10905TIP3   OH254205   2.178   5.723  13.262 -0.1626 -0.5277  0.5423
10905TIP3    H154206   2.252   5.781  13.278  0.2425 -0.5633 -0.9744
10905TIP3    H254207   2.212   5.658  13.200 -0.7265 -2.1399  1.8443
10906TIP3   OH254208   2.541   3.301  14.345 -0.5163 -0.1691 -0.0971
10906TIP3    H154209   2.547   3.214  14.306  1.1314 -0.1463  0.0152
10906TIP3    H254210   2.479   3.348  14.291 -1.1276 -1.2967 -0.3948
10907TIP3   OH254211   6.199   3.128  13.944 -0.3466  0.1254  0.5486
10907TIP3    H154212   6.285   3.115  13.903 -0.9024 -0.7542 -0.3859
10907TIP3    H254213   6.181   3.046  13.989 -0.7201  0.2866  0.6918
10908TIP3   OH254214   3.565   3.620   5.075 -0.1749  0.1628  0.0496
10908TIP3    H154215   3.638   3.608   5.014 -1.7623  0.2216 -1.9851
10908TIP3    H254216   3.590   3.571   5.153  0.7770 -2.3362 -1.7002
10909TIP3   OH254217   3.335   4.797   3.331  0.3036  0.3111  0.6106
10909TIP3    H154218   3.352   4.882   3.290 -1.0937  0.9468  1.2495
10909TIP3    H254219   3.272   4.817   3.401  0.9604 -1.0566  1.6473
10910TIP3   OH254220   0.035   5.149  14.064  0.0107  0.4300  0.9287
10910TIP3    H154221   0.019   5.190  13.979 -0.1566 -0.6508  0.4276
10910TIP3    H254222  -0.004   5.210  14.127  1.0593  1.7639  0.3366
10911TIP3   OH254223   3.432   1.345   4.190 -0.2600  0.3518  0.2382
10911TIP3    H154224   3.470   1.412   4.246  1.1058 -2.6299  3.2123
10911TIP3    H254225   3.363   1.306   4.243 -1.2205 -0.4229 -1.5061
10912TIP3   OH254226   5.547   4.646   3.848 -0.8692 -0.7379 -0.7231
10912TIP3    H154227   5.641   4.633   3.860 -1.2240 -1.6401  1.7893
10912TIP3    H254228   5.530   4.734   3.882 -1.2781 -1.7243  1.9040
10913TIP3   OH254229   3.784   1.045  15.991  0.4598  0.2311 -0.2070
10913TIP3    H154230   3.755   1.114  16.050  1.4900  1.6043 -1.2469
10913TIP3    H254231   3.878   1.040  16.005  0.3257 -1.4490  0.3199
10914TIP3   OH254232   6.770   5.282  14.281  0.1121  0.1659 -0.1424
10914TIP3    H154233   6.730   5.359  14.241 -0.8667 -0.0261  0.4404
10914TIP3    H254234   6.821   5.317  14.353  0.6377  0.3715 -0.6064
10915TIP3   OH254235   5.760   0.473  12.833  0.3158  0.7905  0.4351
10915TIP3    H154236   5.744   0.394  12.884  1.5649  0.1262 -0.1401
10915TIP3    H254237   5.825   0.521  12.884 -1.7628  2.4040  1.7054
10916TIP3   OH254238   4.047   1.958  11.105  0.6957  0.3207  0.2138
10916TIP3    H154239   4.110   1.942  11.035 -1.0007  1.3305 -1.6651
10916TIP3    H254240   4.088   2.024  11.161  1.9508 -0.2710  0.0092
10917TIP3   OH254241   6.821   3.667  14.532  0.5230  0.4808  0.0943
10917TIP3    H154242   6.795   3.662  14.440 -0.3816 -1.1938  0.4030
10917TIP3    H254243   6.834   3.761  14.548 -0.4251  0.9062 -1.4278
10918TIP3   OH254244   3.820   1.015   5.562 -0.4679 -0.1381 -0.0323
10918TIP3    H154245   3.728   1.005   5.535  0.0111 -0.5550 -1.6007
10918TIP3    H254246   3.815   1.052   5.650 -2.1173  3.1149 -1.3289
10919TIP3   OH254247   3.638   0.119   3.618  0.4020 -0.1441  0.4887
10919TIP3    H154248   3.682   0.084   3.696 -1.7466  1.0986  2.3903
10919TIP3    H254249   3.570   0.054   3.599 -0.4436  0.5698  1.0029
10920TIP3   OH254250   4.916   5.994  12.658  0.2406 -0.4775  0.1959
10920TIP3    H154251   4.978   5.946  12.604  2.6796 -0.0406  2.3923
10920TIP3    H254252   4.896   6.073  12.608  1.3588 -0.7026 -0.6333
10921TIP3   OH254253   5.316   6.497  12.454 -0.5899  0.9579 -0.4914
10921TIP3    H154254   5.392   6.477  12.399 -0.9165  1.8816 -1.3152
10921TIP3    H254255   5.272   6.413  12.466  1.1131  0.2104  0.8873
10922TIP3   OH254256   5.994   3.395   4.610 -0.0793  0.0934  0.2646
10922TIP3    H154257   5.919   3.408   4.668 -0.0227 -0.8616  0.5772
10922TIP3    H254258   5.960   3.341   4.539  0.1389  0.2758  0.0194
10923TIP3   OH254259   5.895   1.327  11.399 -0.7596  0.0180 -0.1292
10923TIP3    H154260   5.941   1.336  11.482 -0.4197 -0.6200 -0.2406
10923TIP3    H254261   5.951   1.374  11.336 -0.5040 -0.3393 -0.1737
10924TIP3   OH254262   4.824   4.776  14.625 -0.5455 -0.4026  0.1559
10924TIP3    H154263   4.875   4.743  14.699 -1.1012  0.3517  0.8914
10924TIP3    H254264   4.825   4.704  14.562  0.1196 -0.9823  0.8024
10925TIP3   OH254265   1.063   0.963  11.430 -0.7698 -0.0391 -0.3698
10925TIP3    H154266   1.155   0.969  11.456  0.2611  0.5187 -3.7561
10925TIP3    H254267   1.053   0.875  11.396 -1.1920  0.2666 -1.0511
10926TIP3   OH254268   2.614   6.798   4.644 -0.4610  1.1110 -0.7564
10926TIP3    H154269   2.630   6.888   4.671 -0.7271  1.1770 -0.8132
10926TIP3    H254270   2.655   6.791   4.557  2.5187  0.2183  0.5920
10927TIP3   OH254271   3.823   0.196   3.139  0.3247 -0.3043  0.1706
10927TIP3    H154272   3.822   0.111   3.096  2.3338 -0.1787 -0.2000
10927TIP3    H254273   3.742   0.198   3.190 -0.1386 -2.1015 -0.4376
10928TIP3   OH254274   0.915   5.491  10.405 -0.4110 -0.9448  0.1956
10928TIP3    H154275   0.901   5.464  10.315  0.6592 -1.7317  0.2577
10928TIP3    H254276   0.833   5.468  10.450 -0.2665 -2.2646 -0.1778
10929TIP3   OH254277   6.633   3.744  15.724  0.1584 -0.7527  0.0473
10929TIP3    H154278   6.550   3.732  15.677  0.4513  0.4849 -0.8326
10929TIP3    H254279   6.695   3.772  15.657  0.9651 -0.4143  0.9129
10930TIP3   OH254280   2.330   6.594  10.655  0.4474  0.4605  0.4288
10930TIP3    H154281   2.350   6.512  10.700  1.5849  0.6194  0.2345
10930TIP3    H254282   2.319   6.569  10.563  0.8771  0.5362  0.3562
10931TIP3   OH254283   0.645   3.306  11.482 -0.2407 -0.2361 -0.5411
10931TIP3    H154284   0.657   3.301  11.387  2.4777 -0.3886 -0.2721
10931TIP3    H254285   0.646   3.214  11.510  0.1377 -0.1452 -0.2593
10932TIP3   OH254286   0.960   5.509  14.417  0.2372  0.3345 -0.1741
10932TIP3    H154287   0.949   5.604  14.429  1.0927  0.3265  0.7620
10932TIP3    H254288   0.905   5.470  14.485 -0.3810  0.1419 -0.7765
10933TIP3   OH254289   0.570   5.711   6.145 -0.1622  0.2999  0.0134
10933TIP3    H154290   0.659   5.735   6.169 -0.0143  1.3499 -1.4246
10933TIP3    H254291   0.546   5.640   6.204  2.5441 -1.7764 -1.1870
10934TIP3   OH254292   4.104   3.776   1.820  0.6046 -0.2256 -0.6432
10934TIP3    H154293   4.191   3.739   1.837  0.7513 -0.8393 -2.5570
10934TIP3    H254294   4.121   3.862   1.782  0.2968  0.6348  1.0545
10935TIP3   OH254295   1.682   2.778   4.640 -0.0578 -0.3935  0.0381
10935TIP3    H154296   1.733   2.698   4.654  0.4932  0.0418  0.5272
10935TIP3    H254297   1.743   2.849   4.658 -0.6038  0.1386 -0.2022
10936TIP3   OH254298   4.002   3.458   4.265 -0.3393 -0.1776  0.6307
10936TIP3    H154299   4.004   3.498   4.352 -2.7010 -0.5134  0.8904
10936TIP3    H254300   3.909   3.447   4.245  0.1368 -3.0678 -0.5529
10937TIP3   OH254301   5.886   4.891   2.432  0.3967 -0.0394  0.2721
10937TIP3    H154302   5.893   4.971   2.484  1.7113  0.0871 -0.0480
10937TIP3    H254303   5.892   4.820   2.496 -0.8522  0.1098  0.5648
10938TIP3   OH254304   0.576   6.130  15.466  0.0005  0.6568 -0.2290
10938TIP3    H154305   0.600   6.217  15.498  1.5424  1.5289 -3.2929
10938TIP3    H254306   0.487   6.116  15.498  0.5276  2.3114  2.2626
10939TIP3   OH254307   4.918   1.014  11.923 -0.3478  0.0567 -0.3823
10939TIP3    H154308   4.925   0.920  11.906  1.6439  0.4669 -2.1859
10939TIP3    H254309   4.993   1.034  11.979 -0.6002  0.6257 -0.2368
10940TIP3   OH254310   5.821   5.786   1.502  0.5115 -0.0558 -0.3656
10940TIP3    H154311   5.737   5.831   1.495  1.1797  0.9953 -2.4132
10940TIP3    H254312   5.875   5.843   1.557  0.6119  0.4540 -0.9892
10941TIP3   OH254313   0.172   3.597  16.328 -0.0448 -0.4200  0.2330
10941TIP3    H154314   0.129   3.524  16.282 -1.5531  0.6770 -0.1979
10941TIP3    H254315   0.256   3.606  16.284 -0.3325 -1.1447 -0.5049
10942TIP3   OH254316   3.412   3.541  12.547  0.3094  0.0070  0.0683
10942TIP3    H154317   3.403   3.636  12.547 -0.1350  0.0061  2.4541
10942TIP3    H254318   3.482   3.523  12.610 -0.0233 -1.2850  0.1029
10943TIP3   OH254319   2.753   5.788   5.230 -0.6392  0.2473 -0.0939
10943TIP3    H154320   2.739   5.772   5.323  1.4471  2.4010  0.7030
10943TIP3    H254321   2.790   5.706   5.197 -1.3163 -0.5103  0.9730
10944TIP3   OH254322   5.250   4.456  16.083  0.3163 -0.3152  0.6601
10944TIP3    H154323   5.340   4.479  16.106  0.8278 -0.9504 -0.6593
10944TIP3    H254324   5.203   4.539  16.087  0.5702 -0.1993  2.9178
10945TIP3   OH254325   6.220   1.292  16.398 -0.3765 -0.5559 -0.2207
10945TIP3    H154326   6.225   1.230  16.325 -0.4322 -0.4339 -0.3277
10945TIP3    H254327   6.216   1.378  16.356  0.8224 -0.4048 -0.0577
10946TIP3   OH254328   5.243   3.901   4.805  0.0264  0.2610  0.3205
10946TIP3    H154329   5.170   3.962   4.819 -1.2134 -1.4364  1.5944
10946TIP3    H254330   5.294   3.906   4.886  1.8813  2.0093 -0.8380
10947TIP3   OH254331   5.408   0.021  11.983  1.0320  0.2395 -0.1530
10947TIP3    H154332   5.443   0.057  12.064  0.7219 -0.1602  0.1616
10947TIP3    H254333   5.315   0.045  11.984  0.8563 -0.4332 -0.0102
10948TIP3   OH254334   1.103   3.333   5.886  0.0136  0.0663  0.2833
10948TIP3    H154335   1.035   3.333   5.819  1.9294  3.8615 -1.9461
10948TIP3    H254336   1.167   3.268   5.856 -0.3593 -0.0964 -0.1610
10949TIP3   OH254337   4.177   5.902   0.625  0.0477 -0.6832 -0.3962
10949TIP3    H154338   4.134   5.951   0.694 -0.2088  1.2710 -1.8494
10949TIP3    H254339   4.117   5.830   0.605 -0.9857  0.0860 -0.1555
10950TIP3   OH254340   4.852   0.504   0.634  0.2622  0.7978 -0.0993
10950TIP3    H154341   4.814   0.438   0.692 -1.0285  0.0897 -1.6704
10950TIP3    H254342   4.867   0.459   0.551  0.5807  2.1479 -0.8201
10951TIP3   OH254343   3.861   3.248   5.125 -0.7612 -0.5185  0.2433
10951TIP3    H154344   3.880   3.155   5.129  1.3860 -0.1251  0.4006
10951TIP3    H254345   3.792   3.262   5.190  0.2214 -1.7138  1.5937
10952TIP3   OH254346   2.135   4.589   6.178 -0.6163 -0.1039 -0.4714
10952TIP3    H154347   2.109   4.586   6.270 -0.2417  2.1278 -0.2474
10952TIP3    H254348   2.220   4.545   6.175 -0.2079  0.6093  0.4095
10953TIP3   OH254349   4.374   4.846   1.934  0.1288  0.1991 -0.1590
10953TIP3    H154350   4.393   4.913   1.868 -1.9765 -0.4870 -1.5651
10953TIP3    H254351   4.322   4.892   2.000  3.3447  1.2250  1.8932
10954TIP3   OH254352   2.500   5.444  15.342 -0.0192 -0.7888  0.2567
10954TIP3    H154353   2.511   5.397  15.260  0.1297  0.2432 -0.3272
10954TIP3    H254354   2.489   5.375  15.408 -0.2573 -1.6229 -0.6360
10955TIP3   OH254355   3.225   4.730  13.859  0.0461  0.3754  0.3232
10955TIP3    H154356   3.230   4.823  13.883  1.7477 -0.3355  3.2249
10955TIP3    H254357   3.139   4.701  13.889  0.0261  0.7271  0.6090
10956TIP3   OH254358   3.389   4.413   5.314  0.5233 -0.4533  0.6806
10956TIP3    H154359   3.314   4.451   5.358  0.3387  0.0610 -0.0478
10956TIP3    H254360   3.454   4.400   5.383  0.8342  1.7780  0.8873
10957TIP3   OH254361   4.563   3.506  14.293 -0.2136  0.2266 -0.9104
10957TIP3    H154362   4.543   3.511  14.200  1.6081 -0.7388 -1.4038
10957TIP3    H254363   4.640   3.562  14.305 -0.3450  0.2423 -0.0085
10958TIP3   OH254364   0.162   3.222  16.755 -0.6208  0.3935  0.1076
10958TIP3    H154365   0.200   3.287  16.696  1.3634 -0.1065  0.7485
10958TIP3    H254366   0.126   3.155  16.697  2.2801 -0.6577 -0.6434
10959TIP3   OH254367   4.910   5.418   4.921  0.0592 -0.3119 -0.3988
10959TIP3    H154368   4.963   5.384   4.849  0.1659 -0.6666 -0.1553
10959TIP3    H254369   4.974   5.447   4.987 -0.0476 -1.2835  0.1455
10960TIP3   OH254370   5.415   2.308  14.889  0.1187  0.4613  0.2381
10960TIP3    H154371   5.455   2.394  14.875 -1.0360  1.2071  1.3068
10960TIP3    H254372   5.410   2.300  14.985  2.4540 -1.8900  0.2845
10961TIP3   OH254373   0.728   1.932   0.607  0.3370  0.5280  0.4916
10961TIP3    H154374   0.649   1.985   0.598 -0.2967 -0.6896 -2.0739
10961TIP3    H254375   0.703   1.846   0.573  2.8325  0.1772 -0.6732
10962TIP3   OH254376   4.107   6.081  12.468  0.6135 -0.0197 -0.4748
10962TIP3    H154377   4.101   6.124  12.554 -1.1612  0.0111 -0.5893
10962TIP3    H254378   4.158   6.002  12.485 -0.5026 -0.5003  0.8137
10963TIP3   OH254379   4.848   1.644   4.260 -0.4696 -1.1119 -0.1712
10963TIP3    H154380   4.845   1.587   4.183  1.3086 -1.6342  0.0984
10963TIP3    H254381   4.926   1.615   4.308 -0.3527  0.6029  0.7390
10964TIP3   OH254382   1.755   2.584  13.074  0.4388 -0.2980 -0.0124
10964TIP3    H154383   1.760   2.504  13.127 -0.7127 -0.5101 -0.1936
10964TIP3    H254384   1.666   2.584  13.039  1.2937 -0.4067 -2.3740
10965TIP3   OH254385   1.880   1.623  11.469  0.1366 -0.0655  0.3473
10965TIP3    H154386   1.916   1.549  11.517  0.3726  0.5187  1.0889
10965TIP3    H254387   1.949   1.649  11.408  0.3360  0.0132  0.6077
10966TIP3   OH254388   5.756   4.162  16.968  0.5489  0.0935  0.3804
10966TIP3    H154389   5.843   4.143  17.002  0.9100  1.0409  0.0183
10966TIP3    H254390   5.750   4.111  16.887  0.3344 -0.8369  0.9670
10967TIP3   OH254391   5.224   1.143   3.021  0.1755 -0.0064 -0.3903
10967TIP3    H154392   5.249   1.058   2.985 -0.6647 -0.4300 -0.0217
10967TIP3    H254393   5.247   1.207   2.954  0.3572 -0.5808 -0.8752
10968TIP3   OH254394   0.672   2.050  10.610 -0.5285  0.3988  0.2771
10968TIP3    H154395   0.704   2.100  10.535 -1.0334  1.2119  0.5868
10968TIP3    H254396   0.720   1.968  10.607  0.1773  0.8251 -0.3638
10969TIP3   OH254397   3.004   3.271   3.194 -0.1553 -0.0150  0.0946
10969TIP3    H154398   3.071   3.271   3.262 -0.8392  0.1882  0.7808
10969TIP3    H254399   3.036   3.332   3.128  2.2337 -2.7305 -1.5414
10970TIP3   OH254400   1.209   0.530   1.591  0.1518 -0.3097 -0.1586
10970TIP3    H154401   1.170   0.590   1.654  0.2109 -1.1501  0.7117
10970TIP3    H254402   1.275   0.582   1.545 -1.7061  1.0366 -1.4247
10971TIP3   OH254403   1.287   5.285   4.647  0.1414 -0.6063  0.1140
10971TIP3    H154404   1.268   5.379   4.650  2.6998  0.0547 -1.3617
10971TIP3    H254405   1.243   5.249   4.723  0.9153  2.1884  2.0369
10972TIP3   OH254406   3.913   0.742  11.916 -0.5547 -0.2509 -0.2163
10972TIP3    H154407   3.981   0.779  11.971 -1.6470  0.3379  0.7895
10972TIP3    H254408   3.836   0.738  11.973 -1.6564  0.1304 -1.6331
10973TIP3   OH254409   2.085   0.581  15.109 -0.1921 -0.0214 -0.5460
10973TIP3    H154410   2.161   0.624  15.149 -0.3762 -0.1266 -0.0700
10973TIP3    H254411   2.096   0.488  15.128 -1.7418  0.1996  1.8615
10974TIP3   OH254412   5.827   1.419  16.127  0.3607  0.3025 -0.1858
10974TIP3    H154413   5.849   1.466  16.207 -0.0401  0.5788 -0.2306
10974TIP3    H254414   5.844   1.327  16.147 -1.6926  0.0973  0.9339
10975TIP3   OH254415   3.004   3.652   5.730 -0.2978 -0.0089  0.1780
10975TIP3    H154416   3.039   3.565   5.717 -0.8575 -0.2096 -0.0445
10975TIP3    H254417   2.910   3.642   5.716 -0.4736  0.4700  0.9406
10976TIP3   OH254418   1.393   6.481  15.514  0.2787 -0.1089 -0.4744
10976TIP3    H154419   1.411   6.462  15.606 -0.2969  3.2804  0.4433
10976TIP3    H254420   1.319   6.425  15.492  0.6745 -1.2668  0.9636
10977TIP3   OH254421   2.150   4.468  15.952  0.1862 -0.2920  1.3060
10977TIP3    H154422   2.231   4.515  15.933  1.1956 -1.6696  1.9552
10977TIP3    H254423   2.100   4.527  16.008  0.9590  0.3930  1.2935
10978TIP3   OH254424   1.501   4.972   1.388  0.2449 -0.3217  0.1056
10978TIP3    H154425   1.434   5.040   1.393 -0.8949 -1.4130  0.2111
10978TIP3    H254426   1.524   4.954   1.479  2.0739  1.3252  0.0330
10979TIP3   OH254427   5.845   4.262   2.784 -0.2226 -0.2109  0.1262
10979TIP3    H154428   5.758   4.227   2.802 -0.5529  0.0743 -0.8299
10979TIP3    H254429   5.833   4.315   2.705  0.2501  2.0141  1.4703
10980TIP3   OH254430   4.779   5.611  14.162 -0.4882 -0.0838  0.3116
10980TIP3    H154431   4.760   5.517  14.166 -1.1180 -0.0655 -1.4921
10980TIP3    H254432   4.847   5.618  14.095  0.1839  0.6798  1.0555
10981TIP3   OH254433   1.291   0.962  11.567 -0.0901  0.1795  0.6486
10981TIP3    H154434   1.334   0.982  11.650 -0.0255 -0.3576  0.7516
10981TIP3    H254435   1.352   0.990  11.500  1.3558 -2.3516  0.7734
10982TIP3   OH254436   5.684   5.966   4.380 -0.7665 -0.2196 -0.1633
10982TIP3    H154437   5.707   6.029   4.311  0.6575 -1.1963 -0.6197
10982TIP3    H254438   5.764   5.956   4.431 -0.2963 -3.1185 -1.2901
10983TIP3   OH254439   3.178   5.324   5.686  0.1982 -0.9316  0.0287
10983TIP3    H154440   3.093   5.366   5.698  0.3808 -0.4435 -0.3210
10983TIP3    H254441   3.239   5.376   5.739  0.1978 -1.5775  0.6743
10984TIP3   OH254442   0.689   5.309   1.558 -0.3130  1.0100 -0.9019
10984TIP3    H154443   0.746   5.243   1.517  0.6016  1.3274 -0.1787
10984TIP3    H254444   0.600   5.278   1.541  0.0531  0.6959 -2.3875
10985TIP3   OH254445   3.494   2.414   1.555 -0.6956  0.3533  0.1203
10985TIP3    H154446   3.431   2.473   1.513  0.9704  1.7012 -0.6002
10985TIP3    H254447   3.559   2.473   1.594  0.2665 -0.9979  0.6170
10986TIP3   OH254448   2.285   1.499   5.689  0.5007 -0.5106 -0.0503
10986TIP3    H154449   2.219   1.439   5.653  1.2873 -0.7144 -1.2018
10986TIP3    H254450   2.293   1.473   5.781 -1.3713 -0.1577  0.2500
10987TIP3   OH254451   6.137   4.816  12.294  0.2814  0.3421  0.3158
10987TIP3    H154452   6.094   4.746  12.343  0.2468  1.3354  1.7718
10987TIP3    H254453   6.207   4.771  12.246  0.8943 -0.6085  1.9751
10988TIP3   OH254454   4.376   0.104  16.734 -0.0174  0.2699 -0.4365
10988TIP3    H154455   4.288   0.135  16.716  0.9685  3.3962 -0.4283
10988TIP3    H254456   4.419   0.177  16.778  2.9132 -0.7197 -1.3978
10989TIP3   OH254457   5.075   1.047   1.721  0.2056 -0.1127  0.2372
10989TIP3    H154458   5.155   1.017   1.764  0.0935 -1.0736 -0.2011
10989TIP3    H254459   5.104   1.078   1.635  0.0033 -1.2858 -0.2652
10990TIP3   OH254460   2.936   2.963   4.274 -0.0197  0.8215  0.0371
10990TIP3    H154461   2.954   2.944   4.365  0.9511  0.9520 -0.1184
10990TIP3    H254462   2.855   3.015   4.276 -1.4055 -1.2430  0.6205
10991TIP3   OH254463   3.936   2.379   3.565 -0.3624  0.3007  0.0338
10991TIP3    H154464   3.891   2.462   3.581  0.8397  0.8380  0.7943
10991TIP3    H254465   3.994   2.369   3.641 -0.1416 -0.9966 -0.2892
10992TIP3   OH254466   2.150   3.294   1.446  0.0641  0.4431  0.1100
10992TIP3    H154467   2.068   3.342   1.436 -0.4952 -0.5771 -0.3091
10992TIP3    H254468   2.199   3.345   1.511 -1.5892  0.1859  1.6584
10993TIP3   OH254469   6.615   3.148   4.246  0.1543 -0.2170 -0.3864
10993TIP3    H154470   6.693   3.096   4.265 -0.3170 -0.7976  0.0064
10993TIP3    H254471   6.606   3.207   4.321  1.0448  0.8971 -1.1220
10994TIP3   OH254472   3.073   2.769  14.305  0.4163  0.6687  0.1263
10994TIP3    H154473   3.060   2.761  14.210 -3.4433 -0.1138  0.5296
10994TIP3    H254474   3.036   2.855  14.327  0.7055  0.5844  0.9803
10995TIP3   OH254475   1.850   5.285  12.210  0.1287 -0.1835  0.0244
10995TIP3    H154476   1.768   5.316  12.247 -0.2103  0.0267 -0.8761
10995TIP3    H254477   1.918   5.333  12.258 -0.2707 -0.4020  0.8074
10996TIP3   OH254478   3.659   3.197   3.546 -0.2586  0.3724 -0.0712
10996TIP3    H154479   3.679   3.107   3.573 -1.4389  0.4414  1.1497
10996TIP3    H254480   3.677   3.198   3.452 -2.3487 -1.8119 -0.6049
10997TIP3   OH254481   3.154   1.828  17.054 -0.0012  0.5872 -0.2355
10997TIP3    H154482   3.137   1.792  17.141 -1.4251 -2.3978 -1.6172
10997TIP3    H254483   3.170   1.921  17.069 -1.0259  0.3366  3.0966
10998TIP3   OH254484   4.327   4.304  11.549  0.2178  0.3208 -0.2013
10998TIP3    H154485   4.338   4.308  11.644  2.8867 -0.2461 -0.4175
10998TIP3    H254486   4.352   4.391  11.518  1.2642 -0.0854 -0.5175
10999TIP3   OH254487   0.964   5.323  13.194 -0.4453 -0.3688 -0.0669
10999TIP3    H154488   1.053   5.330  13.162 -1.2038  0.9314 -2.1216
10999TIP3    H254489   0.950   5.404  13.244 -0.7718 -0.0944 -0.5964
11000TIP3   OH254490   1.720   1.315   4.980  0.5227 -0.1678 -0.0134
11000TIP3    H154491   1.741   1.228   5.013 -0.2288 -1.0898 -1.8303
11000TIP3    H254492   1.645   1.301   4.923  1.8160  1.2685 -2.1783
11001TIP3   OH254493   2.313   0.367   4.226 -0.6931 -0.7258  0.2524
11001TIP3    H154494   2.346   0.420   4.299 -2.4066 -1.0391  1.3132
11001TIP3    H254495   2.327   0.276   4.254 -0.8087 -0.8473 -0.0790
11002TIP3   OH254496   3.665   5.778  16.819  0.0337 -0.4177 -0.5794
11002TIP3    H154497   3.585   5.735  16.848  0.6538 -1.0650  0.2362
11002TIP3    H254498   3.635   5.850  16.764 -1.1449 -0.0325  0.5155
11003TIP3   OH254499   1.427   5.387  11.072 -0.3670 -0.3975  0.0548
11003TIP3    H154500   1.490   5.316  11.082  1.2926  0.8837 -0.8783
11003TIP3    H254501   1.449   5.427  10.988 -2.3252  0.2218 -0.2139
11004TIP3   OH254502   5.981   4.364  15.588 -0.1033  0.0442 -0.3385
11004TIP3    H154503   5.969   4.331  15.499  1.6850  2.0698 -1.4240
11004TIP3    H254504   5.892   4.386  15.617 -0.5875  1.0277 -2.3512
11005TIP3   OH254505   0.918   4.807  16.407 -0.1409  0.0099 -0.5770
11005TIP3    H154506   0.931   4.835  16.497  1.7038 -1.0163 -0.4610
11005TIP3    H254507   0.947   4.881  16.354  1.7158 -0.4488 -0.2807
11006TIP3   OH254508   0.650   1.800   4.918 -0.1298 -0.4575  0.1295
11006TIP3    H154509   0.736   1.832   4.945 -0.2680 -0.7519  0.9393
11006TIP3    H254510   0.646   1.710   4.950 -0.7810 -0.4146  0.1907
11007TIP3   OH254511   3.238   0.389   1.104 -0.5105 -0.1420  0.2096
11007TIP3    H154512   3.327   0.377   1.073 -0.7826  0.3528 -0.8078
11007TIP3    H254513   3.233   0.482   1.126 -0.1891 -0.5586  2.2418
11008TIP3   OH254514   1.602   3.173   1.233 -0.0224  0.0621 -0.0121
11008TIP3    H154515   1.576   3.172   1.325  1.0559  0.3953  0.3196
11008TIP3    H254516   1.696   3.192   1.235 -0.0652  0.5080 -1.2021
11009TIP3   OH254517   1.077   6.569   0.541 -0.2471  0.5942 -0.2505
11009TIP3    H154518   1.153   6.627   0.546 -0.0418  0.3826 -0.8211
11009TIP3    H254519   1.066   6.535   0.630  0.2053  0.7829 -0.1222
11010TIP3   OH254520   1.334   5.961   1.620 -0.5607  0.2315 -0.0251
11010TIP3    H154521   1.297   5.930   1.538  1.4315 -0.1656 -0.8451
11010TIP3    H254522   1.276   5.926   1.688 -0.6231 -1.9860 -1.1201
11011TIP3   OH254523   1.376   2.856  11.959  0.2498  0.7612  0.3362
11011TIP3    H154524   1.423   2.919  11.904  0.6891 -0.3176 -0.5484
11011TIP3    H254525   1.303   2.906  11.995  0.5038  1.7445 -0.4715
11012TIP3   OH254526   1.509   6.023  10.712 -0.5644  0.3929 -0.2592
11012TIP3    H154527   1.430   6.015  10.765 -0.4049 -0.7217 -0.1539
11012TIP3    H254528   1.578   6.044  10.775 -0.0440 -2.6115  0.3428
11013TIP3   OH254529   4.177   2.753   2.748 -0.1538 -0.6546 -0.4058
11013TIP3    H154530   4.167   2.847   2.762  1.0435 -0.4015 -1.0844
11013TIP3    H254531   4.268   2.735   2.770 -0.4274 -1.7062 -0.0716
11014TIP3   OH254532   1.602   1.572  12.597 -0.2519 -0.6468  0.0805
11014TIP3    H154533   1.521   1.523  12.610  0.4220 -1.9589 -0.3783
11014TIP3    H254534   1.659   1.542  12.668 -0.1523  0.2354  0.3810
11015TIP3   OH254535   4.000   0.056   3.954 -0.7476 -0.0561  0.0774
11015TIP3    H154536   3.994   0.031   4.047  2.1319 -0.2915  0.2785
11015TIP3    H254537   3.969   0.147   3.952  0.8854  0.5849  1.6364
11016TIP3   OH254538   3.728   5.967  16.095  0.7253 -0.0647  0.6046
11016TIP3    H154539   3.679   6.044  16.064 -0.2950 -0.5378  1.0172
11016TIP3    H254540   3.785   5.944  16.021 -1.2512 -0.8308 -0.7470
11017TIP3   OH254541   2.708   0.842  10.636  0.3864  0.0290 -0.0565
11017TIP3    H154542   2.706   0.937  10.644  0.3440 -0.1017  1.8323
11017TIP3    H254543   2.619   0.819  10.609  0.3494  0.5001 -0.3584
11018TIP3   OH254544   6.493   6.740   6.226  0.3051 -0.8765  0.1911
11018TIP3    H154545   6.510   6.811   6.288 -1.8568 -0.3149  0.2211
11018TIP3    H254546   6.556   6.672   6.249  0.7169  0.0189  1.8446
11019TIP3   OH254547   5.331   1.340  16.084  0.1469 -0.7286 -0.0692
11019TIP3    H154548   5.302   1.427  16.110  0.0022 -0.4832 -0.9997
11019TIP3    H254549   5.253   1.285  16.093 -0.5351 -0.1707 -2.1033
11020TIP3   OH254550   5.806   3.385  13.546  0.6235  0.0204 -0.0941
11020TIP3    H154551   5.806   3.346  13.459 -1.6522  0.7873 -0.5148
11020TIP3    H254552   5.830   3.476  13.532 -0.5935  0.3595 -0.0696
11021TIP3   OH254553   6.557   5.471  16.462  0.5255  0.3653 -0.3315
11021TIP3    H154554   6.549   5.549  16.518  1.6597  0.7216 -0.6292
11021TIP3    H254555   6.651   5.450  16.464  0.3207 -0.6433 -0.7322
11022TIP3   OH254556   1.492   2.122   1.758 -0.2567  0.4524  0.1275
11022TIP3    H154557   1.504   2.145   1.666 -2.2699  1.0129 -0.0297
11022TIP3    H254558   1.397   2.116   1.770 -0.0378  0.1728  2.1229
11023TIP3   OH254559   6.661   5.773   1.616 -0.4089 -0.5880  0.1297
11023TIP3    H154560   6.639   5.706   1.680 -0.4472 -1.4923 -0.7973
11023TIP3    H254561   6.577   5.812   1.591 -0.3192  0.3249  1.1993
11024TIP3   OH254562   1.125   3.431  16.722  0.4233 -0.3465  0.8719
11024TIP3    H154563   1.192   3.363  16.730 -0.5600 -1.3649  0.7105
11024TIP3    H254564   1.170   3.512  16.744  1.8637 -0.9202  0.1316
11025TIP3   OH254565   6.689   5.606   2.788  0.3197 -0.1788  0.8884
11025TIP3    H154566   6.668   5.698   2.802  0.9508  0.5319 -2.2171
11025TIP3    H254567   6.613   5.558   2.821 -0.7815  1.5560  0.9622
11026TIP3   OH254568   2.258   2.174   4.208 -0.2017 -0.1626  0.2615
11026TIP3    H154569   2.220   2.197   4.124  0.6168  6.0253  1.1511
11026TIP3    H254570   2.348   2.206   4.204 -0.0162  0.0333  3.3133
11027TIP3   OH254571   0.817   2.666   4.774 -0.0452  0.1713  0.4135
11027TIP3    H154572   0.812   2.680   4.869 -0.3582  0.2930  0.3787
11027TIP3    H254573   0.902   2.623   4.761 -0.4743 -0.8461  0.8740
11028TIP3   OH254574   3.004   5.547   0.229  0.3068  0.1129  0.3171
11028TIP3    H154575   3.044   5.464   0.203 -0.9305 -0.8058  1.2354
11028TIP3    H254576   2.911   5.535   0.211  0.0173  1.0191  1.1587
11029TIP3   OH254577   0.821   1.483  16.546  0.1488 -0.1933  0.1349
11029TIP3    H154578   0.828   1.520  16.458 -1.1385  0.2530  0.1972
11029TIP3    H254579   0.737   1.516  16.579  1.7645  1.9010  2.5633
11030TIP3   OH254580   1.470   0.715   5.650 -0.0219 -0.3021 -0.5763
11030TIP3    H154581   1.451   0.640   5.707 -2.1839  1.6063  1.4635
11030TIP3    H254582   1.407   0.706   5.578 -1.6529  0.5114  0.6939
11031TIP3   OH254583   5.706   0.007   1.017 -0.4475 -0.0755  0.0523
11031TIP3    H154584   5.744   0.086   0.979 -0.1717  0.1102  0.7092
11031TIP3    H254585   5.611   0.022   1.012 -0.4282 -0.1469 -0.7397
11032TIP3   OH254586   3.823   1.002  13.816 -0.2516 -0.9290 -0.1941
11032TIP3    H154587   3.789   0.942  13.749 -2.6801  0.6989 -0.5483
11032TIP3    H254588   3.803   1.090  13.782  1.7060  0.0785  1.0570
11033TIP3   OH254589   4.043   2.210  15.825 -0.1477 -0.2911 -0.1551
11033TIP3    H154590   4.071   2.290  15.870 -0.3362 -0.1316 -0.3188
11033TIP3    H254591   4.106   2.199  15.754 -0.0290 -0.3762 -0.0371
11034TIP3   OH254592   2.458   2.693  12.738  0.0313  0.0176 -0.3029
11034TIP3    H154593   2.455   2.742  12.820  0.9111 -0.0474 -0.2127
11034TIP3    H254594   2.376   2.712  12.694 -0.6201 -0.2565  0.7701
11035TIP3   OH254595   4.308   4.330  11.224  0.0112 -0.3537 -0.5653
11035TIP3    H154596   4.340   4.411  11.263  0.5713 -0.9411  0.2285
11035TIP3    H254597   4.281   4.355  11.135 -0.6250  0.8667 -0.0542
11036TIP3   OH254598   2.771   1.947  17.082 -0.3941 -0.2403 -0.7244
11036TIP3    H154599   2.865   1.935  17.067 -0.1714  1.3234 -0.8115
11036TIP3    H254600   2.738   1.860  17.104  1.1922 -0.7095 -0.0647
11037TIP3   OH254601   6.113   3.505  15.127 -0.2511 -0.0357  0.2656
11037TIP3    H154602   6.157   3.423  15.150  0.0768  0.3825  1.1957
11037TIP3    H254603   6.172   3.547  15.065 -1.2748 -1.3078 -1.6668
11038TIP3   OH254604   0.307   3.414   3.826 -0.0349 -0.4037  0.3488
11038TIP3    H154605   0.382   3.452   3.873 -0.0230  1.1657 -0.8519
11038TIP3    H254606   0.232   3.434   3.881 -0.1717  2.4007 -0.6887
11039TIP3   OH254607   2.059   3.341   2.527  0.1281 -0.0372  0.1154
11039TIP3    H154608   2.124   3.270   2.530 -0.2470 -0.4506 -0.9529
11039TIP3    H254609   2.023   3.336   2.438 -1.7967 -0.2172  0.8573
11040TIP3   OH254610   6.682   2.546   1.646  0.3424 -0.1686  0.3061
11040TIP3    H154611   6.590   2.561   1.623  0.1572 -0.9758  0.5055
11040TIP3    H254612   6.684   2.556   1.741  0.8875  1.9944  0.1256
11041TIP3   OH254613   2.968   6.080   3.439 -0.0411  0.0900  0.6715
11041TIP3    H154614   2.901   6.096   3.373  1.1292  0.7071 -0.4023
11041TIP3    H254615   2.952   6.147   3.506 -0.7484 -0.0419  0.6414
11042TIP3   OH254616   3.731   2.853  13.115 -0.3536 -0.2744  0.1093
11042TIP3    H154617   3.681   2.860  13.196 -0.6700 -0.2926 -0.0833
11042TIP3    H254618   3.806   2.911  13.127  1.9461 -3.3120  2.1273
11043TIP3   OH254619   5.330   5.778   1.643 -0.4578  0.0995 -0.5558
11043TIP3    H154620   5.296   5.700   1.599  0.1678 -0.6395  0.2457
11043TIP3    H254621   5.292   5.774   1.731 -0.5784  0.8122 -0.5697
11044TIP3   OH254622   5.816   1.591  13.155 -0.4035 -1.1572  0.3804
11044TIP3    H154623   5.749   1.653  13.125 -0.8379 -1.5627  0.4945
11044TIP3    H254624   5.786   1.506  13.123  0.3857 -1.2645 -0.0919
11045TIP3   OH254625   4.795   0.132   3.255  0.4611  0.0546 -0.0419
11045TIP3    H154626   4.703   0.133   3.227  1.0011  1.1839 -1.9600
11045TIP3    H254627   4.793   0.170   3.343 -1.1292 -2.1465  0.9722
11046TIP3   OH254628   3.759   2.870  14.251 -0.0127  0.3001  0.0786
11046TIP3    H154629   3.790   2.903  14.167 -0.1717  1.3283  0.4099
11046TIP3    H254630   3.771   2.943  14.312  0.7299 -0.6453  1.1019
11047TIP3   OH254631   5.938   5.662   6.391  0.5688 -0.6677 -0.2407
11047TIP3    H154632   5.943   5.696   6.480 -0.3605 -1.5854  0.1772
11047TIP3    H254633   5.858   5.700   6.355  0.6827 -0.6930 -0.5274
11048TIP3   OH254634   3.441   5.021   1.722 -0.9014  0.3420 -0.6222
11048TIP3    H154635   3.481   5.037   1.808 -1.7352 -1.4496  0.1451
11048TIP3    H254636   3.478   5.090   1.666  1.8607 -0.1146  0.4503
11049TIP3   OH254637   3.247   0.187  13.960 -0.4784 -0.2088  0.2583
11049TIP3    H154638   3.199   0.187  14.044  0.6616  2.3534  1.0212
11049TIP3    H254639   3.224   0.271  13.920  0.3223 -0.6639 -1.2207
11050TIP3   OH254640   5.010   2.012   0.840  0.0369  0.3645 -0.3236
11050TIP3    H154641   4.979   2.048   0.923  0.8928 -1.5497  0.8926
11050TIP3    H254642   5.105   2.009   0.849  0.0975 -0.4842 -1.0889
11051TIP3   OH254643   5.624   0.764   4.620  0.5077 -0.2895 -0.1700
11051TIP3    H154644   5.666   0.750   4.536  3.3297  1.1645  0.8931
11051TIP3    H254645   5.653   0.690   4.674 -0.3784 -0.6118 -0.1124
11052TIP3   OH254646   3.988   5.306  11.055  0.5284  0.0606  0.3166
11052TIP3    H154647   4.070   5.312  11.006  0.5246  1.3356  0.4125
11052TIP3    H254648   3.922   5.281  10.990  0.7120  0.6860 -0.1257
11053TIP3   OH254649   1.473   4.119   0.961  0.3726 -0.1495 -0.3018
11053TIP3    H154650   1.471   4.040   1.015  0.4078 -1.0479 -1.5692
11053TIP3    H254651   1.388   4.119   0.917  1.0207 -0.3944 -1.5743
11054TIP3   OH254652   0.163   3.864  12.661  0.2070  0.1809 -0.4134
11054TIP3    H154653   0.258   3.875  12.674  0.1292 -0.9888  1.6641
11054TIP3    H254654   0.126   3.949  12.683  0.6591  0.1308  0.5955
11055TIP3   OH254655   2.170   2.035  17.238  0.0656  0.0563 -0.2872
11055TIP3    H154656   2.243   1.998  17.287  0.3783  1.1138  0.0770
11055TIP3    H254657   2.097   1.975  17.254  1.1140 -1.6907 -1.6353
11056TIP3   OH254658   0.597   6.087   0.078  0.5546  0.3449 -0.0904
11056TIP3    H154659   0.526   6.023   0.069 -0.3557  1.1464  0.9579
11056TIP3    H254660   0.653   6.072   0.002 -1.1091  0.1345 -1.3366
11057TIP3   OH254661   6.085   1.967   4.353 -0.0072  0.1502  0.0344
11057TIP3    H154662   6.034   1.893   4.386  0.1982 -0.1176 -0.2410
11057TIP3    H254663   6.170   1.959   4.397  0.7473 -0.9872 -1.5162
11058TIP3   OH254664   6.349   4.544  13.434  0.1021 -0.5709  0.3427
11058TIP3    H154665   6.408   4.475  13.405 -0.6446 -0.9430 -0.3307
11058TIP3    H254666   6.296   4.502  13.502 -0.7834 -0.8742 -0.5099
11059TIP3   OH254667   1.796   3.985   4.367  0.0140  0.3290  0.1474
11059TIP3    H154668   1.749   4.063   4.396  1.1360  1.3470 -0.6535
11059TIP3    H254669   1.835   4.011   4.283  2.4147 -0.2643  1.0122
11060TIP3   OH254670   3.728   3.942  13.501  0.6578  0.3484  0.1684
11060TIP3    H154671   3.815   3.913  13.475 -0.5682 -0.8375 -3.0496
11060TIP3    H254672   3.706   4.011  13.439 -1.8998 -1.6127 -1.2779
11061TIP3   OH254673   3.153   5.045  12.486  0.1190 -0.2265 -0.5899
11061TIP3    H154674   3.179   4.961  12.447 -0.0895 -0.3761 -0.4097
11061TIP3    H254675   3.234   5.079  12.525  0.0921 -0.5910 -0.2111
11062TIP3   OH254676   5.438   1.385   1.767  0.1704  0.5711  0.4179
11062TIP3    H154677   5.409   1.472   1.795  1.8975  1.2120  0.3187
11062TIP3    H254678   5.445   1.390   1.672  0.0422  0.2447  0.3880
11063TIP3   OH254679   1.604   3.164   4.467  0.3681  0.4063 -0.2908
11063TIP3    H154680   1.562   3.080   4.451 -1.1003  0.8179  1.0942
11063TIP3    H254681   1.563   3.224   4.405 -1.5328  0.8898  1.3013
11064TIP3   OH254682   3.874   2.118   4.373 -0.3155 -0.1976 -0.5042
11064TIP3    H154683   3.911   2.048   4.427  1.5152  1.0431 -0.0488
11064TIP3    H254684   3.949   2.175   4.354 -1.7753  1.7735 -0.6211
11065TIP3   OH254685   5.104   5.172  13.473 -0.1762 -1.2088 -0.3188
11065TIP3    H154686   5.186   5.210  13.505 -0.8771  2.8976 -2.7129
11065TIP3    H254687   5.132   5.110  13.405  0.9846 -1.4320  0.3353
11066TIP3   OH254688   0.919   3.989  11.341  0.5545  0.2392  0.1717
11066TIP3    H154689   0.933   3.947  11.256 -0.4337 -1.1898  0.6739
11066TIP3    H254690   0.989   4.055  11.348  1.8399 -0.9643 -0.8909
11067TIP3   OH254691   4.257   2.352   0.346 -0.2553  0.5080  0.6390
11067TIP3    H154692   4.199   2.426   0.366  1.3317  2.4731 -1.4652
11067TIP3    H254693   4.338   2.373   0.393  0.4437  0.4921 -0.5373
11068TIP3   OH254694   2.394   5.864   1.426 -0.0192 -0.1447 -0.0163
11068TIP3    H154695   2.367   5.928   1.360 -0.7420  0.0681  0.4754
11068TIP3    H254696   2.474   5.825   1.390 -1.5957 -1.6860 -2.0816
11069TIP3   OH254697   1.267   3.661   6.783 -0.1564 -0.4438 -0.3770
11069TIP3    H154698   1.296   3.748   6.756 -1.0638 -0.0000  0.0069
11069TIP3    H254699   1.175   3.673   6.807  0.0128 -1.2680  0.7845
11070TIP3   OH254700   3.430   1.773  15.863  0.3498 -0.9150 -0.3958
11070TIP3    H154701   3.342   1.810  15.874  0.6213  0.1531 -1.5833
11070TIP3    H254702   3.475   1.794  15.945 -0.5191 -1.6086  0.2906
11071TIP3   OH254703   1.319   1.562  15.815  0.2821 -0.3322 -0.5496
11071TIP3    H154704   1.407   1.527  15.830 -0.2068 -1.7172 -0.7753
11071TIP3    H254705   1.261   1.487  15.826 -0.8015  0.3577 -1.3160
11072TIP3   OH254706   2.468   2.880   1.562  0.6635 -0.4507  0.7621
11072TIP3    H154707   2.533   2.937   1.520 -0.2789 -0.3011 -0.5581
11072TIP3    H254708   2.483   2.794   1.523 -0.4032 -0.2508 -0.1236
11073TIP3   OH254709   2.014   6.044   3.583  0.0208 -0.3281 -0.3239
11073TIP3    H154710   2.077   6.016   3.649  0.4567 -0.2272 -0.7009
11073TIP3    H254711   1.945   6.088   3.634  1.1456  1.1961 -0.0686
11074TIP3   OH254712   0.403   4.626   5.471  0.2740 -0.5115  0.5751
11074TIP3    H154713   0.441   4.590   5.390 -1.3465 -0.2740 -0.3272
11074TIP3    H254714   0.310   4.607   5.465  0.0151  0.1326  2.0790
11075TIP3   OH254715   0.651   0.801  14.700  0.1364  0.5439  0.1751
11075TIP3    H154716   0.702   0.807  14.780 -0.0174  1.2751  0.2240
11075TIP3    H254717   0.622   0.891  14.683  1.9331  0.8216 -1.8643
11076TIP3   OH254718   3.463   1.729   4.132 -0.0250 -0.1421  0.0006
11076TIP3    H154719   3.529   1.774   4.078 -1.8181 -0.2436 -2.4511
11076TIP3    H254720   3.513   1.661   4.178  1.6438 -0.0601 -1.5503
11077TIP3   OH254721   1.808   2.194  12.913  0.3022  0.0440  0.3369
11077TIP3    H154722   1.750   2.182  12.838 -1.3012 -1.2723  1.7015
11077TIP3    H254723   1.846   2.280  12.900 -0.5262  0.1807 -1.5727
11078TIP3   OH254724   5.427   3.655  15.880 -0.0870 -0.7037 -0.0658
11078TIP3    H154725   5.494   3.723  15.883 -0.4171 -0.3832  0.2379
11078TIP3    H254726   5.364   3.686  15.814 -0.5033 -0.4537  0.4393
11079TIP3   OH254727   2.244   6.004  10.864 -0.1978 -0.2578 -0.2668
11079TIP3    H154728   2.252   6.098  10.881  0.5763 -0.1276 -1.1942
11079TIP3    H254729   2.207   5.967  10.944  0.9569  0.6243  0.7183
11080TIP3   OH254730   6.064   6.512   0.670 -0.0158 -0.0543 -0.4654
11080TIP3    H154731   5.997   6.573   0.702 -1.0560 -1.0097 -0.7686
11080TIP3    H254732   6.103   6.475   0.748  0.8108  1.1614 -0.2663
11081TIP3   OH254733   2.507   2.717  12.090  1.0357 -0.5183  0.2910
11081TIP3    H154734   2.559   2.640  12.110  1.8197  0.2412  1.2851
11081TIP3    H254735   2.551   2.789  12.136  0.6009  0.6134 -0.9829
11082TIP3   OH254736   2.773   4.770   1.685  0.0091  0.0859  0.4738
11082TIP3    H154737   2.839   4.804   1.745  0.7905 -0.3167 -0.1343
11082TIP3    H254738   2.788   4.675   1.685 -0.9155 -0.0667  0.7251
11083TIP3   OH254739   6.356   4.037  13.155 -0.1947  0.2629  0.4262
11083TIP3    H154740   6.319   3.960  13.113  1.6610 -0.4807  0.0838
11083TIP3    H254741   6.423   4.068  13.094  2.1360 -0.4611  2.4817
11084TIP3   OH254742   0.990   1.618  12.394  0.3701  0.2466 -0.6083
11084TIP3    H154743   0.917   1.563  12.366 -0.4473  1.4049 -0.8264
11084TIP3    H254744   0.951   1.680  12.456  1.4312  0.0783  0.2743
11085TIP3   OH254745   4.715   0.697  14.059  0.1982  0.2280  0.3046
11085TIP3    H154746   4.731   0.658  14.145 -1.4744  0.6753  0.8491
11085TIP3    H254747   4.624   0.676  14.040  0.3747  0.6528 -1.0964
11086TIP3   OH254748   2.073   4.302   1.727 -0.6006 -0.6552  0.6387
11086TIP3    H154749   2.161   4.337   1.713 -0.7782 -0.5333 -0.1813
11086TIP3    H254750   2.021   4.377   1.755 -1.4354  0.2568 -2.8899
11087TIP3   OH254751   5.423   2.588   4.744 -0.0648 -0.7848 -0.1233
11087TIP3    H154752   5.410   2.532   4.820  2.3188 -0.6069  0.5147
11087TIP3    H254753   5.384   2.672   4.768 -1.1174 -1.3167  0.0629
11088TIP3   OH254754   6.335   5.117  12.263 -0.1953  0.0244 -0.0700
11088TIP3    H154755   6.352   5.047  12.327 -0.2357  0.0479 -0.0336
11088TIP3    H254756   6.332   5.197  12.315  0.8133  0.1792 -0.2428
11089TIP3   OH254757   3.488   4.566   5.113 -0.4963  0.3494 -0.1496
11089TIP3    H154758   3.447   4.528   5.190 -0.5421  0.2524 -0.2214
11089TIP3    H254759   3.438   4.531   5.039  0.6302 -0.9716 -0.3393
11090TIP3   OH254760   4.347   0.157  12.670  0.5168  0.0351 -0.0696
11090TIP3    H154761   4.281   0.175  12.737  0.1597 -2.0924  0.2189
11090TIP3    H254762   4.310   0.193  12.589 -0.9924 -1.0630  0.0969
11091TIP3   OH254763   3.795   5.079   0.988  0.2548  0.2078 -0.4194
11091TIP3    H154764   3.889   5.093   1.001  0.3618 -0.1605 -0.7555
11091TIP3    H254765   3.772   5.010   1.051 -0.0835  1.2382  0.6151
11092TIP3   OH254766   3.570   3.174  13.294 -0.1783 -0.4020  0.2835
11092TIP3    H154767   3.504   3.105  13.297  1.0370 -1.6134  0.0831
11092TIP3    H254768   3.559   3.213  13.207 -0.2687 -0.9685  0.0349
11093TIP3   OH254769   1.973   3.981   6.127  0.1574  0.0046 -0.1026
11093TIP3    H154770   1.906   4.018   6.186 -0.5069  0.3709 -1.0653
11093TIP3    H254771   2.054   4.024   6.155 -0.2079  0.4464  0.3200
11094TIP3   OH254772   2.365   3.292  14.025  0.3838 -0.2088 -0.0454
11094TIP3    H154773   2.442   3.337  13.990  0.0948  1.9244  1.8511
11094TIP3    H254774   2.401   3.221  14.079  0.9126 -0.7504 -1.0715
11095TIP3   OH254775   6.098   1.674  16.207 -0.3554 -0.1051 -0.2304
11095TIP3    H154776   6.161   1.608  16.234 -1.7337 -0.3214  2.8412
11095TIP3    H254777   6.013   1.634  16.223 -1.2644  1.3471 -1.1938
11096TIP3   OH254778   0.725   3.761  11.163  0.1197 -0.8156 -0.4796
11096TIP3    H154779   0.728   3.832  11.099  0.1015 -0.6830 -0.3329
11096TIP3    H254780   0.811   3.719  11.155  0.9467  0.5036  0.8818
11097TIP3   OH254781   5.625   4.085   3.130 -0.3813  0.1539  0.0190
11097TIP3    H154782   5.542   4.107   3.171 -0.4638  0.7395 -0.4484
11097TIP3    H254783   5.663   4.170   3.107  1.4289  0.0682  2.3089
11098TIP3   OH254784   6.304   1.501  16.180  0.4977  0.1378 -0.1921
11098TIP3    H154785   6.384   1.553  16.190  0.5408  0.2936 -1.2421
11098TIP3    H254786   6.320   1.448  16.101  0.3845 -1.3355  0.7446
11099TIP3   OH254787   4.207   1.821   2.924  0.6821 -0.6577 -0.5079
11099TIP3    H154788   4.221   1.731   2.895  3.4398 -0.1628 -1.0057
11099TIP3    H254789   4.283   1.869   2.890  0.8361  1.2686  2.2290
11100TIP3   OH254790   1.461   4.807   0.722 -0.3785 -0.1756 -0.6150
11100TIP3    H154791   1.482   4.723   0.682 -0.9458 -2.5304  3.4575
11100TIP3    H254792   1.371   4.796   0.754  0.2568  1.1374  1.8417
11101TIP3   OH254793   1.379   5.215   0.880  0.4923 -0.1638 -0.2275
11101TIP3    H154794   1.377   5.257   0.966  0.5211  0.5766 -0.5860
11101TIP3    H254795   1.457   5.160   0.883  0.6539  0.0765  0.1206
11102TIP3   OH254796   3.203   1.058  12.330  0.0683 -0.2492 -0.0345
11102TIP3    H154797   3.202   0.980  12.274 -1.4711  0.7770 -1.5228
11102TIP3    H254798   3.126   1.108  12.303  1.3525  2.1081  0.4373
11103TIP3   OH254799   2.415   2.765   3.925  0.0847  0.3794  0.0934
11103TIP3    H154800   2.424   2.759   3.830  0.4748  1.6820  0.0365
11103TIP3    H254801   2.440   2.854   3.946  0.2050  0.0440  1.4524
11104TIP3   OH254802   3.441   5.891   0.389 -0.6264 -0.3466  0.4175
11104TIP3    H154803   3.384   5.818   0.417 -0.8636 -0.4964 -0.4273
11104TIP3    H254804   3.499   5.852   0.323  0.3798 -0.1585  1.1707
11105TIP3   OH254805   0.378   4.133   1.822  0.0180 -0.5325 -0.2081
11105TIP3    H154806   0.467   4.166   1.825  0.0724 -0.6938 -0.0402
11105TIP3    H254807   0.370   4.077   1.900 -0.6916  0.6578  0.6121
11106TIP3   OH254808   0.230   4.987  13.025  0.1389  0.4742  0.7173
11106TIP3    H154809   0.289   5.054  12.993 -0.4138 -0.1986 -1.9521
11106TIP3    H254810   0.288   4.920  13.063  0.9444  0.7371 -0.0237
11107TIP3   OH254811   4.468   2.300   4.681 -0.2414  0.2546 -0.1452
11107TIP3    H154812   4.392   2.244   4.663  1.5665 -3.1182  1.6394
11107TIP3    H254813   4.510   2.311   4.596 -0.7492 -1.0373 -0.5967
11108TIP3   OH254814   4.110   1.585  12.166 -0.3811  0.0841 -0.3383
11108TIP3    H154815   4.069   1.499  12.174 -3.9541  1.7836  1.8294
11108TIP3    H254816   4.077   1.620  12.083  0.0080 -0.1267 -0.5822
11109TIP3   OH254817   5.093   3.400  14.488  0.7506  0.6982  0.2334
11109TIP3    H154818   5.139   3.376  14.408  0.3656  2.5104 -0.5706
11109TIP3    H254819   5.005   3.425  14.459 -0.8173 -2.4985  1.7023
11110TIP3   OH254820   0.367   6.578   5.318 -0.3652 -0.0700 -0.1358
11110TIP3    H154821   0.463   6.578   5.327 -0.3915 -2.5137  0.9969
11110TIP3    H254822   0.341   6.490   5.345 -2.9207  0.4032 -0.8432
11111TIP3   OH254823   1.410   2.576   5.781  0.0871 -1.0844 -0.1536
11111TIP3    H154824   1.337   2.626   5.744 -0.5854 -1.4627  0.6403
11111TIP3    H254825   1.456   2.639   5.837 -1.4690 -1.5992  1.8177
11112TIP3   OH254826   6.548   6.813  14.601  0.0576  0.0767  0.1247
11112TIP3    H154827   6.557   6.866  14.680 -0.8755  0.9565 -0.3432
11112TIP3    H254828   6.636   6.808  14.565  0.0160  2.2406 -0.3989
11113TIP3   OH254829   2.851   4.816   4.097 -0.0221  0.5658  0.0058
11113TIP3    H154830   2.936   4.814   4.141 -0.3456  0.8712  0.6537
11113TIP3    H254831   2.870   4.794   4.006  0.5576 -0.8926  0.4556
11114TIP3   OH254832   0.305   0.078  14.507 -0.0148 -0.8220 -0.0867
11114TIP3    H154833   0.261   0.129  14.575 -0.4338 -0.5413 -0.5549
11114TIP3    H254834   0.250   0.090  14.429  0.0104 -1.8009 -0.2696
11115TIP3   OH254835   0.316   1.311  12.102 -0.0773  0.1566  0.6494
11115TIP3    H154836   0.304   1.276  12.014  0.4000  0.8393  0.3024
11115TIP3    H254837   0.228   1.331  12.132 -0.1361  1.8723 -0.5078
11116TIP3   OH254838   3.135   3.292  14.405 -0.2129 -0.3845  0.1066
11116TIP3    H154839   3.178   3.351  14.343 -1.0186 -0.6021 -0.6933
11116TIP3    H254840   3.042   3.297  14.381 -0.7661  0.6385  2.2416
11117TIP3   OH254841   0.297   1.608  15.471 -0.1479 -0.1933 -0.2445
11117TIP3    H154842   0.280   1.650  15.386 -0.1911  0.4967  0.1024
11117TIP3    H254843   0.386   1.576  15.464  0.2237  0.7964 -0.1791
11118TIP3   OH254844   4.561   0.866  12.553  0.2915  0.2975  0.3646
11118TIP3    H154845   4.529   0.776  12.567  0.1288  0.2037 -0.5077
11118TIP3    H254846   4.552   0.908  12.638  2.3881 -1.1125  1.3788
11119TIP3   OH254847   6.485   4.718   2.277  0.1609  0.2524  0.0376
11119TIP3    H154848   6.420   4.659   2.317  0.1477  1.2818  1.6266
11119TIP3    H254849   6.568   4.673   2.291 -0.1116 -0.7898 -1.4723
11120TIP3   OH254850   4.087   1.281  11.859 -0.0713  0.1484 -0.1409
11120TIP3    H154851   4.027   1.233  11.803  1.8200  0.1906 -2.3373
11120TIP3    H254852   4.056   1.371  11.857  0.4683  0.3382 -1.9633
11121TIP3   OH254853   5.370   1.219   1.982  0.0534  0.4377  0.7192
11121TIP3    H154854   5.358   1.126   1.962 -1.8443  0.4635  1.4849
11121TIP3    H254855   5.419   1.254   1.908  2.8189 -1.5910  1.4383
11122TIP3   OH254856   5.311   3.513   1.014  0.3861  0.2305  0.2331
11122TIP3    H154857   5.255   3.574   0.966 -1.0626 -0.1143  1.4277
11122TIP3    H254858   5.377   3.569   1.054  2.6000  0.4220 -3.2121
11123TIP3   OH254859   2.126   6.603   4.238 -0.5340 -0.2589  0.0878
11123TIP3    H154860   2.134   6.628   4.331 -3.1429  0.1449  0.2794
11123TIP3    H254861   2.035   6.624   4.216  0.8353  2.8324 -3.5401
11124TIP3   OH254862   2.362   5.654   3.404  0.2777  0.0320  0.6524
11124TIP3    H154863   2.284   5.703   3.429 -0.3969  0.0721 -1.3816
11124TIP3    H254864   2.342   5.563   3.429 -1.4681 -0.3889 -1.8675
11125TIP3   OH254865   4.766   4.599  11.056  0.0450 -0.6011  0.3042
11125TIP3    H154866   4.856   4.568  11.048 -0.6221 -2.3860 -0.8347
11125TIP3    H254867   4.729   4.549  11.128 -0.3422 -0.6713  0.0611
11126TIP3   OH254868   2.460   2.684  14.508 -0.0739 -0.2959  0.4695
11126TIP3    H154869   2.495   2.602  14.473  0.3336 -0.3765  1.0387
11126TIP3    H254870   2.494   2.688  14.598  0.6669  0.9409  0.1629
11127TIP3   OH254871   6.064   2.553  16.120  0.3759 -0.1030  0.6511
11127TIP3    H154872   6.078   2.547  16.214  0.2124  1.2433  0.7912
11127TIP3    H254873   6.047   2.463  16.092 -2.6414 -0.2417  2.4251
11128TIP3   OH254874   1.984   5.517   2.772  0.1102 -0.2366  0.1848
11128TIP3    H154875   1.911   5.456   2.783 -1.2639  1.2821 -0.1853
11128TIP3    H254876   2.026   5.520   2.858  0.6208 -2.1491  0.0586
11129TIP3   OH254877   5.004   2.187  16.643  0.7603  0.0155  0.1949
11129TIP3    H154878   4.948   2.264  16.632  0.7331 -0.0807 -0.3463
11129TIP3    H254879   5.077   2.218  16.697  1.4341  0.7697 -1.0931
11130TIP3   OH254880   3.180   0.731  11.036  0.5517  0.1676 -0.2321
11130TIP3    H154881   3.153   0.791  11.105  0.0300 -2.6428  2.1988
11130TIP3    H254882   3.110   0.736  10.971 -2.1340 -1.3299  2.3004
11131TIP3   OH254883   6.579   5.285  15.452 -0.2649 -0.2312  0.1649
11131TIP3    H154884   6.629   5.208  15.479 -1.4128 -1.0904 -0.0890
11131TIP3    H254885   6.602   5.298  15.360 -0.4790 -0.5975  0.0595
11132TIP3   OH254886   0.642   1.250   0.636  0.6304 -0.7554  0.0332
11132TIP3    H154887   0.679   1.170   0.597  0.2762 -2.1464  2.3453
11132TIP3    H254888   0.698   1.268   0.711  0.1843  0.7112  0.0423
11133TIP3   OH254889   2.257   3.200  10.461  0.3496 -0.1208  0.9136
11133TIP3    H154890   2.247   3.253  10.382 -0.5366 -0.7061  0.6180
11133TIP3    H254891   2.175   3.150  10.466  0.5329 -0.3203  2.0287
11134TIP3   OH254892   0.328   1.937  17.023  0.4672 -0.5809 -0.2216
11134TIP3    H154893   0.294   2.001  16.961 -2.7355 -1.3906  0.5078
11134TIP3    H254894   0.271   1.945  17.100  2.4335 -1.6398  1.4714
11135TIP3   OH254895   3.955   5.707  15.340  0.3805  0.1208  0.2132
11135TIP3    H154896   3.961   5.661  15.256 -1.1064  0.9129 -0.3713
11135TIP3    H254897   4.018   5.779  15.332 -0.1616  0.5348 -0.4739
11136TIP3   OH254898   0.303   3.799   0.493 -0.1111  0.0235  0.2516
11136TIP3    H154899   0.262   3.731   0.439  0.0372 -0.5518  0.8454
11136TIP3    H254900   0.303   3.877   0.438 -1.8257  0.0025  0.1523
11137TIP3   OH254901   3.539   0.020   3.923  0.4421 -0.0696  0.2693
11137TIP3    H154902   3.586   0.056   3.999  0.6620 -2.0259  1.1159
11137TIP3    H254903   3.598  -0.048   3.890 -0.1936 -0.0425 -0.9351
11138TIP3   OH254904   5.255   6.322   0.996  0.3416 -0.2509  0.2406
11138TIP3    H154905   5.338   6.274   0.989  0.9734  0.7142  0.8536
11138TIP3    H254906   5.277   6.412   0.969 -0.2028  0.3281  1.6150
11139TIP3   OH254907   3.084   5.627   0.490  0.2376 -0.0165  0.0993
11139TIP3    H154908   3.077   5.598   0.399  0.7782  2.3451 -0.7546
11139TIP3    H254909   3.174   5.608   0.515  0.6847  1.1779 -0.5618
11140TIP3   OH254910   5.142   4.811  14.585 -0.0301 -0.0215  0.5179
11140TIP3    H154911   5.130   4.736  14.527  0.8863 -0.4705  0.9023
11140TIP3    H254912   5.095   4.787  14.665 -0.2609  0.0883  0.4195
11141TIP3   OH254913   4.140   6.020  15.627  0.2478  0.2132 -0.6668
11141TIP3    H154914   4.148   6.115  15.638  1.6462  0.0316  0.1249
11141TIP3    H254915   4.070   6.009  15.563 -0.9857  1.7279  0.3376
11142TIP3   OH254916   2.010   0.361   2.609  0.0919 -0.2528 -0.0260
11142TIP3    H154917   1.916   0.344   2.623  0.0327 -0.6851 -0.9085
11142TIP3    H254918   2.049   0.351   2.695 -0.5284 -1.0630  0.1746
11143TIP3   OH254919   5.107   0.882   4.662 -0.5008 -0.1833  0.9220
11143TIP3    H154920   5.047   0.809   4.648 -1.1661  0.5261 -0.1151
11143TIP3    H254921   5.194   0.844   4.655 -0.8384 -0.8729  0.3518
11144TIP3   OH254922   4.440   2.569   0.254 -0.1348  0.6720 -0.0433
11144TIP3    H154923   4.389   2.603   0.328  0.3841  0.7992  0.2615
11144TIP3    H254924   4.396   2.604   0.177 -1.0875 -0.0167  0.1710
11145TIP3   OH254925   0.835   0.222   2.961  0.4159  0.0318  0.2001
11145TIP3    H154926   0.776   0.287   2.999  0.2296  0.1885 -0.3545
11145TIP3    H254927   0.835   0.241   2.868  0.8204 -0.3965  0.1089
11146TIP3   OH254928   6.611   3.624   2.841  0.1295 -0.1420  0.6011
11146TIP3    H154929   6.582   3.534   2.856  1.3087 -0.7736 -0.7004
11146TIP3    H254930   6.533   3.668   2.808 -0.0570 -1.1308 -0.3358
11147TIP3   OH254931   5.096   0.488  13.621 -0.4719 -0.1200 -0.7934
11147TIP3    H154932   5.143   0.515  13.542 -0.2858  1.6130 -0.1506
11147TIP3    H254933   5.100   0.565  13.678  0.1129 -1.5824  1.2506
11148TIP3   OH254934   2.773   3.705   1.792 -0.0131  0.0298 -0.0953
11148TIP3    H154935   2.803   3.628   1.744 -0.8130 -1.2700  1.3885
11148TIP3    H254936   2.850   3.762   1.795  0.7509 -0.9081 -0.8438
11149TIP3   OH254937   0.930   1.365   5.674  0.1872 -0.0822  0.4967
11149TIP3    H154938   0.888   1.281   5.695 -2.4993  1.1093  0.2745
11149TIP3    H254939   0.870   1.431   5.708  0.6368  1.7897 -2.0356
11150TIP3   OH254940   5.239   2.745   4.212  0.3204  0.2100 -0.1703
11150TIP3    H154941   5.224   2.779   4.124  0.5690  1.1176  0.1219
11150TIP3    H254942   5.151   2.736   4.249  0.2696  1.6598  0.1362
11151TIP3   OH254943   6.572   3.844   5.292  0.2348  0.1473 -0.5682
11151TIP3    H154944   6.522   3.807   5.365  0.8437  2.2387  1.0211
11151TIP3    H254945   6.505   3.879   5.233 -0.2795  1.3486  0.6622
11152TIP3   OH254946   6.497   5.720   1.978  0.3855 -0.3174  0.5123
11152TIP3    H154947   6.559   5.664   1.932 -0.1792 -0.3513 -0.2241
11152TIP3    H254948   6.508   5.698   2.071  1.4274 -0.3580  0.3909
11153TIP3   OH254949   1.895   1.217  16.019 -0.1953 -0.2733 -0.4899
11153TIP3    H154950   1.900   1.143  15.959  2.7856  0.7573 -1.6981
11153TIP3    H254951   1.914   1.294  15.965  1.8376  0.7925  1.5637
11154TIP3   OH254952   6.521   5.614   2.223 -0.3026 -0.4058 -0.3404
11154TIP3    H154953   6.576   5.536   2.224 -1.7659 -1.4687  0.5086
11154TIP3    H254954   6.531   5.652   2.310 -0.4340 -0.2470 -0.3931
11155TIP3   OH254955   4.786   0.812   3.896  0.1935 -0.2525  0.4778
11155TIP3    H154956   4.737   0.856   3.966  1.1936  1.7481 -0.0011
11155TIP3    H254957   4.752   0.852   3.816  1.9008  0.4803  0.0901
11156TIP3   OH254958   3.759   5.695   2.446 -0.0203  0.1601 -0.5321
11156TIP3    H154959   3.820   5.733   2.510 -0.5962 -0.0384  0.1395
11156TIP3    H254960   3.801   5.711   2.361  0.4099  1.0679 -0.1616
11157TIP3   OH254961   4.519   1.464   5.238  0.9056  0.0507 -0.2927
11157TIP3    H154962   4.545   1.385   5.191  2.1620  0.3798 -0.1820
11157TIP3    H254963   4.593   1.524   5.226  0.7154  0.5828  1.0592
11158TIP3   OH254964   3.840   4.640  11.156 -0.3616 -0.2155 -0.2099
11158TIP3    H154965   3.810   4.579  11.224 -0.4635 -0.9162 -0.8693
11158TIP3    H254966   3.822   4.595  11.073 -0.5311  0.7638 -0.7169
11159TIP3   OH254967   3.597   2.120  16.833  0.0034 -0.1709  0.7902
11159TIP3    H154968   3.645   2.202  16.841 -0.6416  0.4202 -0.9575
11159TIP3    H254969   3.577   2.094  16.923  2.3782  0.2597  1.4893
11160TIP3   OH254970   6.346   3.761   0.528  0.0422 -0.3890  0.1109
11160TIP3    H154971   6.282   3.780   0.596 -1.1009 -1.6873 -0.5652
11160TIP3    H254972   6.348   3.665   0.523  1.4779 -0.3596 -0.4221
11161TIP3   OH254973   6.376   2.688  14.215 -0.1199 -0.0030  0.1513
11161TIP3    H154974   6.371   2.593  14.204  0.0724 -0.2168  1.6659
11161TIP3    H254975   6.470   2.705  14.227 -0.4048 -0.0659  3.0320
11162TIP3   OH254976   5.422   6.358  14.906 -0.4252 -0.1713  0.4139
11162TIP3    H154977   5.366   6.319  14.840  0.0054 -0.9412  0.4925
11162TIP3    H254978   5.389   6.326  14.989 -0.9046  0.7195  0.5830
11163TIP3   OH254979   0.461   4.040  11.765  0.6194  0.7568 -0.3392
11163TIP3    H154980   0.384   4.089  11.736  0.0084  0.8090  1.2587
11163TIP3    H254981   0.466   3.966  11.705 -0.9357  0.5279 -0.2337
11164TIP3   OH254982   5.992   4.706  12.580 -0.4338  0.8253 -0.3218
11164TIP3    H154983   6.035   4.621  12.569 -0.1170  0.7794  1.0364
11164TIP3    H254984   6.052   4.756  12.636 -0.8674  1.7493 -0.6597
11165TIP3   OH254985   3.180   3.682  12.260  0.4034 -0.5904  0.6101
11165TIP3    H154986   3.274   3.685  12.242  0.4547 -0.4723  0.8865
11165TIP3    H254987   3.171   3.617  12.330  0.3436 -0.2404  0.9375
11166TIP3   OH254988   3.763   2.252   6.368 -0.4225  0.0815  0.1392
11166TIP3    H154989   3.846   2.234   6.323 -0.2611  0.6651  0.1902
11166TIP3    H254990   3.756   2.183   6.434 -0.8011 -0.9507 -0.9507
11167TIP3   OH254991   1.322   5.029   2.196  0.1921  0.6846 -1.2039
11167TIP3    H154992   1.381   4.954   2.192 -2.0120 -1.2114 -0.8342
11167TIP3    H254993   1.237   4.991   2.219 -0.9551  3.3730 -0.5382
11168TIP3   OH254994   4.593   1.790  17.039 -0.4370 -0.0775 -0.0977
11168TIP3    H154995   4.571   1.741  17.119  0.9884  0.7689  0.8610
11168TIP3    H254996   4.545   1.745  16.970 -2.9348  0.0357  1.4162
11169TIP3   OH254997   5.121   3.118   4.530  0.5597  0.0543  0.0252
11169TIP3    H154998   5.083   3.038   4.493  0.5866  0.1312 -0.1710
11169TIP3    H254999   5.190   3.143   4.468 -0.7965  1.3677 -1.0227
11170TIP3   OH255000   6.616   4.269   4.357  0.1650 -0.0705  0.6004
11170TIP3    H155001   6.612   4.273   4.261  0.0629  1.6779  0.6574
11170TIP3    H255002   6.685   4.331   4.381  0.5971 -0.9285  1.6505
11171TIP3   OH255003   0.857   5.418  11.335  0.1704  0.0368 -0.0658
11171TIP3    H155004   0.875   5.457  11.421 -1.8040 -1.5426  1.1244
11171TIP3    H255005   0.942   5.384  11.306  1.2412  2.1071  0.3767
11172TIP3   OH255006   5.187   1.507   2.518 -0.4308  0.3787 -0.4282
11172TIP3    H155007   5.126   1.573   2.485  0.4863  2.2912  1.4250
11172TIP3    H255008   5.192   1.525   2.612  1.2950 -1.1501 -0.1812
11173TIP3   OH255009   4.502   4.051   1.284  0.5304 -0.1791  0.2185
11173TIP3    H155010   4.548   3.967   1.281  1.5712  0.4122 -1.1731
11173TIP3    H255011   4.477   4.068   1.193 -2.0376 -0.2220  0.8429
11174TIP3   OH255012   6.406   6.447   4.546 -0.3387 -0.1227 -0.3288
11174TIP3    H155013   6.383   6.517   4.608  0.7898 -0.3434  0.3776
11174TIP3    H255014   6.379   6.366   4.590 -1.5262 -0.1567 -1.0903
11175TIP3   OH255015   0.416   1.397  15.668 -0.0107 -0.1437  0.3822
11175TIP3    H155016   0.341   1.371  15.614  0.6865 -2.0218  0.2629
11175TIP3    H255017   0.421   1.492  15.657 -1.4827 -0.1626 -0.7609
11176TIP3   OH255018   6.743   3.326   6.716  0.1235  0.0312  0.4931
11176TIP3    H155019   6.811   3.393   6.719 -0.5994  0.8321 -0.2701
11176TIP3    H255020   6.774   3.264   6.651  0.6627 -0.2216  0.9904
11177TIP3   OH255021   2.014   0.969   2.733  0.4070  0.4139  0.6963
11177TIP3    H155022   1.976   0.991   2.648  0.8288  0.6280  0.5599
11177TIP3    H255023   2.023   0.874   2.731 -1.4925  0.1815  1.3197
11178TIP3   OH255024   5.743   1.565   1.563  0.1687  0.0050  0.8182
11178TIP3    H155025   5.792   1.563   1.480  0.8841 -2.5426  1.2147
11178TIP3    H255026   5.661   1.521   1.543  0.7768 -1.5638  1.6737
11179TIP3   OH255027   5.808   4.535  11.622 -0.0834 -0.1999 -0.2967
11179TIP3    H155028   5.867   4.571  11.688  0.8724  1.2306 -1.8422
11179TIP3    H255029   5.739   4.601  11.613  0.0696 -0.1318 -1.0646
11180TIP3   OH255030   1.347   4.870   5.824  0.5057 -0.6486 -0.8089
11180TIP3    H155031   1.261   4.909   5.813  1.2638  1.9327  1.3277
11180TIP3    H255032   1.337   4.811   5.899  0.9483  1.1995  0.7830
11181TIP3   OH255033   0.746   0.513   4.855 -0.3442 -0.7573  0.1466
11181TIP3    H155034   0.701   0.592   4.824 -0.8119 -0.8875  0.4823
11181TIP3    H255035   0.692   0.482   4.928  1.3965  0.2953  2.0024
11182TIP3   OH255036   0.641   1.199  15.852 -0.2843  0.3430 -0.2482
11182TIP3    H155037   0.671   1.192  15.761  0.5322 -1.9270  0.1343
11182TIP3    H255038   0.716   1.171  15.905 -1.2910 -0.0613  1.0278
11183TIP3   OH255039   4.257   4.624  13.904  0.0112  0.7958  0.7604
11183TIP3    H155040   4.218   4.709  13.881 -3.3557 -0.7861 -0.0883
11183TIP3    H255041   4.277   4.584  13.819 -0.6658 -0.1737  1.0478
11184TIP3   OH255042   0.306   5.090  12.647 -0.4919 -0.1696  0.2765
11184TIP3    H155043   0.249   5.121  12.577  0.4289  0.0743 -0.3809
11184TIP3    H255044   0.394   5.114  12.619  0.1001 -1.8722  0.5271
11185TIP3   OH255045   4.378   0.606  13.556 -0.6251  0.2789  0.0439
11185TIP3    H155046   4.358   0.692  13.591 -2.4906 -0.5245  1.1289
11185TIP3    H255047   4.293   0.564  13.545  0.2783 -1.8645  0.7094
11186TIP3   OH255048   6.373   2.656  12.261  0.0495 -0.3839  0.2071
11186TIP3    H155049   6.399   2.577  12.214 -0.7173 -0.6478  0.2014
11186TIP3    H255050   6.419   2.727  12.216  2.8145 -1.0455  1.8245
11187TIP3   OH255051   2.284   1.167   2.222 -0.0616 -0.4131 -0.4770
11187TIP3    H155052   2.282   1.074   2.244 -0.7276 -0.3568 -0.2817
11187TIP3    H255053   2.224   1.208   2.284  0.8910  0.2799  0.0237
11188TIP3   OH255054   4.522   4.069  12.094  0.0381  0.0288  0.3542
11188TIP3    H155055   4.551   4.161  12.091 -0.7230  0.3383  1.7569
11188TIP3    H255056   4.599   4.021  12.123  0.0022  0.4386  1.1447
11189TIP3   OH255057   1.140   4.303   4.467  0.1966 -0.3003  0.7001
11189TIP3    H155058   1.051   4.319   4.435  0.0704 -0.4858  0.9507
11189TIP3    H255059   1.189   4.277   4.389  0.7511  2.5173  0.0165
11190TIP3   OH255060   1.072   2.542  12.958  0.0777  0.1133 -0.1393
11190TIP3    H155061   1.163   2.531  12.985  0.8242  1.2547 -1.9543
11190TIP3    H255062   1.036   2.453  12.957  1.6329 -0.5399 -0.8498
11191TIP3   OH255063   0.316   4.633   1.674  0.3240  0.5190 -0.2621
11191TIP3    H155064   0.226   4.660   1.695  0.1852  0.8229 -1.1878
11191TIP3    H255065   0.346   4.699   1.611  0.6181 -0.4702 -1.1941
11192TIP3   OH255066   4.494   5.655   4.735  0.0846 -0.6061  0.1874
11192TIP3    H155067   4.408   5.636   4.698 -0.2391  0.9612  0.0636
11192TIP3    H255068   4.530   5.569   4.759 -0.6280 -1.4786 -1.6659
11193TIP3   OH255069   6.364   3.517  15.967 -0.2894 -0.1532 -0.4201
11193TIP3    H155070   6.355   3.518  16.063 -0.2608 -0.7453 -0.4097
11193TIP3    H255071   6.452   3.554  15.952 -0.5066  0.4514 -0.2517
11194TIP3   OH255072   0.144   3.216   1.770 -0.0056  0.0677  0.5786
11194TIP3    H155073   0.224   3.268   1.764 -0.0471  0.0484 -0.3268
11194TIP3    H255074   0.172   3.126   1.752 -0.0958 -0.0714  1.1239
11195TIP3   OH255075   4.914   0.726   6.498 -0.1354  0.0059  0.1968
11195TIP3    H155076   4.838   0.707   6.554 -0.0154 -1.3934 -0.0891
11195TIP3    H255077   4.910   0.661   6.429 -0.1810  1.5877 -1.3768
11196TIP3   OH255078   6.093   5.160   0.918  0.1383 -0.1936 -0.5478
11196TIP3    H155079   6.083   5.208   1.000  0.4730  0.7547 -1.0499
11196TIP3    H255080   6.035   5.206   0.856  1.8000  0.6970 -1.5061
11197TIP3   OH255081   3.297   2.168  12.032  0.5650  0.5865  0.4426
11197TIP3    H155082   3.321   2.247  11.984 -0.2234 -0.6599 -2.2178
11197TIP3    H255083   3.361   2.103  12.005  0.1544 -0.1454  1.1855
11198TIP3   OH255084   1.278   5.540   1.616 -0.7201  0.0774  0.2996
11198TIP3    H155085   1.372   5.526   1.625 -0.7827 -0.6306 -0.0835
11198TIP3    H255086   1.239   5.484   1.684 -0.9071 -0.4062 -0.2035
11199TIP3   OH255087   2.226   6.417  11.173  0.0075  0.0468 -0.0041
11199TIP3    H155088   2.287   6.454  11.108 -0.0761  1.4404  0.6789
11199TIP3    H255089   2.282   6.393  11.247 -0.3629  3.5805  1.6636
11200TIP3   OH255090   5.889   4.084   2.501  0.6030  0.1027  0.6208
11200TIP3    H155091   5.872   3.993   2.479  0.0691  0.2358  0.4758
11200TIP3    H255092   5.984   4.089   2.512  0.7280 -0.2889 -0.2096
11201TIP3   OH255093   4.492   5.586  16.238  0.2281 -0.0801  0.4947
11201TIP3    H155094   4.466   5.647  16.307 -2.1930 -0.1671 -0.2584
11201TIP3    H255095   4.587   5.594  16.234  0.1029  2.7679  1.1980
11202TIP3   OH255096   3.856   0.869   6.051 -0.6063  0.1920 -0.0374
11202TIP3    H155097   3.785   0.894   6.110 -1.3239 -0.0593 -0.7634
11202TIP3    H255098   3.936   0.886   6.100 -1.1157  2.0005  0.2293
11203TIP3   OH255099   3.788   6.360   6.204  0.6011 -0.6955 -0.1589
11203TIP3    H155100   3.759   6.376   6.294 -0.0960 -0.7213 -0.3749
11203TIP3    H255101   3.859   6.423   6.190  0.5190 -0.4936  0.3119
11204TIP3   OH255102   0.097   4.451   1.589 -0.1081  0.0300 -0.4912
11204TIP3    H155103   0.094   4.427   1.496  0.5541  1.1022 -0.8116
11204TIP3    H255104   0.017   4.503   1.602  0.3065  0.7408 -0.7291
11205TIP3   OH255105   2.375   1.720  14.698 -0.6302  0.1021 -0.0538
11205TIP3    H155106   2.400   1.784  14.765  1.1179  0.2892 -0.8565
11205TIP3    H255107   2.279   1.728  14.694 -0.6133  1.4388  1.0664
11206TIP3   OH255108   5.566   0.880   4.066  0.9153 -0.1439  0.2058
11206TIP3    H155109   5.509   0.873   4.143  0.6332  4.5291  0.7250
11206TIP3    H255110   5.505   0.877   3.992  0.6122 -0.2627  0.4535
11207TIP3   OH255111   5.005   1.722  11.679 -0.3721 -0.0551 -0.2799
11207TIP3    H155112   4.966   1.683  11.600 -0.3368 -0.6864  0.0094
11207TIP3    H255113   5.092   1.750  11.651 -1.2055  1.8960 -1.0875
11208TIP3   OH255114   1.193   6.729  12.972 -0.2047  0.4365 -0.7782
11208TIP3    H155115   1.237   6.747  12.889 -1.0611  0.2444 -1.2921
11208TIP3    H255116   1.105   6.700  12.946 -0.8047  1.3026  0.2288
11209TIP3   OH255117   2.777   1.424   6.314  0.6885 -0.1686  0.2926
11209TIP3    H155118   2.707   1.401   6.375  0.9830  0.3256  0.8321
11209TIP3    H255119   2.797   1.515   6.334 -0.8409  0.8078 -2.1828
11210TIP3   OH255120   4.625   3.010  12.791  0.1635  0.1687  0.1685
11210TIP3    H155121   4.645   3.063  12.868  0.1122  0.1743  0.1780
11210TIP3    H255122   4.703   2.956  12.778  0.0475 -0.0674  0.4197
11211TIP3   OH255123   6.198   6.631  12.215  0.3623 -0.0211 -0.2875
11211TIP3    H155124   6.215   6.700  12.279  2.1387 -0.7342  0.0764
11211TIP3    H255125   6.270   6.569  12.227 -0.6043 -1.4057 -1.3298
11212TIP3   OH255126   2.407   4.709   4.412  0.4549  0.1562  0.0764
11212TIP3    H155127   2.483   4.748   4.370  1.7633 -2.3290 -0.0444
11212TIP3    H255128   2.441   4.633   4.459 -2.0173 -1.4552 -0.5426
11213TIP3   OH255129   1.746   5.181  10.911 -0.2112 -0.2702 -0.1695
11213TIP3    H155130   1.715   5.248  10.851  1.7723  1.1392  0.2734
11213TIP3    H255131   1.834   5.210  10.936 -0.0557 -2.0361  1.5803
11214TIP3   OH255132   4.423   0.507   1.089 -0.6195 -0.1892  0.4624
11214TIP3    H155133   4.359   0.576   1.074  0.3498  0.7028  0.3237
11214TIP3    H255134   4.413   0.448   1.014 -1.4547 -0.2254  0.5886
11215TIP3   OH255135   4.478   2.945  16.657  0.4632 -0.0559 -0.3385
11215TIP3    H155136   4.571   2.925  16.648  0.6674  0.4111  0.6501
11215TIP3    H255137   4.449   2.894  16.732  0.5072  1.6696  0.8972
11216TIP3   OH255138   3.398   1.047  16.594  0.2548  0.1323  0.4697
11216TIP3    H155139   3.328   1.105  16.626  0.2154 -0.2696  1.1446
11216TIP3    H255140   3.387   1.046  16.499 -0.6911  0.0312  0.5724
11217TIP3   OH255141   6.331   5.135  14.617 -0.5130 -0.1901  0.6181
11217TIP3    H155142   6.339   5.142  14.522 -0.5979  0.4592  0.6571
11217TIP3    H255143   6.391   5.064  14.641 -1.9135 -1.7047 -0.1383
11218TIP3   OH255144   3.785   6.681  13.430  0.3022 -0.2756 -0.1800
11218TIP3    H155145   3.827   6.632  13.359  1.7812 -0.7529  0.9626
11218TIP3    H255146   3.840   6.758  13.441 -0.9924  0.7529 -0.7644
11219TIP3   OH255147   4.092   0.784  13.146  0.3179 -0.7727 -0.5615
11219TIP3    H155148   4.172   0.829  13.172  1.3094 -2.5572 -0.3446
11219TIP3    H255149   4.044   0.771  13.228 -0.8739  1.4118 -0.8365
11220TIP3   OH255150   3.468   0.176  15.349 -0.6187  0.1205 -0.0752
11220TIP3    H155151   3.496   0.233  15.421 -2.1768 -0.2889  0.8868
11220TIP3    H255152   3.436   0.097  15.392 -0.0794 -0.8062 -1.3185
11221TIP3   OH255153   1.516   6.051   2.894 -0.6846 -0.3468  0.7656
11221TIP3    H155154   1.437   6.060   2.841 -0.2740 -1.9841 -0.1974
11221TIP3    H255155   1.542   6.141   2.913 -1.1867  0.3123 -1.3392
11222TIP3   OH255156   4.517   3.922  14.699  0.0380  0.1757  0.1466
11222TIP3    H155157   4.524   3.855  14.767  0.2977 -0.3506 -0.3910
11222TIP3    H255158   4.608   3.950  14.684 -0.0648  0.6226  0.3390
11223TIP3   OH255159   0.837   0.032  16.468  0.2100  0.4834  0.5923
11223TIP3    H155160   0.758   0.071  16.504  0.1919 -1.0004  2.2508
11223TIP3    H255161   0.879  -0.013  16.541 -0.6948 -4.1421 -1.3619
11224TIP3   OH255162   2.799   2.240   5.974 -0.4616  0.0040 -0.6223
11224TIP3    H155163   2.866   2.277   6.031 -0.7332 -1.2131  0.5306
11224TIP3    H255164   2.756   2.316   5.935 -0.7129  0.9263  1.3233
11225TIP3   OH255165   2.945   3.815  13.577  0.1802  0.0211  0.0935
11225TIP3    H155166   2.933   3.746  13.513  1.4210  0.1208 -0.2735
11225TIP3    H255167   3.017   3.784  13.633 -0.1807  0.3999  0.7898
11226TIP3   OH255168   5.457   3.112  14.680 -0.5971  0.3229  0.2869
11226TIP3    H155169   5.440   3.204  14.698  0.0090  0.9577 -2.0729
11226TIP3    H255170   5.545   3.096  14.713 -0.8094  0.4887  0.9529
11227TIP3   OH255171   3.838   0.429   4.779  0.1949  0.1792  0.3785
11227TIP3    H155172   3.778   0.410   4.852  1.3136  1.2184  1.6337
11227TIP3    H255173   3.879   0.512   4.803  2.1902 -0.5137 -0.3884
11228TIP3   OH255174   6.735   0.782  12.091 -0.6291 -0.5694  0.5541
11228TIP3    H155175   6.786   0.828  12.158 -0.2919 -0.3553  0.1564
11228TIP3    H255176   6.731   0.843  12.018 -1.1944 -0.7121  0.4648
11229TIP3   OH255177   5.434   0.105   5.252 -0.0662 -0.0277  0.0123
11229TIP3    H155178   5.512   0.159   5.235 -0.0182  0.9142  2.6686
11229TIP3    H255179   5.465   0.037   5.312 -1.4009  0.9585  1.9451
11230TIP3   OH255180   3.642   1.073  13.410 -0.6181  0.2239 -0.4367
11230TIP3    H155181   3.731   1.038  13.412 -0.2592  1.1022  1.7171
11230TIP3    H255182   3.594   1.020  13.473 -1.3401  0.5038 -0.7394
11231TIP3   OH255183   6.116   2.800  14.470  0.1247  0.2326 -0.3328
11231TIP3    H155184   6.122   2.886  14.428 -0.1248  1.2327  1.5699
11231TIP3    H255185   6.067   2.816  14.551 -1.1707 -1.9909 -0.6176
11232TIP3   OH255186   3.936   4.154  13.204  0.4390 -0.1724  0.5019
11232TIP3    H155187   3.962   4.063  13.191 -0.8310 -0.1881 -2.9977
11232TIP3    H255188   3.965   4.198  13.124  1.5266  2.6838  2.3441
11233TIP3   OH255189   4.071   3.240   4.607 -0.0243  0.1590  0.0831
11233TIP3    H155190   3.984   3.267   4.578 -0.4601  0.5697  1.6846
11233TIP3    H255191   4.078   3.272   4.697  1.3878 -0.7581  0.3396
11234TIP3   OH255192   3.121   5.549   1.833  0.1486  0.0222 -0.8527
11234TIP3    H155193   3.133   5.586   1.921  1.1736  0.8646 -1.3210
11234TIP3    H255194   3.092   5.459   1.849 -2.3927  0.9267  0.3387
11235TIP3   OH255195   2.338   5.271  13.326 -0.1211  0.2268 -0.1745
11235TIP3    H155196   2.334   5.236  13.237 -0.4356 -1.9810  0.6330
11235TIP3    H255197   2.372   5.198  13.379 -0.2601  1.3641  1.5760
11236TIP3   OH255198   0.065   3.345   5.660  0.4480 -0.4021 -0.4240
11236TIP3    H155199   0.046   3.315   5.749  0.3828 -0.8785 -0.5945
11236TIP3    H255200  -0.021   3.365   5.623  0.1189 -3.3935 -1.4917
11237TIP3   OH255201   4.928   5.997  10.889 -0.4484  0.6886  0.1024
11237TIP3    H155202   5.009   6.044  10.909 -0.7013  1.4379 -0.5422
11237TIP3    H255203   4.929   5.989  10.793 -0.4800 -0.5229  0.1938
11238TIP3   OH255204   3.696   5.367   1.745  0.1010 -0.2068  0.1753
11238TIP3    H155205   3.761   5.301   1.770 -0.8030 -1.8723 -1.6431
11238TIP3    H255206   3.708   5.378   1.650 -1.2611  0.5693  0.0649
11239TIP3   OH255207   3.184   4.554  16.478  0.0484 -0.3713 -0.5284
11239TIP3    H155208   3.205   4.647  16.465 -0.3757 -0.3854 -1.3839
11239TIP3    H255209   3.226   4.532  16.561  0.2009  0.5721 -0.3376
11240TIP3   OH255210   5.268   0.332  12.366  0.0228  0.5424 -0.9695
11240TIP3    H155211   5.241   0.276  12.439 -1.1319 -0.5067 -2.1408
11240TIP3    H255212   5.267   0.420  12.402  0.0849 -0.0081  0.4439
11241TIP3   OH255213   0.104   1.989  13.113 -0.4368 -0.3060  0.4757
11241TIP3    H155214   0.081   2.036  13.033  0.1909 -0.8530 -0.0354
11241TIP3    H255215   0.126   2.058  13.176 -0.3803  0.1147 -0.0021
11242TIP3   OH255216   4.270   0.585  15.800 -0.4128 -0.1142 -0.7423
11242TIP3    H155217   4.205   0.540  15.853 -0.6997  0.4403 -0.6209
11242TIP3    H255218   4.220   0.625  15.729  0.0368 -1.3787 -1.8065
11243TIP3   OH255219   1.786   2.261  14.131  0.3913 -0.0332  0.0065
11243TIP3    H155220   1.710   2.270  14.074  0.4019  0.4223  0.0609
11243TIP3    H255221   1.751   2.227  14.213  0.3306 -0.3736 -0.1580
11244TIP3   OH255222   4.405   5.161  13.537  0.2237 -0.4451 -0.2811
11244TIP3    H155223   4.412   5.076  13.493 -1.3774 -0.7711  0.0133
11244TIP3    H255224   4.470   5.216  13.495  1.6668 -1.9615 -0.1304
11245TIP3   OH255225   3.076   1.103   4.762 -0.7009 -0.2085  0.2452
11245TIP3    H155226   3.011   1.063   4.703 -0.7321  0.1031  0.0676
11245TIP3    H255227   3.160   1.087   4.719 -0.5481 -1.4951  0.9635
11246TIP3   OH255228   3.494   4.324  14.692 -0.0611  0.3541 -0.6261
11246TIP3    H155229   3.439   4.252  14.661 -0.3393  0.4308 -0.3126
11246TIP3    H255230   3.499   4.311  14.787  0.7860  0.1180 -0.6872
11247TIP3   OH255231   1.712   0.088  11.649 -0.0028  0.3467 -0.3200
11247TIP3    H155232   1.772   0.079  11.724 -1.4918  0.0144  0.8847
11247TIP3    H255233   1.767   0.072  11.573  1.9319  2.3510  0.5641
11248TIP3   OH255234   0.669   0.456  14.332  0.9138  0.3148 -0.0233
11248TIP3    H155235   0.661   0.393  14.403 -0.3001 -0.2615 -0.6494
11248TIP3    H255236   0.713   0.532  14.372  2.4752 -0.9257  0.7164
11249TIP3   OH255237   6.166   1.981   2.186  0.2860 -0.5142 -0.4979
11249TIP3    H155238   6.254   2.009   2.210 -0.2382  0.3157  0.5540
11249TIP3    H255239   6.139   1.922   2.257  0.8588 -2.7321 -2.0127
11250TIP3   OH255240   6.702   2.040   2.051  0.2739 -0.4413 -0.2691
11250TIP3    H155241   6.687   2.117   1.997  1.8722 -0.2976 -0.5726
11250TIP3    H255242   6.789   2.010   2.025  0.4596 -1.2338  1.1762
11251TIP3   OH255243   3.143   0.409  17.148 -0.0885  0.3219  0.1426
11251TIP3    H155244   3.057   0.424  17.108 -0.5604  0.0511  1.0222
11251TIP3    H255245   3.196   0.371  17.077 -0.1843  1.9846 -0.8737
11252TIP3   OH255246   1.710   6.807  10.424 -0.2839  0.3045  0.0056
11252TIP3    H155247   1.749   6.721  10.435 -2.3490 -0.7651 -0.4760
11252TIP3    H255248   1.770   6.854  10.367  1.9685 -0.0004  1.9811
11253TIP3   OH255249   5.359   4.744  16.845 -0.0398 -0.3374 -0.2810
11253TIP3    H155250   5.369   4.720  16.938  0.9456  1.2499  0.0724
11253TIP3    H255251   5.265   4.757  16.834 -0.1176  0.0139  0.6643
11254TIP3   OH255252   2.252   1.657  15.687 -0.3496  0.2143  0.4233
11254TIP3    H155253   2.238   1.592  15.618 -0.6444  0.5175  0.1975
11254TIP3    H255254   2.339   1.637  15.721  0.0243  0.3973 -0.3993
11255TIP3   OH255255   2.992   0.673  14.402 -0.0953  0.0038 -0.4648
11255TIP3    H155256   3.048   0.598  14.379 -2.3272 -2.2163  0.8895
11255TIP3    H255257   2.993   0.675  14.497 -0.2990  1.5931 -0.4694
11256TIP3   OH255258   1.201   4.496  15.342  0.1983  0.0946  0.0809
11256TIP3    H155259   1.252   4.494  15.261  0.0947  1.1912 -0.0197
11256TIP3    H255260   1.199   4.404  15.371 -2.3899 -0.9634 -2.8180
11257TIP3   OH255261   5.354   0.765   4.591  0.0342  0.2417 -0.4242
11257TIP3    H155262   5.441   0.803   4.604 -0.5988  1.5168  0.2910
11257TIP3    H255263   5.359   0.679   4.632  0.8418  0.4659 -0.0172
11258TIP3   OH255264   4.345   0.805  11.060  0.0319  0.1717  0.4496
11258TIP3    H155265   4.308   0.717  11.060 -0.6859  0.4346 -1.0384
11258TIP3    H255266   4.434   0.794  11.025 -0.7957  0.2519 -1.8498
11259TIP3   OH255267   6.257   0.357  14.723 -0.3425 -0.6888  0.5579
11259TIP3    H155268   6.190   0.292  14.703 -1.8180  0.6498  0.9612
11259TIP3    H255269   6.338   0.320  14.687 -1.6590 -1.3677 -1.9767
11260TIP3   OH255270   6.502   5.954  13.506  0.1501 -0.0861 -0.0553
11260TIP3    H155271   6.491   5.949  13.601  0.1937 -1.1260 -0.0956
11260TIP3    H255272   6.433   6.013  13.477  0.3175  0.4749  0.6546
11261TIP3   OH255273   3.006   3.236   1.544 -0.1610  0.0730  0.3937
11261TIP3    H155274   2.957   3.309   1.583  1.9044  1.8472 -0.1263
11261TIP3    H255275   2.952   3.210   1.469 -0.6590  1.5171  0.2008
11262TIP3   OH255276   2.973   1.768  11.757  0.2352  0.2808  0.2076
11262TIP3    H155277   2.971   1.829  11.683  1.4441  0.5022  0.3370
11262TIP3    H255278   2.957   1.682  11.717  1.1999  0.3545 -0.3747
11263TIP3   OH255279   0.444   1.043  15.919  0.1096  0.0760 -0.0069
11263TIP3    H155280   0.497   1.107  15.871  1.0002 -0.2889  0.4665
11263TIP3    H255281   0.481   1.043  16.008 -0.4489 -0.4602  0.2316
11264TIP3   OH255282   1.025   5.683   6.398  0.2449 -0.5690 -0.3644
11264TIP3    H155283   1.061   5.656   6.313 -0.2207  0.5567 -0.9385
11264TIP3    H255284   1.031   5.779   6.397 -1.0049 -0.4610  0.2977
11265TIP3   OH255285   2.450   5.765  13.074 -0.2063  0.0948 -0.1198
11265TIP3    H155286   2.542   5.754  13.051 -0.2032  0.7141 -0.4192
11265TIP3    H255287   2.421   5.678  13.102  1.3606  0.4849  3.2487
11266TIP3   OH255288   0.844   2.784   0.074  0.0254 -0.2851  0.1457
11266TIP3    H155289   0.798   2.833   0.005  1.5828  0.9057 -0.0956
11266TIP3    H255290   0.896   2.719   0.026  0.1033 -0.3310  0.2944
11267TIP3   OH255291   4.753   0.885   1.111 -0.1486  0.2305  0.2552
11267TIP3    H155292   4.766   0.933   1.192 -0.3944 -0.1610  0.5334
11267TIP3    H255293   4.837   0.843   1.093 -0.1067  0.2836  0.3314
11268TIP3   OH255294   6.677   2.350   0.447 -0.7165  0.1872 -0.3125
11268TIP3    H155295   6.734   2.335   0.523  1.3957  2.6298 -1.2659
11268TIP3    H255296   6.714   2.295   0.378 -0.9002  0.0805 -0.3254
11269TIP3   OH255297   1.130   5.720  17.121 -0.2801 -0.0524  0.2209
11269TIP3    H155298   1.197   5.678  17.067  0.4630  2.9907 -1.5119
11269TIP3    H255299   1.050   5.711  17.070 -0.7145 -1.5631  1.1214
11270TIP3   OH255300   2.255   1.506   4.098 -0.1631  0.2159  0.0333
11270TIP3    H155301   2.285   1.573   4.160 -1.6278 -0.1340  1.1999
11270TIP3    H255302   2.195   1.452   4.150 -1.0149 -0.4331 -1.5689
11271TIP3   OH255303   6.690   2.101   3.277  0.2152  0.2254 -0.3511
11271TIP3    H155304   6.599   2.097   3.305  0.2798  1.4868  0.0953
11271TIP3    H255305   6.691   2.167   3.208  0.9641  1.0330  0.4131
11272TIP3   OH255306   0.713   3.654   3.602  0.2166  0.1307  0.2854
11272TIP3    H155307   0.764   3.573   3.594  0.9945  0.5772  0.7035
11272TIP3    H255308   0.701   3.684   3.512 -0.1501 -0.4932  0.1209
11273TIP3   OH255309   1.895   6.557   4.018  0.4296  0.4048  0.2523
11273TIP3    H155310   1.800   6.561   4.031  0.5955  0.7071  1.5249
11273TIP3    H255311   1.920   6.471   4.052  0.3939 -0.4934 -1.8532
11274TIP3   OH255312   6.293   1.896  13.175 -0.4486 -0.1467 -0.1437
11274TIP3    H155313   6.382   1.930  13.169 -0.7369  0.5283 -1.1036
11274TIP3    H255314   6.262   1.897  13.084 -0.6434 -2.6161 -0.1561
11275TIP3   OH255315   2.937   1.152  13.754  0.7787  0.4185 -0.0464
11275TIP3    H155316   2.952   1.206  13.831 -0.1160 -0.1643  0.5646
11275TIP3    H255317   2.944   1.062  13.786 -0.6694  0.1541 -0.3820
11276TIP3   OH255318   5.936   0.865  11.873  0.4622  0.1485 -0.2398
11276TIP3    H155319   5.925   0.865  11.778  0.9749  0.8274 -0.2989
11276TIP3    H255320   6.028   0.886  11.887  0.4128 -0.0424  0.4071
11277TIP3   OH255321   2.134   1.403   2.099  0.0995 -0.0547  0.3180
11277TIP3    H155322   2.125   1.458   2.177  0.7481  1.0982 -0.3940
11277TIP3    H255323   2.224   1.418   2.070  0.1082 -1.0840 -0.2124
11278TIP3   OH255324   5.668   4.099  16.411 -0.1265  0.6944  0.0699
11278TIP3    H155325   5.587   4.056  16.439 -0.2435 -0.2335 -1.5436
11278TIP3    H255326   5.640   4.162  16.345  0.2798  1.7832  0.9168
11279TIP3   OH255327   2.092   1.039   0.061  1.0196 -0.1774 -0.2647
11279TIP3    H155328   2.132   1.125   0.074  1.1484 -0.2688 -0.0499
11279TIP3    H255329   2.006   1.046   0.102  0.2363  0.4621 -1.9436
11280TIP3   OH255330   1.558   1.963   4.840  0.0053 -0.1793 -0.4263
11280TIP3    H155331   1.502   2.035   4.811  1.1182  1.0401  0.3472
11280TIP3    H255332   1.498   1.890   4.853 -0.9542  0.0986 -2.7421
11281TIP3   OH255333   3.054   0.655   4.825 -0.4160  0.4091  0.3681
11281TIP3    H155334   3.093   0.741   4.808 -0.2051  0.2675  0.1251
11281TIP3    H255335   2.960   0.673   4.836 -0.5712  0.5184 -0.9730
11282TIP3   OH255336   0.864   4.843  11.081  0.2766 -0.5700 -0.2501
11282TIP3    H155337   0.782   4.834  11.129  0.3533 -1.2323 -0.2250
11282TIP3    H255338   0.857   4.927  11.036  0.0903 -0.0656  0.6911
11283TIP3   OH255339   1.201   1.080   2.640  0.4957  0.0966 -0.4548
11283TIP3    H155340   1.295   1.099   2.646 -0.0873  2.9679  1.7008
11283TIP3    H255341   1.175   1.056   2.729 -0.7618 -1.2889 -1.1426
11284TIP3   OH255342   4.847   4.424   4.137 -0.1220  0.1769  0.8533
11284TIP3    H155343   4.898   4.409   4.058 -0.5147  1.7827  0.2413
11284TIP3    H255344   4.903   4.480   4.192 -0.0086 -0.5999  1.5440
11285TIP3   OH255345   0.867   5.451   1.785  0.0517  0.2971  0.3822
11285TIP3    H155346   0.880   5.366   1.743 -0.0988  0.5788 -0.2335
11285TIP3    H255347   0.913   5.442   1.869  1.2280  0.0797 -0.2561
11286TIP3   OH255348   2.830   6.432  13.447 -0.2094  0.3091 -0.6971
11286TIP3    H155349   2.758   6.472  13.397 -2.1237 -2.3118 -0.2450
11286TIP3    H255350   2.850   6.497  13.515 -2.8616  0.7903 -0.2416
11287TIP3   OH255351   0.952   5.466   2.059 -0.1730  0.1848 -0.2519
11287TIP3    H155352   0.953   5.545   2.113  0.4511 -1.0124  1.5778
11287TIP3    H255353   0.870   5.422   2.082  0.8689 -1.1722  1.0898
11288TIP3   OH255354   1.949   2.699  15.387  0.0080  0.1031 -0.2957
11288TIP3    H155355   1.938   2.641  15.462 -0.0661  0.6075  0.0868
11288TIP3    H255356   2.041   2.690  15.363  0.1086  0.1714  0.0532
11289TIP3   OH255357   5.338   2.204  16.396 -0.1837 -0.0062 -0.5633
11289TIP3    H155358   5.385   2.250  16.465 -1.4681 -0.5127  0.6783
11289TIP3    H255359   5.361   2.112  16.408 -2.2441 -0.4146  0.7489
11290TIP3   OH255360   4.739   5.420   5.816 -0.4795 -0.4226  0.5564
11290TIP3    H155361   4.649   5.407   5.787 -0.2383 -3.1959  0.8010
11290TIP3    H255362   4.736   5.409   5.911  0.2650 -1.8118  0.4412
11291TIP3   OH255363   2.291   0.883  15.425  0.1473 -0.7630  0.6845
11291TIP3    H155364   2.385   0.864  15.426  0.1840 -0.6555 -0.0804
11291TIP3    H255365   2.285   0.978  15.434  0.2420 -0.4622 -1.8261
11292TIP3   OH255366   6.254   2.235   0.783 -0.1451  0.3432  0.2930
11292TIP3    H155367   6.299   2.276   0.708 -0.8697  0.1163 -0.2798
11292TIP3    H255368   6.213   2.308   0.828 -0.2593  0.4108  0.0837
11293TIP3   OH255369   6.511   3.788   2.475 -0.8416  0.4381  0.2548
11293TIP3    H155370   6.462   3.774   2.394 -2.9909 -1.0524  1.6791
11293TIP3    H255371   6.545   3.877   2.469  0.2368 -0.0709 -2.8056
11294TIP3   OH255372   6.509   4.237  12.495 -0.1849 -0.4352 -0.8911
11294TIP3    H155373   6.576   4.190  12.445 -0.0695  0.1293 -1.2759
11294TIP3    H255374   6.558   4.284  12.562 -0.3048 -0.8962 -0.4759
11295TIP3   OH255375   2.968   3.386   5.732  0.2039  0.2144 -0.1377
11295TIP3    H155376   2.916   3.325   5.786  0.4704  0.8075  0.8145
11295TIP3    H255377   2.910   3.409   5.659 -0.6299  0.3400  0.5438
11296TIP3   OH255378   1.093   2.554   3.401 -0.7647 -0.0783 -0.5262
11296TIP3    H155379   1.073   2.463   3.381 -3.2503  0.3210 -0.2158
11296TIP3    H255380   1.096   2.597   3.315  3.1742 -0.8082 -0.9328
11297TIP3   OH255381   1.896   5.883   5.854  0.2082  0.5466 -0.5749
11297TIP3    H155382   1.804   5.864   5.875  0.9839 -3.4111 -0.0201
11297TIP3    H255383   1.922   5.947   5.920 -1.2209 -1.1143  1.7834
11298TIP3   OH255384   4.943   5.653   1.119  0.1404  0.1378 -0.5918
11298TIP3    H155385   4.927   5.664   1.213 -0.2418  1.0657 -0.7524
11298TIP3    H255386   4.937   5.558   1.104 -1.7539  0.1278 -0.0174
11299TIP3   OH255387   3.284   4.303  16.003  0.5172  0.6927 -0.2555
11299TIP3    H155388   3.375   4.331  16.004  1.3690 -1.6087 -2.2597
11299TIP3    H255389   3.276   4.242  16.076  0.5005  1.0834  0.0706
11300TIP3   OH255390   1.688   5.140   4.380  0.5254  0.0814  0.0320
11300TIP3    H155391   1.630   5.129   4.456 -0.1026  0.1009 -0.4421
11300TIP3    H255392   1.659   5.221   4.340  0.4519 -0.2486 -0.5861
11301TIP3   OH255393   5.719   2.812  14.661  0.1354  0.4989 -0.2981
11301TIP3    H155394   5.720   2.817  14.566  0.1310 -0.1550 -0.3410
11301TIP3    H255395   5.627   2.824  14.685  0.1357  0.6538 -0.3749
11302TIP3   OH255396   3.661   1.200  16.557  0.2586 -0.2519  0.0944
11302TIP3    H155397   3.695   1.111  16.553  1.3560  0.1896 -0.7362
11302TIP3    H255398   3.579   1.192  16.606  1.4534 -1.3639  2.0562
11303TIP3   OH255399   6.141   5.783   5.021  0.1727  0.2140 -0.6260
11303TIP3    H155400   6.231   5.785   5.054  0.0378  0.1269 -0.2457
11303TIP3    H255401   6.099   5.712   5.071  0.4215 -1.0694 -2.1746
11304TIP3   OH255402   2.195   5.107  16.656 -0.3305  0.6374 -0.2240
11304TIP3    H155403   2.241   5.186  16.684 -1.1682  1.5423 -1.3210
11304TIP3    H255404   2.211   5.044  16.726  0.2474  1.8132  0.7414
11305TIP3   OH255405   3.192   4.210   5.653 -0.1392 -0.2099  0.3649
11305TIP3    H155406   3.174   4.137   5.712 -2.0384 -1.0243 -1.1276
11305TIP3    H255407   3.282   4.236   5.673 -0.3695 -1.1112  2.8562
11306TIP3   OH255408   2.645   0.380   4.028 -0.0042  0.4738 -0.2273
11306TIP3    H155409   2.718   0.319   4.020 -0.6904 -0.1960 -1.7794
11306TIP3    H255410   2.569   0.329   4.000 -0.6658  1.9385 -1.1757
11307TIP3   OH255411   3.445   6.055  10.444 -0.4509 -0.2579 -0.2211
11307TIP3    H155412   3.468   5.965  10.422 -0.7561 -0.5651  0.7113
11307TIP3    H255413   3.354   6.051  10.475 -0.5762  0.4220 -0.4536
11308TIP3   OH255414   6.131   5.973   0.652 -0.1771  0.2628 -0.0323
11308TIP3    H155415   6.141   6.042   0.587 -2.1406  0.5433 -0.0869
11308TIP3    H255416   6.111   5.894   0.601 -0.5807  0.2394  0.1535
11309TIP3   OH255417   4.217   1.710  17.275  0.2238 -0.2559 -0.2331
11309TIP3    H155418   4.213   1.670  17.188  0.1672 -0.1931 -0.2579
11309TIP3    H255419   4.202   1.637  17.336  0.1867 -0.2861 -0.2783
11310TIP3   OH255420   3.266   2.771   1.554 -0.1512  0.2066 -0.4876
11310TIP3    H155421   3.241   2.821   1.476 -0.6113 -2.0994 -1.9049
11310TIP3    H255422   3.191   2.777   1.613 -0.1889  1.1487 -0.6163
11311TIP3   OH255423   5.555   6.789  11.751  0.3120 -0.4772 -0.3183
11311TIP3    H155424   5.490   6.807  11.820  0.2398  1.0531 -0.7532
11311TIP3    H255425   5.590   6.703  11.773 -1.6908 -1.2528  0.0742
11312TIP3   OH255426   0.439   0.052  14.956  0.2349  0.2166  0.2604
11312TIP3    H155427   0.373   0.121  14.952  0.0247  0.0780  1.1761
11312TIP3    H255428   0.438   0.012  14.869 -0.8437  0.2505  0.2536
11313TIP3   OH255429   2.424   1.274  13.813  0.0845 -0.7671  0.7660
11313TIP3    H155430   2.412   1.202  13.751  1.1343 -0.5158  0.2591
11313TIP3    H255431   2.518   1.279  13.826 -0.1009 -0.6026  2.1515
11314TIP3   OH255432   6.630   1.922   6.049 -0.2295 -0.3116  0.2682
11314TIP3    H155433   6.671   1.985   5.989 -0.1242 -1.0188 -0.4066
11314TIP3    H255434   6.637   1.838   6.005 -0.1677 -0.8456  1.2668
11315TIP3   OH255435   5.565   3.477   3.137  0.1833  0.2030  0.0311
11315TIP3    H155436   5.592   3.406   3.079  1.5746  1.2630 -0.6664
11315TIP3    H255437   5.644   3.498   3.188 -0.9259 -0.5418  2.1996
11316TIP3   OH255438   0.943   3.538  13.236  0.1006 -0.0552 -0.1581
11316TIP3    H155439   0.899   3.623  13.226 -2.4241 -0.9774  1.9122
11316TIP3    H255440   0.999   3.550  13.312  2.6264  0.7168 -2.0103
11317TIP3   OH255441   2.189   1.147  15.379 -0.6007  0.1020  0.4066
11317TIP3    H155442   2.165   1.239  15.368 -2.7502 -0.4180  0.2559
11317TIP3    H255443   2.182   1.110  15.291  1.2604 -0.0373  0.2728
11318TIP3   OH255444   4.012   6.026   3.444 -0.4124  0.0941  0.6886
11318TIP3    H155445   4.086   6.087   3.434 -0.5209  0.1387  0.1058
11318TIP3    H255446   3.950   6.053   3.376 -0.1493 -1.1018 -0.0678
11319TIP3   OH255447   3.144   6.360  13.953 -0.4449  0.1757 -0.4706
11319TIP3    H155448   3.122   6.421  13.883  2.7083 -0.4060 -2.1365
11319TIP3    H255449   3.186   6.414  14.020 -0.6141  0.2837 -0.4514
11320TIP3   OH255450   1.594   0.995   4.836 -0.0415 -0.3458  0.2546
11320TIP3    H155451   1.605   0.904   4.811 -0.4860 -0.7095  1.3363
11320TIP3    H255452   1.676   1.018   4.880  1.8091  1.0417 -3.5091
11321TIP3   OH255453   3.702   1.463  10.280 -0.1978 -0.0009 -0.1942
11321TIP3    H155454   3.760   1.520  10.230 -0.9802 -0.0854 -1.2136
11321TIP3    H255455   3.725   1.374  10.251 -0.3142 -0.0819 -0.0407
11322TIP3   OH255456   2.762   3.672   0.487 -0.7811  0.0630 -0.6115
11322TIP3    H155457   2.719   3.741   0.538  0.4588  0.4632 -0.0583
11322TIP3    H255458   2.732   3.590   0.525  0.1127  0.3574  0.7927
11323TIP3   OH255459   1.355   0.562   3.507 -0.5456 -0.2634  0.1365
11323TIP3    H155460   1.297   0.633   3.477 -0.8810 -0.8873 -0.7521
11323TIP3    H255461   1.441   0.602   3.513 -1.2221  0.9914  2.6047
11324TIP3   OH255462   3.574   0.060  14.352  0.1461  0.2102 -0.1912
11324TIP3    H155463   3.658   0.016  14.339 -0.1481 -0.4109 -0.0401
11324TIP3    H255464   3.513   0.013  14.296 -0.7975 -1.4883  2.0890
11325TIP3   OH255465   6.763   2.687   2.919  0.1331  0.0053  0.0417
11325TIP3    H155466   6.809   2.724   2.843 -1.6293 -1.8983 -2.0968
11325TIP3    H255467   6.817   2.612   2.945 -0.2631 -0.5055 -0.6007
11326TIP3   OH255468   3.711   4.460  15.820  0.0277  0.2083 -0.6400
11326TIP3    H155469   3.727   4.555  15.814 -0.2197  0.3064  0.1696
11326TIP3    H255470   3.798   4.421  15.818  0.0908  0.3787 -2.0321
11327TIP3   OH255471   3.334   0.043  16.775  0.0889 -0.2735 -0.0464
11327TIP3    H155472   3.316  -0.025  16.840 -1.8488  0.2646  0.0599
11327TIP3    H255473   3.393   0.001  16.713  0.5245 -1.3962  1.0713
11328TIP3   OH255474   1.069   5.112  15.338 -0.0796 -1.0674 -0.3732
11328TIP3    H155475   1.061   5.202  15.370 -1.6127 -1.9719  1.9972
11328TIP3    H255476   1.121   5.120  15.257 -0.4212  1.9461 -0.3967
11329TIP3   OH255477   0.071   2.768  17.256  0.2273  0.9227 -0.5725
11329TIP3    H155478  -0.020   2.793  17.276  0.1844 -0.0132  0.5159
11329TIP3    H255479   0.064   2.680  17.218  0.6180  1.1978 -1.2888
11330TIP3   OH255480   5.301   1.096  14.528 -0.2045 -0.8079  0.2809
11330TIP3    H155481   5.220   1.144  14.544 -0.0441 -0.8604  1.2610
11330TIP3    H255482   5.335   1.075  14.615  0.2575 -1.8000 -0.1186
11331TIP3   OH255483   4.187   3.446  13.976 -0.7231  0.6490  0.1589
11331TIP3    H155484   4.093   3.463  13.970 -0.6482  0.8356 -0.5458
11331TIP3    H255485   4.198   3.359  13.938 -0.6243  0.5948  0.3136
11332TIP3   OH255486   4.117   5.787  12.118 -0.4000  0.2769 -0.0294
11332TIP3    H155487   4.093   5.832  12.037  1.0178  0.2036 -0.5244
11332TIP3    H255488   4.057   5.822  12.183 -0.2771  1.8515 -0.7099
11333TIP3   OH255489   5.304   0.948  13.431  0.0427 -0.1653 -0.2383
11333TIP3    H155490   5.240   0.932  13.362 -0.5666 -2.1201  0.7156
11333TIP3    H255491   5.260   1.008  13.492  0.3280  1.0071 -1.1514
11334TIP3   OH255492   6.271   5.685  13.906 -0.1764  0.7330 -0.0710
11334TIP3    H155493   6.281   5.780  13.894  1.3141  0.5105 -0.7900
11334TIP3    H255494   6.305   5.647  13.825 -0.0502 -0.4476  0.5170
11335TIP3   OH255495   5.317   1.959   5.702 -0.2659 -0.5639 -0.3362
11335TIP3    H155496   5.345   2.050   5.704 -0.9891 -0.3481  0.7153
11335TIP3    H255497   5.248   1.953   5.768  0.6478 -2.1560  0.5476
11336TIP3   OH255498   0.680   3.923  13.506 -0.2585 -0.3688 -0.5056
11336TIP3    H155499   0.727   3.934  13.589 -2.4349  3.1192  0.4627
11336TIP3    H255500   0.590   3.902  13.532 -1.6630  3.3868 -1.6369
11337TIP3   OH255501   6.195   2.176  10.980  0.2868  0.4891  0.1654
11337TIP3    H155502   6.228   2.188  10.890  0.6950  1.2819  0.4092
11337TIP3    H255503   6.191   2.265  11.016  0.0444  0.1836  0.9102
11338TIP3   OH255504   5.632   5.083   6.330 -0.0456 -0.0827  0.2716
11338TIP3    H155505   5.619   5.134   6.410 -4.0460 -2.2183  1.2420
11338TIP3    H255506   5.652   4.995   6.360 -1.6514 -0.9458 -1.0003
11339TIP3   OH255507   2.090   0.354   3.530  0.0278  0.4672 -0.1447
11339TIP3    H155508   2.128   0.271   3.504 -0.0904  0.4128 -0.1467
11339TIP3    H255509   2.004   0.331   3.565  0.3342  0.4947  0.6444
11340TIP3   OH255510   0.670   3.891   2.118 -0.0925  0.2996  0.1129
11340TIP3    H155511   0.593   3.930   2.160 -0.0014  0.7380 -0.1246
11340TIP3    H255512   0.648   3.888   2.025  0.2544  0.6026  0.0226
11341TIP3   OH255513   5.330   4.976   1.361  0.7123 -0.2497  0.7321
11341TIP3    H155514   5.314   5.071   1.365 -0.8543 -0.4782  0.4141
11341TIP3    H255515   5.275   4.946   1.289  2.4980 -1.1846 -0.3327
11342TIP3   OH255516   2.553   4.123  11.526  0.0023  0.5831 -0.8775
11342TIP3    H155517   2.478   4.183  11.524  0.4359  1.1837  0.1286
11342TIP3    H255518   2.515   4.036  11.528 -0.6615  0.8733 -0.7274
11343TIP3   OH255519   3.368   5.553  11.214 -0.1653  0.3463  0.0862
11343TIP3    H155520   3.395   5.498  11.140 -0.4404 -0.6314  0.6859
11343TIP3    H255521   3.443   5.609  11.232  0.5568 -0.6350  0.1746
11344TIP3   OH255522   3.214   3.785  15.122  0.3173  0.2460 -0.2131
11344TIP3    H155523   3.309   3.786  15.129  0.3292 -2.9314  1.5402
11344TIP3    H255524   3.183   3.817  15.206 -0.0971 -0.7619  0.0323
11345TIP3   OH255525   2.393   5.604   2.166 -0.1577  0.1668  0.0305
11345TIP3    H155526   2.417   5.666   2.097 -0.1916  1.9229  1.5177
11345TIP3    H255527   2.475   5.585   2.210 -0.6351  2.6614  2.2909
11346TIP3   OH255528   3.434   0.059   2.096  0.3470  0.6922 -0.2452
11346TIP3    H155529   3.391   0.120   2.156 -1.5228 -2.2416  1.6784
11346TIP3    H255530   3.527   0.073   2.111 -0.0009  2.9318  0.1899
11347TIP3   OH255531   3.112   0.233   0.448 -0.6679 -0.0535 -0.2014
11347TIP3    H155532   3.079   0.313   0.407 -1.1158 -1.5907 -3.1616
11347TIP3    H255533   3.037   0.174   0.449 -0.1525 -0.7147  1.1527
11348TIP3   OH255534   3.399   4.051  11.493 -0.2469 -0.4654 -0.1346
11348TIP3    H155535   3.401   4.005  11.409 -0.9349  1.7826 -1.4652
11348TIP3    H255536   3.323   4.109  11.487  1.2900  1.7792  0.8823
11349TIP3   OH255537   6.024   6.565  16.490 -0.1760  0.2101  0.1225
11349TIP3    H155538   6.033   6.648  16.443 -0.8832  0.4104  0.3274
11349TIP3    H255539   6.021   6.499  16.422 -0.0509  0.3946 -0.0634
11350TIP3   OH255540   5.335   2.109  11.914 -0.0721 -0.3762 -0.0728
11350TIP3    H155541   5.366   2.144  11.998 -1.6904 -1.3794  1.0104
11350TIP3    H255542   5.290   2.028  11.938  2.2349 -2.5158 -2.2793
11351TIP3   OH255543   4.117   2.386  15.620  0.0558 -0.3247 -0.2280
11351TIP3    H155544   4.086   2.442  15.691  0.3574  1.4106 -1.4038
11351TIP3    H255545   4.190   2.435  15.581  1.4718 -2.3344 -0.2546
11352TIP3   OH255546   4.112   6.496   4.419 -0.0252 -0.0398  0.2749
11352TIP3    H155547   4.086   6.407   4.395 -1.4741  1.2535 -3.6825
11352TIP3    H255548   4.042   6.527   4.476 -1.5856 -0.1784 -1.5135
11353TIP3   OH255549   2.629   3.381  13.992 -0.0395 -0.1797  0.1271
11353TIP3    H155550   2.707   3.366  14.046  0.1687  0.5887  0.0584
11353TIP3    H255551   2.636   3.316  13.922  1.0699  0.5164 -0.4303
11354TIP3   OH255552   4.508   3.849   4.149 -0.4444  0.6527  0.4474
11354TIP3    H155553   4.560   3.914   4.196 -1.6460  2.7522 -0.9431
11354TIP3    H255554   4.462   3.899   4.082 -1.4812 -1.6624 -0.7052
11355TIP3   OH255555   0.859   3.086  11.547 -0.2598  0.4088 -0.2486
11355TIP3    H155556   0.914   3.122  11.477 -0.7669 -0.4097 -1.0978
11355TIP3    H255557   0.811   3.015  11.505  1.4763 -2.0124  1.5666
11356TIP3   OH255558   1.826   5.383  14.905 -0.0100  0.2069 -0.1543
11356TIP3    H155559   1.791   5.395  14.817 -0.5451  0.8701  0.1375
11356TIP3    H255560   1.905   5.330  14.893 -0.4987 -0.3658 -0.9456
11357TIP3   OH255561   0.690   0.805  12.361  0.3108  0.1573 -0.6152
11357TIP3    H155562   0.632   0.862  12.412 -0.0622  0.7588 -1.6774
11357TIP3    H255563   0.634   0.768  12.293  0.8972 -0.2421 -0.8887
11358TIP3   OH255564   6.579   3.317  13.238  0.3057 -0.4377 -0.1298
11358TIP3    H155565   6.627   3.387  13.282  0.3364 -1.6347  1.8386
11358TIP3    H255566   6.520   3.363  13.179  0.1843  1.2721  1.2278
11359TIP3   OH255567   1.058   2.147  14.598  0.4026 -0.3740 -0.4412
11359TIP3    H155568   1.098   2.080  14.653 -1.5161 -1.6634 -0.5028
11359TIP3    H255569   1.037   2.218  14.658 -1.5168 -1.6962  0.5747
11360TIP3   OH255570   2.720   1.404   6.049  0.4302 -0.3833  0.4877
11360TIP3    H155571   2.745   1.475   5.990  0.4525 -0.6732  0.1461
11360TIP3    H255572   2.756   1.429   6.134  2.3095 -1.0017 -0.0814
11361TIP3   OH255573   6.362   1.292   2.561  0.6929  0.1907 -0.0655
11361TIP3    H155574   6.311   1.260   2.486 -0.1326 -0.4491  0.7397
11361TIP3    H255575   6.451   1.299   2.528  0.2099  0.7040 -1.3359
11362TIP3   OH255576   2.066   2.192  14.575  0.6916 -0.1321 -0.3916
11362TIP3    H155577   1.971   2.200  14.569  0.6633 -0.6709 -0.6345
11362TIP3    H255578   2.089   2.121  14.516  1.1274 -0.7381  0.4743
11363TIP3   OH255579   6.641   3.477   6.163  0.2263  0.2532 -0.4125
11363TIP3    H155580   6.709   3.434   6.112 -0.3737  0.0046 -1.0233
11363TIP3    H255581   6.688   3.528   6.229  0.9857 -0.1281 -0.6528
11364TIP3   OH255582   4.657   6.506  16.468  0.1391 -0.3878  0.1655
11364TIP3    H155583   4.662   6.441  16.538  0.4535 -1.1469 -0.5477
11364TIP3    H255584   4.601   6.574  16.503  0.8073 -0.4437  1.4044
11365TIP3   OH255585   0.390   2.925  16.454  0.9636 -0.9342 -0.0073
11365TIP3    H155586   0.341   2.995  16.410  0.2872 -1.3475  0.0747
11365TIP3    H255587   0.481   2.954  16.452  0.8049 -0.4688 -0.7726
11366TIP3   OH255588   1.443   3.066   0.776  0.2302  0.3994  0.0942
11366TIP3    H155589   1.459   2.986   0.726 -0.4511  0.2137  0.1625
11366TIP3    H255590   1.348   3.080   0.770  0.3932  1.4718 -0.3395
11367TIP3   OH255591   6.131   5.490   1.306  0.5573 -0.1230 -0.5421
11367TIP3    H155592   6.063   5.423   1.309 -1.8899  2.1614 -1.3932
11367TIP3    H255593   6.175   5.476   1.222 -0.2115 -0.4172 -0.9070
11368TIP3   OH255594   0.504   1.597  11.996  0.3980 -0.1432 -0.4454
11368TIP3    H155595   0.569   1.652  12.040  0.1091 -0.0883 -0.0733
11368TIP3    H255596   0.420   1.625  12.034 -0.1779  1.6409 -2.7783
11369TIP3   OH255597   2.431   0.153   0.825  0.4719  0.0140 -0.3982
11369TIP3    H155598   2.505   0.119   0.774 -0.6630 -1.5789 -1.0906
11369TIP3    H255599   2.382   0.208   0.763  0.3563 -0.0277 -0.3444
11370TIP3   OH255600   6.002   6.042  11.060  0.1638  0.5223 -0.1926
11370TIP3    H155601   5.957   6.126  11.055  1.2934  1.0955 -1.3171
11370TIP3    H255602   6.091   6.064  11.088  0.4117 -0.3217 -0.2785
11371TIP3   OH255603   4.404   5.983   5.829 -0.6016  0.3418  0.0249
11371TIP3    H155604   4.490   5.956   5.860 -0.8137 -0.7593 -0.2770
11371TIP3    H255605   4.420   6.061   5.777  0.0104  1.0456  1.2349
11372TIP3   OH255606   0.952   0.928  15.288 -0.2478 -0.0473  0.0482
11372TIP3    H155607   1.020   0.860  15.283 -0.4682 -0.3362  0.7602
11372TIP3    H255608   0.928   0.931  15.381 -2.7590 -1.4930 -0.4521
11373TIP3   OH255609   0.339   2.968   5.515  0.0399 -0.1112  0.0768
11373TIP3    H155610   0.267   2.983   5.576 -1.5581 -2.2110 -1.1684
11373TIP3    H255611   0.299   2.971   5.428  1.6288 -0.4300 -0.7158
11374TIP3   OH255612   0.474   4.398  14.486 -0.2273  0.0099 -0.5012
11374TIP3    H155613   0.502   4.327  14.428  2.1004 -0.4301  1.0169
11374TIP3    H255614   0.398   4.437  14.443 -0.0375 -1.8079 -2.6059
11375TIP3   OH255615   1.328   0.567  14.571  0.6568 -0.1202 -0.2857
11375TIP3    H155616   1.397   0.634  14.570  1.1061 -0.5681 -1.4246
11375TIP3    H255617   1.343   0.519  14.653  0.2906  1.1832  0.5751
11376TIP3   OH255618   5.800   2.519  16.924 -0.1144  0.5586  0.6168
11376TIP3    H155619   5.776   2.429  16.946 -4.1381  1.2593 -0.1343
11376TIP3    H255620   5.816   2.517  16.829  0.3324  0.5665  0.6894
11377TIP3   OH255621   5.372   2.687  16.660 -0.1976 -0.0419 -0.0919
11377TIP3    H155622   5.309   2.742  16.705 -3.0247 -1.3011 -2.1524
11377TIP3    H255623   5.326   2.658  16.581  3.3323 -0.3575 -2.2645
11378TIP3   OH255624   6.765   4.332   2.229 -0.6877  0.5164  0.0641
11378TIP3    H155625   6.831   4.273   2.266  1.4355  1.4946 -1.9828
11378TIP3    H255626   6.732   4.287   2.152 -1.7907  0.4597  0.5368
11379TIP3   OH255627   3.092   4.072  15.787  0.1580 -0.3577  0.2846
11379TIP3    H155628   3.002   4.054  15.816 -0.1112 -1.2288 -1.0436
11379TIP3    H255629   3.084   4.148  15.730  0.0708 -1.1095 -0.7382
11380TIP3   OH255630   4.302   0.580   5.021  0.3512 -0.3925  0.7850
11380TIP3    H155631   4.350   0.660   5.040  0.0515 -0.2612  0.9976
11380TIP3    H255632   4.226   0.582   5.079  0.2439 -0.7422  0.6657
11381TIP3   OH255633   3.620   2.034   0.588  0.9170 -0.3096  0.7399
11381TIP3    H155634   3.538   2.034   0.540  0.8433 -0.9903  0.8461
11381TIP3    H255635   3.621   1.949   0.633  1.0251  0.2599  1.8612
11382TIP3   OH255636   1.380   5.063  10.884  0.2504  0.4741  0.2322
11382TIP3    H155637   1.461   5.016  10.865  0.2436  0.8669 -0.7839
11382TIP3    H255638   1.326   4.998  10.930 -0.1446 -0.8787 -2.0169
11383TIP3   OH255639   2.685   3.280  14.850 -0.3592 -0.2794  0.1389
11383TIP3    H155640   2.655   3.314  14.765 -2.4074  0.3525  1.0518
11383TIP3    H255641   2.780   3.296  14.849 -0.5945  1.4474 -1.2806
11384TIP3   OH255642   2.191   5.409  12.054  0.1812  0.3459 -0.2382
11384TIP3    H155643   2.260   5.344  12.039  0.4030  0.4094  0.4905
11384TIP3    H255644   2.121   5.383  11.994 -0.1222 -1.1530  0.7154
11385TIP3   OH255645   3.798   0.359   1.462  0.3941 -0.0152 -0.0678
11385TIP3    H155646   3.783   0.301   1.537 -0.0448  3.8824  3.2442
11385TIP3    H255647   3.892   0.357   1.448  0.1619 -4.3626 -2.9313
11386TIP3   OH255648   1.086   6.369   4.466 -0.3959 -0.1721 -0.4325
11386TIP3    H155649   1.081   6.310   4.541 -1.3622  0.1983 -0.1890
11386TIP3    H255650   0.995   6.387   4.443 -0.1250 -0.4327 -1.8306
11387TIP3   OH255651   2.403   3.816  12.840  0.0579 -0.0582 -0.3499
11387TIP3    H155652   2.450   3.734  12.823 -0.1642 -0.4740  0.9556
11387TIP3    H255653   2.329   3.814  12.780  0.4869 -0.4288 -0.8827
11388TIP3   OH255654   2.882   0.579   0.053  0.4466  0.3061 -0.3320
11388TIP3    H155655   2.798   0.559   0.094 -0.2418  1.7313 -0.9910
11388TIP3    H255656   2.947   0.560   0.121 -0.5127  0.6435  0.7032
11389TIP3   OH255657   4.130   2.445  12.035 -0.0208 -0.4229 -0.0910
11389TIP3    H155658   4.155   2.531  12.069 -0.5957 -0.1501 -0.3527
11389TIP3    H255659   4.213   2.403  12.012  0.2091  0.5199 -1.0664
11390TIP3   OH255660   5.970   1.683   3.548 -0.6415  0.4188 -0.0961
11390TIP3    H155661   6.060   1.703   3.523 -0.8799  0.8938 -0.5672
11390TIP3    H255662   5.919   1.759   3.522 -1.2101  0.0908  0.0288
11391TIP3   OH255663   1.437   3.467  16.859 -0.0692  0.3577  0.0381
11391TIP3    H155664   1.407   3.385  16.821  1.3914  0.0003 -0.4113
11391TIP3    H255665   1.404   3.535  16.801 -1.3410  0.1107  0.4503
11392TIP3   OH255666   3.288   3.610  12.955  0.7773  0.0039 -0.4437
11392TIP3    H155667   3.318   3.673  12.890  1.7545 -0.0546 -0.0589
11392TIP3    H255668   3.359   3.605  13.019  0.7186 -1.4569 -0.4577
11393TIP3   OH255669   0.875   4.134   2.813 -0.2019 -0.3698  0.1701
11393TIP3    H155670   0.847   4.064   2.754  2.1917 -0.2647 -1.2440
11393TIP3    H255671   0.969   4.118   2.825 -0.2002  0.8980  2.2398
11394TIP3   OH255672   3.314   2.688  11.360  0.0503  1.0183 -0.3943
11394TIP3    H155673   3.257   2.644  11.423 -1.3383  1.2972 -1.4103
11394TIP3    H255674   3.274   2.670  11.275  0.0028  3.3799 -0.9338
11395TIP3   OH255675   0.022   5.141   2.668  0.4637  0.2398  0.0390
11395TIP3    H155676   0.060   5.220   2.708  0.1032  0.1456  0.5848
11395TIP3    H255677   0.020   5.077   2.740 -2.1384  0.7119  0.4816
11396TIP3   OH255678   1.015   4.736   1.953 -0.0361 -0.5119  0.1835
11396TIP3    H155679   1.046   4.673   1.887  2.4313  0.2633  0.5023
11396TIP3    H255680   1.095   4.766   1.996 -1.2203  2.1362  0.6913
11397TIP3   OH255681   4.803   3.360  14.636 -0.0602 -0.0651  0.1388
11397TIP3    H155682   4.872   3.387  14.576  1.8439 -1.2436  1.7025
11397TIP3    H255683   4.751   3.298  14.586 -1.0675  2.0328 -1.5953
11398TIP3   OH255684   3.775   3.373   2.595 -0.0498  0.1334  0.1872
11398TIP3    H155685   3.765   3.321   2.515 -0.4151 -1.2619  1.1075
11398TIP3    H255686   3.870   3.388   2.601  0.0806 -0.5268 -0.0451
11399TIP3   OH255687   6.813   3.888  15.869 -0.2338  0.8702  0.3640
11399TIP3    H155688   6.843   3.826  15.936  1.0988  0.4956 -0.5339
11399TIP3    H255689   6.738   3.846  15.828  0.8192 -0.3053 -0.4192
11400TIP3   OH255690   6.044   6.352  15.777  0.0123  0.1686 -0.7381
11400TIP3    H155691   5.978   6.352  15.846  0.3163  1.4046 -0.4167
11400TIP3    H255692   6.106   6.284  15.802  0.7512  1.3638  0.8634
11401TIP3   OH255693   6.177   5.332   2.465  0.8722  0.0618  0.1860
11401TIP3    H155694   6.222   5.262   2.418  0.7607 -0.0011  0.1733
11401TIP3    H255695   6.225   5.339   2.548 -0.6114 -1.7365  1.2859
11402TIP3   OH255696   4.316   0.151   3.974 -0.1930 -0.1720 -0.6996
11402TIP3    H155697   4.406   0.119   3.963 -0.7755 -1.6036 -1.5287
11402TIP3    H255698   4.322   0.216   4.044  1.4112 -0.5581 -0.4425
11403TIP3   OH255699   3.775   0.347   2.093  0.0202  0.3827 -0.4651
11403TIP3    H155700   3.771   0.401   2.014  0.0970  0.0441 -0.7038
11403TIP3    H255701   3.860   0.366   2.131 -0.0019  0.5202 -0.4863
11404TIP3   OH255702   4.661   5.389   3.609  0.0942  0.4752  0.4431
11404TIP3    H155703   4.595   5.321   3.597  0.7925 -0.3901  1.2986
11404TIP3    H255704   4.695   5.405   3.521 -0.7678  0.4319  0.0964
11405TIP3   OH255705   5.444   3.779  11.388 -0.1743 -0.0618 -0.1266
11405TIP3    H155706   5.386   3.705  11.406  0.3783 -0.1767  1.2576
11405TIP3    H255707   5.526   3.756  11.431  0.3850  0.8467 -0.6734
11406TIP3   OH255708   4.150   6.022  16.872  0.2770 -0.6740  0.4752
11406TIP3    H155709   4.232   6.016  16.921  0.6541  4.9076  1.0989
11406TIP3    H255710   4.082   6.013  16.939  0.5571  0.0498  0.8599
11407TIP3   OH255711   2.044   4.832  15.794  0.8729 -0.1272  0.2785
11407TIP3    H155712   2.082   4.874  15.871  1.2110 -0.5151  0.3263
11407TIP3    H255713   2.059   4.895  15.723 -0.5963  0.8144  0.7636
11408TIP3   OH255714   4.631   5.326   2.786  0.0645 -0.0115  0.1773
11408TIP3    H155715   4.623   5.253   2.847 -0.7237  0.5425  0.7671
11408TIP3    H255716   4.721   5.321   2.753  0.5195 -0.3087  1.4171
11409TIP3   OH255717   6.765   1.558   2.221 -0.3395  0.7100  0.2127
11409TIP3    H155718   6.734   1.597   2.302 -0.5825  0.7856  0.0855
11409TIP3    H255719   6.693   1.502   2.192 -1.4800  2.8610 -1.4313
11410TIP3   OH255720   0.087   5.605   0.475 -0.3489  0.0022 -0.4087
11410TIP3    H155721   0.132   5.584   0.557  1.5604 -1.3415 -1.7177
11410TIP3    H255722   0.134   5.680   0.440 -1.9452  1.3815  0.2450
11411TIP3   OH255723   6.732   0.952  15.421 -0.3788  0.2163  0.4870
11411TIP3    H155724   6.763   1.032  15.465 -2.6831  1.4284  0.0420
11411TIP3    H255725   6.670   0.983  15.355 -0.6600 -1.9114 -0.3316
11412TIP3   OH255726   2.321   2.637  11.765 -0.4040 -0.0077 -0.2307
11412TIP3    H155727   2.397   2.677  11.807 -0.6315  0.3526 -0.1586
11412TIP3    H255728   2.338   2.543  11.769 -0.4233  0.0183  0.6724
11413TIP3   OH255729   6.310   6.530   5.298 -1.1147  0.5213  0.2811
11413TIP3    H155730   6.351   6.480   5.368  0.2871  2.7085  1.1546
11413TIP3    H255731   6.368   6.605   5.286 -1.3090  0.2731 -3.2355
11414TIP3   OH255732   3.604   0.207  13.340 -0.0096 -0.3257  0.0985
11414TIP3    H155733   3.660   0.148  13.289 -0.2760  0.8160 -1.6112
11414TIP3    H255734   3.663   0.277  13.369  0.0188 -0.6594  0.8650
11415TIP3   OH255735   0.722   1.617  13.873  0.1115  0.7030 -0.1468
11415TIP3    H155736   0.653   1.599  13.809  0.3834  0.9098 -0.5012
11415TIP3    H255737   0.676   1.619  13.958 -0.8248  3.4823 -0.5864
11416TIP3   OH255738   1.497   3.583  13.914  0.3979 -0.1736 -0.5148
11416TIP3    H155739   1.583   3.556  13.946  0.8131  0.7863 -0.7866
11416TIP3    H255740   1.493   3.549  13.825  1.3431  1.4698 -1.2288
11417TIP3   OH255741   3.381   1.939   1.785 -0.0977 -0.1924  0.0645
11417TIP3    H155742   3.388   1.982   1.871  3.0711 -0.8325  0.2415
11417TIP3    H255743   3.357   1.848   1.805  1.3206 -0.5164  0.3692
11418TIP3   OH255744   3.451   0.929  13.156 -0.5300 -0.1385  0.6106
11418TIP3    H155745   3.422   0.956  13.243  2.0439  1.3278  1.1266
11418TIP3    H255746   3.420   0.999  13.098  1.3632  1.1708  1.0844
11419TIP3   OH255747   5.875   1.553   5.847 -0.3313  0.1802 -0.9036
11419TIP3    H155748   5.945   1.590   5.792  1.8101  0.8356  1.9954
11419TIP3    H255749   5.808   1.621   5.848  0.7303  1.2646 -0.7050
11420TIP3   OH255750   3.285   2.497  14.635  0.5646 -0.4122  0.6607
11420TIP3    H155751   3.323   2.424  14.683  1.6097 -0.5375 -0.3118
11420TIP3    H255752   3.232   2.457  14.566  3.5422 -0.4579 -1.8548
11421TIP3   OH255753   4.406   3.363  11.338  0.2049  0.1772 -0.2535
11421TIP3    H155754   4.343   3.325  11.277  1.8708  1.7308 -3.1924
11421TIP3    H255755   4.353   3.411  11.401 -1.6393  0.7950 -2.1444
11422TIP3   OH255756   3.915   0.454  16.802 -0.0766 -0.6495  0.0180
11422TIP3    H155757   3.971   0.531  16.814 -0.5798 -0.1194 -0.8657
11422TIP3    H255758   3.875   0.440  16.888  1.2672 -0.9360  0.6117
11423TIP3   OH255759   5.572   0.417  14.560  0.3144  0.0032 -0.8326
11423TIP3    H155760   5.583   0.508  14.587 -0.6455 -0.2974  0.6225
11423TIP3    H255761   5.525   0.423  14.477  1.1199  0.8454 -1.2568
11424TIP3   OH255762   6.796   4.947  12.984 -0.3782 -0.1232 -0.1895
11424TIP3    H155763   6.888   4.953  13.007 -0.2495 -1.2219 -0.3664
11424TIP3    H255764   6.749   4.957  13.067 -0.1699  1.5866 -0.2439
11425TIP3   OH255765   4.646   5.555   2.060  0.4004  0.0261 -0.4752
11425TIP3    H155766   4.635   5.475   2.111 -2.1264 -0.5617 -1.7669
11425TIP3    H255767   4.727   5.541   2.011  1.0330 -0.8664  0.7650
11426TIP3   OH255768   5.315   4.200  15.365  0.2425 -0.1773 -0.3489
11426TIP3    H155769   5.291   4.290  15.343 -0.3266 -0.4386 -0.8003
11426TIP3    H255770   5.403   4.189  15.329  1.6149  1.1474  2.2777
11427TIP3   OH255771   6.599   0.760  11.064 -0.1396  0.2093  0.1884
11427TIP3    H155772   6.611   0.818  11.139  0.1793 -0.4346  0.6342
11427TIP3    H255773   6.687   0.740  11.034 -0.2512  0.0256 -0.0225
11428TIP3   OH255774   0.900   3.976   1.616 -0.0169  0.0288 -0.4379
11428TIP3    H155775   0.829   3.913   1.625  1.8875 -2.1962 -0.2607
11428TIP3    H255776   0.868   4.038   1.550 -2.5583 -0.1669  0.4982
11429TIP3   OH255777   1.229   0.074   4.105  0.0992  0.5926 -0.3975
11429TIP3    H155778   1.267   0.139   4.165 -0.0601  0.6976 -0.4078
11429TIP3    H255779   1.275   0.088   4.022  0.1090  0.6512 -0.3826
11430TIP3   OH255780   4.967   0.246  12.324  0.3572 -0.0396  0.4312
11430TIP3    H155781   5.026   0.264  12.397 -0.1667  1.4982  0.5089
11430TIP3    H255782   5.012   0.282  12.247 -0.3085  0.8112  0.4341
11431TIP3   OH255783   2.545   5.086  12.883  0.7023  0.2668  0.5236
11431TIP3    H155784   2.619   5.038  12.845  0.7900  0.3511  0.5871
11431TIP3    H255785   2.469   5.055  12.834  0.4889 -1.2929  1.7375
11432TIP3   OH255786   4.320   5.155  12.772 -0.0939  0.2927 -0.4132
11432TIP3    H155787   4.271   5.236  12.760  0.0336  0.7467  1.8162
11432TIP3    H255788   4.260   5.096  12.817  0.2556 -0.3890 -0.8260
11433TIP3   OH255789   5.980   4.854   2.037  0.1975  0.5443 -0.1102
11433TIP3    H155790   6.052   4.791   2.031 -0.2396 -0.1474  1.4950
11433TIP3    H255791   5.987   4.905   1.956  0.9573 -1.1183 -1.1508
11434TIP3   OH255792   5.412   3.282   6.072 -0.7989 -0.0599  0.1780
11434TIP3    H155793   5.364   3.232   6.139 -2.0121  0.5482 -0.1959
11434TIP3    H255794   5.358   3.273   5.993 -0.8864  1.5587  0.0221
11435TIP3   OH255795   0.449   1.914   1.284  0.0367 -0.3402 -0.1154
11435TIP3    H155796   0.458   1.891   1.377 -0.6121 -1.3784 -0.3010
11435TIP3    H255797   0.399   1.842   1.246  2.5554 -1.2941 -1.8513
11436TIP3   OH255798   2.365   3.711  12.301  0.5686 -0.4102 -0.3197
11436TIP3    H155799   2.333   3.668  12.222  0.8997  0.5251 -0.9894
11436TIP3    H255800   2.339   3.803  12.290  0.2854 -0.3408  0.8397
11437TIP3   OH255801   4.011   6.173   2.241  0.1169  0.0030 -0.0375
11437TIP3    H155802   4.098   6.203   2.215  0.4482 -1.1252 -0.3088
11437TIP3    H255803   3.958   6.181   2.161  0.0753  0.3103  0.0203
11438TIP3   OH255804   4.705   3.077   3.186 -0.6950 -0.6076 -0.6376
11438TIP3    H155805   4.656   3.129   3.250 -0.3512 -1.0762  0.0209
11438TIP3    H255806   4.797   3.097   3.206 -0.5084 -2.4067  0.4456
11439TIP3   OH255807   0.756   3.372  16.477 -0.2375 -0.4984  0.6171
11439TIP3    H155808   0.834   3.317  16.471  0.5984  0.5579  1.3527
11439TIP3    H255809   0.701   3.329  16.542  0.1539 -0.7731  0.7747
11440TIP3   OH255810   1.922   4.978  12.327 -0.2022  0.3220  0.9617
11440TIP3    H155811   1.854   5.041  12.354 -0.2252  0.2276  1.1257
11440TIP3    H255812   1.874   4.897  12.309 -0.1501  0.2968  0.9353
11441TIP3   OH255813   3.832   5.830   3.594 -0.1854  0.3248  0.2301
11441TIP3    H155814   3.915   5.857   3.555  0.4894 -1.0535  0.6315
11441TIP3    H255815   3.830   5.735   3.582 -2.6175  0.4900 -1.4952
11442TIP3   OH255816   1.566   1.005  15.490  0.7980 -0.0294  0.5432
11442TIP3    H155817   1.572   0.932  15.428  2.3625 -0.6036  1.3323
11442TIP3    H255818   1.602   1.080  15.442  3.7769 -0.8737  1.2868
11443TIP3   OH255819   4.967   0.647  13.002 -0.2349  0.4795  0.4056
11443TIP3    H155820   4.897   0.686  12.950  0.2408 -0.3213 -0.8859
11443TIP3    H255821   4.929   0.637  13.090 -0.9605  2.1259  0.3121
11444TIP3   OH255822   6.020   5.527  12.361 -0.1061  0.3527  0.0888
11444TIP3    H155823   5.934   5.487  12.351  0.5580 -1.1256  0.0102
11444TIP3    H255824   6.011   5.585  12.436 -0.9842 -0.3225  0.5275
11445TIP3   OH255825   4.420   2.007   4.714  0.5760 -0.5263 -0.3773
11445TIP3    H155826   4.503   1.994   4.668  1.0183 -0.1709  0.2983
11445TIP3    H255827   4.428   1.954   4.793  0.4398  0.0368  0.0211
11446TIP3   OH255828   0.468   2.548   1.133 -0.7463  0.0755 -0.1318
11446TIP3    H155829   0.433   2.506   1.212 -0.6466 -1.2272 -0.7562
11446TIP3    H255830   0.563   2.548   1.146 -0.5512 -1.9693 -1.0600
11447TIP3   OH255831   1.616   3.652   2.846  0.1832 -0.4469  0.3325
11447TIP3    H155832   1.704   3.671   2.877 -0.6532  0.3605  2.3843
11447TIP3    H255833   1.615   3.681   2.755  1.5107  1.2370  0.8197
11448TIP3   OH255834   2.193   3.512   0.079 -0.4620  0.3674 -0.2297
11448TIP3    H155835   2.283   3.491   0.104 -1.0816 -0.6070  1.2900
11448TIP3    H255836   2.199   3.601   0.043  1.3328 -0.2507 -1.6465
11449TIP3   OH255837   2.563   1.319  15.978  0.6212  0.3020 -0.2967
11449TIP3    H155838   2.544   1.358  16.063 -0.4905  0.6027 -0.6621
11449TIP3    H255839   2.505   1.242  15.974  1.3295 -0.2345 -0.4103
11450TIP3   OH255840   4.822   2.830   4.657 -0.4856  0.3300  0.6074
11450TIP3    H155841   4.803   2.835   4.564 -0.1186  0.4328  0.5370
11450TIP3    H255842   4.864   2.745   4.669 -2.7992 -0.8117  1.0978
11451TIP3   OH255843   2.082   4.722   0.063  0.2113 -0.1338  0.9241
11451TIP3    H155844   2.015   4.766   0.012  1.0602  0.6520  0.4647
11451TIP3    H255845   2.060   4.629   0.057 -0.0172 -0.0025 -0.4083
11452TIP3   OH255846   4.981   0.106   5.384 -0.3702  0.1879 -0.2931
11452TIP3    H155847   4.923   0.181   5.390 -1.6937 -0.8093 -0.1618
11452TIP3    H255848   4.924   0.032   5.362  0.9524 -0.7065 -0.9235
11453TIP3   OH255849   3.641   0.950  14.810  0.3121 -0.1252  0.1077
11453TIP3    H155850   3.662   0.859  14.788 -0.8057 -0.5931  0.8471
11453TIP3    H255851   3.562   0.969  14.760 -0.4284 -0.1478  1.2244
11454TIP3   OH255852   4.780   1.300   5.195  0.0716 -0.3175 -0.5695
11454TIP3    H155853   4.707   1.248   5.163  2.1847 -3.6383 -0.4468
11454TIP3    H255854   4.855   1.273   5.142  2.0007 -0.0482  1.8107
11455TIP3   OH255855   6.044   4.089  15.199 -0.3062  0.7011 -0.1655
11455TIP3    H155856   6.117   4.150  15.199  0.9585 -0.7369  1.1097
11455TIP3    H255857   6.081   4.007  15.230 -2.4318 -0.1349  0.3203
11456TIP3   OH255858   2.176   6.455   2.109  0.0666  0.4139  0.2792
11456TIP3    H155859   2.210   6.450   2.199 -0.9807  2.1711  0.8247
11456TIP3    H255860   2.095   6.404   2.111  0.8373 -0.8594 -0.1057
11457TIP3   OH255861   0.277   5.084  15.804  0.0911 -0.1740  0.2047
11457TIP3    H155862   0.206   5.034  15.764  0.5732 -1.0462  0.4209
11457TIP3    H255863   0.232   5.150  15.857 -0.5547 -0.3796 -0.0728
11458TIP3   OH255864   0.372   6.775   0.238 -0.6227  0.2769 -0.0827
11458TIP3    H155865   0.459   6.799   0.207  0.5328 -0.5362  2.2835
11458TIP3    H255866   0.379   6.777   0.334 -3.1088 -0.1627  0.1732
11459TIP3   OH255867   4.808   1.218   3.274 -0.1369 -0.2777 -0.8446
11459TIP3    H155868   4.868   1.242   3.203 -1.3408  0.8019 -1.5399
11459TIP3    H255869   4.774   1.302   3.306  0.5630 -0.7178  1.2027
11460TIP3   OH255870   1.591   6.734   4.980 -0.1184  0.9424 -0.0293
11460TIP3    H155871   1.547   6.704   4.901  3.2587 -0.5636 -1.5626
11460TIP3    H255872   1.552   6.684   5.051 -1.5135  0.4444 -1.1127
11461TIP3   OH255873   2.635   0.144  14.302  0.0524 -0.2141 -0.2410
11461TIP3    H155874   2.663   0.193  14.225 -0.1140  2.0331  1.0349
11461TIP3    H255875   2.703   0.162  14.367 -0.9421 -0.2022  0.8192
11462TIP3   OH255876   3.088   2.438  14.098 -0.3078  0.2838 -0.1836
11462TIP3    H155877   3.074   2.524  14.058 -3.5640  0.6095  1.3814
11462TIP3    H255878   3.001   2.402  14.110  0.8276 -2.2376  1.4008
11463TIP3   OH255879   5.729   2.313  16.443  0.2611 -0.3440 -0.8721
11463TIP3    H155880   5.735   2.351  16.531  0.2539  1.0838 -1.4617
11463TIP3    H255881   5.645   2.344  16.410 -0.0628 -1.4706 -1.1256
11464TIP3   OH255882   0.035   4.199  15.591  0.3296  0.2583 -0.0939
11464TIP3    H155883   0.004   4.288  15.608 -0.3347  0.4904 -2.2315
11464TIP3    H255884  -0.040   4.155  15.551  1.5674 -0.3359 -1.8715
11465TIP3   OH255885   1.349   2.697  13.283  0.0262  0.0440 -0.2183
11465TIP3    H155886   1.347   2.616  13.334  0.4510 -0.5222 -1.0645
11465TIP3    H255887   1.317   2.764  13.343 -3.0202 -1.1749 -0.2882
11466TIP3   OH255888   0.096   3.533  14.008  0.1438  0.3587  0.2082
11466TIP3    H155889   0.043   3.611  14.026  1.4592  1.3690 -0.0970
11466TIP3    H255890   0.180   3.552  14.051  0.3888 -1.0342  0.3764
11467TIP3   OH255891   4.522   4.168  11.026 -0.1931  0.5900  0.0016
11467TIP3    H155892   4.588   4.232  11.052 -0.5655  0.7724  0.5269
11467TIP3    H255893   4.453   4.220  10.986  0.4759  0.2872 -1.6221
11468TIP3   OH255894   4.811   1.159   2.608 -0.3591  0.3814  0.1135
11468TIP3    H155895   4.834   1.070   2.635  1.6735  0.6421 -0.6178
11468TIP3    H255896   4.838   1.164   2.516  0.2932  1.9815  0.3661
11469TIP3   OH255897   2.924   1.698  12.599 -0.0284 -0.2017 -0.7098
11469TIP3    H155898   2.892   1.670  12.685  0.7985  0.0030 -0.3209
11469TIP3    H255899   2.957   1.787  12.614 -0.3189  0.0216 -1.3539
11470TIP3   OH255900   5.454   0.593  12.291 -0.1773 -0.3568  0.1625
11470TIP3    H155901   5.423   0.622  12.377  1.3998 -0.1985  0.7265
11470TIP3    H255902   5.511   0.518  12.310 -1.6070 -1.8106 -0.9850
11471TIP3   OH255903   1.843   5.368  16.138  1.2092 -0.2233  0.2979
11471TIP3    H155904   1.912   5.432  16.116  0.5466  0.3979 -0.0039
11471TIP3    H255905   1.817   5.391  16.227 -0.7100  1.5102 -0.6473
11472TIP3   OH255906   4.337   1.123   4.426 -0.5289 -0.2355  0.0134
11472TIP3    H155907   4.277   1.069   4.477 -0.7699 -0.2092 -0.2359
11472TIP3    H255908   4.282   1.196   4.395 -0.6139 -0.7250 -1.0358
11473TIP3   OH255909   3.343   2.759   5.123 -0.3338 -0.0050  0.2765
11473TIP3    H155910   3.312   2.777   5.034 -0.8652  0.7650  0.6003
11473TIP3    H255911   3.326   2.665   5.135 -0.8536  0.0157 -0.2097
11474TIP3   OH255912   5.187   5.644  11.321 -0.1914 -0.2063  0.0324
11474TIP3    H155913   5.200   5.650  11.226  1.4367 -0.1717  0.2280
11474TIP3    H255914   5.264   5.596  11.352 -0.4426  0.2472  1.4066
11475TIP3   OH255915   4.286   6.770  13.968  0.5264 -0.0512  0.3577
11475TIP3    H155916   4.217   6.822  13.928 -0.0056 -0.5175  0.6616
11475TIP3    H255917   4.366   6.795  13.920  0.0874  0.2034 -0.2479
11476TIP3   OH255918   1.559   1.865   0.323  0.3323  0.0310  0.1139
11476TIP3    H155919   1.479   1.918   0.329  0.5160  0.4760 -1.0110
11476TIP3    H255920   1.629   1.929   0.311  0.6694 -0.4213 -0.3927
11477TIP3   OH255921   6.755   0.036   0.369  0.1359 -0.1693 -0.1097
11477TIP3    H155922   6.813   0.031   0.445  0.1818  0.6449 -0.0889
11477TIP3    H255923   6.805   0.083   0.303 -0.7071  1.0737  0.1136
11478TIP3   OH255924   5.321   6.211   0.492 -0.0506  0.2050 -0.1590
11478TIP3    H155925   5.379   6.254   0.555 -0.4448  0.8270 -0.2143
11478TIP3    H255926   5.377   6.191   0.417 -0.0265  1.3515 -0.4621
11479TIP3   OH255927   1.182   6.188   0.122  0.1179 -0.1483  0.1002
11479TIP3    H155928   1.100   6.184   0.171  0.6662  1.7663  1.3052
11479TIP3    H255929   1.237   6.120   0.160 -1.0217 -1.8024 -1.0640
11480TIP3   OH255930   6.372   5.413  13.179 -0.2077 -0.2976  0.4125
11480TIP3    H155931   6.312   5.386  13.109  1.9890  3.0363 -3.0834
11480TIP3    H255932   6.326   5.484  13.224 -0.3211 -0.2435  0.2097
11481TIP3   OH255933   2.667   5.421   6.803 -0.5132 -0.0393 -0.1308
11481TIP3    H155934   2.658   5.408   6.708  1.1345  0.7953 -0.4251
11481TIP3    H255935   2.672   5.332   6.838 -0.0134 -0.3555 -0.9635
11482TIP3   OH255936   6.166   0.904  12.670  0.0688 -0.5565  0.1879
11482TIP3    H155937   6.118   0.970  12.721  0.9681 -1.0207  1.7118
11482TIP3    H255938   6.200   0.844  12.736  1.9681 -0.7413 -0.9014
11483TIP3   OH255939   5.584   4.340  17.070  0.5038  0.1051 -0.0139
11483TIP3    H155940   5.644   4.268  17.050 -1.5925 -1.3984 -1.2475
11483TIP3    H255941   5.552   4.321  17.158  3.4475  2.2067  1.6994
11484TIP3   OH255942   0.846   0.736   5.458 -1.2346  0.0510 -0.4732
11484TIP3    H155943   0.870   0.651   5.494  1.4473  1.5262  1.7062
11484TIP3    H255944   0.907   0.750   5.385  0.3842  1.1780  1.0049
11485TIP3   OH255945   4.793   5.761   2.791  0.4819 -0.4432  0.1566
11485TIP3    H155946   4.768   5.714   2.712 -0.3870  0.4577 -0.1130
11485TIP3    H255947   4.721   5.821   2.808  1.1246  0.1051  1.0505
11486TIP3   OH255948   3.977   0.121  16.860 -0.1981  0.1854 -0.9118
11486TIP3    H155949   4.009   0.208  16.835 -1.2465  0.7400 -0.3862
11486TIP3    H255950   3.891   0.138  16.898  0.3871 -0.8714  0.9998
11487TIP3   OH255951   6.032   1.124   6.029 -0.0974  0.6439  0.0134
11487TIP3    H155952   6.106   1.074   6.065 -1.0287 -0.7287  0.1041
11487TIP3    H255953   6.007   1.075   5.951 -0.8198  1.1815 -0.0971
11488TIP3   OH255954   2.131   3.638   0.754  0.1271 -0.0150 -0.1859
11488TIP3    H155955   2.155   3.653   0.845  2.7975 -1.4042 -0.5629
11488TIP3    H255956   2.092   3.551   0.753 -3.7969  1.5216  0.1225
11489TIP3   OH255957   1.893   5.263  11.459 -0.2262  0.2932  0.0917
11489TIP3    H155958   1.883   5.331  11.526  0.3874  1.1133 -0.6367
11489TIP3    H255959   1.803   5.242  11.434 -0.4276  0.7374  0.4247
11490TIP3   OH255960   0.697   1.212   3.244  0.3351  0.3042 -0.0609
11490TIP3    H155961   0.632   1.144   3.254 -1.2648  1.6783 -0.6579
11490TIP3    H255962   0.652   1.293   3.269  1.8584  1.2795 -0.3104
11491TIP3   OH255963   3.192   4.405   6.576  1.2318  0.6545 -0.0502
11491TIP3    H155964   3.196   4.310   6.586 -0.4864  0.4910 -0.5543
11491TIP3    H255965   3.152   4.435   6.658 -0.2299  0.6833 -0.7290
11492TIP3   OH255966   3.959   5.840   2.572  0.0217 -0.7045 -0.2549
11492TIP3    H155967   4.016   5.884   2.509  0.4105 -1.7611 -0.6724
11492TIP3    H255968   3.956   5.899   2.647 -0.2388  0.4561 -1.1549
11493TIP3   OH255969   5.666   5.267   0.224 -0.2160 -0.1978 -0.3560
11493TIP3    H155970   5.721   5.300   0.295 -0.2829 -1.4067  0.2819
11493TIP3    H255971   5.608   5.340   0.204  1.5162  1.0836 -0.9852
11494TIP3   OH255972   0.038   5.103   2.074  0.4056 -0.2295  0.1978
11494TIP3    H155973   0.022   5.013   2.046 -1.8345  0.7291 -1.9456
11494TIP3    H255974   0.081   5.145   1.999 -0.8173  1.0703  0.1819
11495TIP3   OH255975   3.031   3.046  14.294 -0.5357  0.2318 -0.2417
11495TIP3    H155976   3.005   3.039  14.202 -0.3166 -0.0149 -0.2823
11495TIP3    H255977   2.948   3.046  14.342 -0.6837  0.9994 -0.4767
11496TIP3   OH255978   4.479   4.382  15.752 -0.4726  0.3817  0.0534
11496TIP3    H155979   4.538   4.380  15.827  0.2763 -1.0105 -0.5335
11496TIP3    H255980   4.420   4.308  15.765 -1.7256  1.3994  0.3246
11497TIP3   OH255981   4.671   5.172   1.405  0.5609 -0.7253  0.3178
11497TIP3    H155982   4.656   5.078   1.397  1.3416 -0.9885  1.6539
11497TIP3    H255983   4.663   5.190   1.499 -0.4917  0.7234  0.0000
11498TIP3   OH255984   2.266   1.490  15.449  0.5684  0.3050  0.3250
11498TIP3    H155985   2.219   1.456  15.373 -0.3457 -0.6360  1.2848
11498TIP3    H255986   2.358   1.472  15.430  0.3730  0.2696 -0.6403
11499TIP3   OH255987   0.826   2.295  17.016  0.0964 -0.0199  0.1215
11499TIP3    H155988   0.873   2.369  17.056  0.9988  0.3401 -1.4822
11499TIP3    H255989   0.883   2.268  16.943 -1.2282 -0.9342 -0.6062
11500TIP3   OH255990   0.543   3.693  13.323  0.2085  0.0130 -0.6324
11500TIP3    H155991   0.622   3.739  13.294  0.2233  0.7471  0.5135
11500TIP3    H255992   0.478   3.763  13.336  0.3734 -0.1733  1.6061
11501TIP3   OH255993   6.605   6.092   4.356  0.1529 -0.1575  0.0152
11501TIP3    H155994   6.693   6.078   4.392  0.4432  0.8388 -0.2767
11501TIP3    H255995   6.618   6.094   4.261 -0.4343 -1.5792 -0.1133
11502TIP3   OH255996   1.075   5.177   0.270  0.2178  0.7636 -0.3229
11502TIP3    H155997   1.046   5.179   0.361  0.5902  1.0595 -0.2051
11502TIP3    H255998   0.997   5.199   0.219  0.4763  2.8205  0.0515
11503TIP3   OH255999   3.946   1.034   2.752 -0.4237  0.2327  0.0782
11503TIP3    H156000   3.893   1.101   2.794  0.1112 -0.2430  1.5898
11503TIP3    H256001   4.035   1.053   2.780 -0.3814 -1.7150  1.4922
11504TIP3   OH256002   1.212   3.528  15.365 -0.3115 -0.0321  0.1626
11504TIP3    H156003   1.179   3.617  15.379  0.4073  0.0298  1.6044
11504TIP3    H256004   1.155   3.492  15.296 -0.7896  1.4344 -0.2350
11505TIP3   OH256005   3.130   1.610  15.681 -0.0362  0.2215 -0.2048
11505TIP3    H156006   3.146   1.631  15.589  0.4635  1.2174  0.0909
11505TIP3    H256007   3.202   1.553  15.706  0.3943  0.7701 -0.1710
11506TIP3   OH256008   4.640   1.702  16.206 -1.0327  0.3888 -0.9156
11506TIP3    H156009   4.724   1.665  16.181 -0.6494  0.2023  0.5622
11506TIP3    H256010   4.654   1.796  16.205  0.2941  0.3747  2.5929
11507TIP3   OH256011   3.886   1.839   4.962  0.0020  0.5811 -0.0510
11507TIP3    H156012   3.977   1.811   4.952 -0.1530  0.2961 -0.7825
11507TIP3    H256013   3.847   1.777   5.023 -0.0939 -0.2647 -0.9413
11508TIP3   OH256014   1.431   1.005   4.242 -0.1241 -0.0647  0.6939
11508TIP3    H156015   1.520   1.040   4.239  0.0254 -0.4848 -0.5988
11508TIP3    H256016   1.385   1.051   4.172 -0.8732 -0.0079  1.2090
11509TIP3   OH256017   0.114   6.287  16.784  0.2208  0.6659  0.3900
11509TIP3    H156018   0.167   6.355  16.826  0.8213 -0.2520  1.1783
11509TIP3    H256019   0.126   6.302  16.690  1.6087  0.7117  0.5457
11510TIP3   OH256020   4.702   1.413   3.717 -0.0000  0.3532 -0.3309
11510TIP3    H156021   4.619   1.372   3.740  0.1980 -0.1228 -0.4414
11510TIP3    H256022   4.678   1.496   3.676 -0.4017  0.4383  0.0718
11511TIP3   OH256023   3.472   2.685   0.584  0.0536  1.0501 -0.1296
11511TIP3    H156024   3.395   2.741   0.587 -0.1399  0.7711  0.1417
11511TIP3    H256025   3.524   2.719   0.511  0.1855  1.9043  0.3408
11512TIP3   OH256026   6.795   3.796  11.555  0.2362  0.0175  0.2069
11512TIP3    H156027   6.813   3.704  11.534  1.9250 -0.2313  2.3569
11512TIP3    H256028   6.877   3.841  11.532 -0.3385  0.8819 -0.1810
11513TIP3   OH256029   6.039   1.953   2.758 -0.0428 -0.2338 -0.4192
11513TIP3    H156030   6.080   1.891   2.698  1.2553 -1.2856  1.4200
11513TIP3    H256031   6.091   2.033   2.750 -1.5189  0.6014 -2.5596
11514TIP3   OH256032   5.007   0.878   4.364  0.5849  0.8502  0.2050
11514TIP3    H156033   5.054   0.954   4.399 -0.0543  1.0394  0.6725
11514TIP3    H256034   5.010   0.890   4.269  1.2894  0.9670  0.2317
11515TIP3   OH256035   6.444   2.698   4.729  0.4476  0.3387 -0.7421
11515TIP3    H156036   6.529   2.654   4.733  0.1966 -0.0406  1.9803
11515TIP3    H256037   6.381   2.628   4.712  0.4014  0.1672  0.1161
11516TIP3   OH256038   4.231   3.485   2.838  0.7041  0.1511 -0.5086
11516TIP3    H156039   4.144   3.464   2.805 -0.0628  3.6571 -1.1526
11516TIP3    H256040   4.269   3.401   2.863 -3.4774 -1.4177  1.4996
11517TIP3   OH256041   2.532   0.435   0.750 -0.5974  0.0694 -0.0269
11517TIP3    H156042   2.452   0.478   0.781 -1.7765 -1.4190 -0.8426
11517TIP3    H256043   2.546   0.365   0.813  0.2558  0.5041  0.2744
11518TIP3   OH256044   0.944   5.301   0.500  0.2444  0.0828 -0.6524
11518TIP3    H156045   0.906   5.321   0.586  2.7784  0.3343  0.4846
11518TIP3    H256046   0.965   5.387   0.463 -0.0617 -0.0650 -1.1916
11519TIP3   OH256047   1.347   6.504   4.494 -0.1455  0.1460 -0.7957
11519TIP3    H156048   1.257   6.507   4.463 -0.0441  0.8943 -1.0467
11519TIP3    H256049   1.399   6.541   4.422 -0.0173  2.8938  0.5848
11520TIP3   OH256050   0.804   6.300  13.326  0.0728 -0.2018 -0.1961
11520TIP3    H156051   0.759   6.221  13.356  1.4649 -1.0236 -0.1378
11520TIP3    H256052   0.839   6.276  13.240 -1.2277  1.0763 -1.1173
11521TIP3   OH256053   2.355   4.237   5.095  0.4454 -0.0068 -0.4042
11521TIP3    H156054   2.340   4.185   5.174  1.9080 -0.5315 -0.4553
11521TIP3    H256055   2.436   4.284   5.112 -1.0932  2.7669 -0.1220
11522TIP3   OH256056   1.390   2.716   2.991 -0.5121  0.1999 -0.0531
11522TIP3    H156057   1.307   2.702   3.036  0.6590  0.8082  2.5264
11522TIP3    H256058   1.456   2.701   3.059  1.4652  0.1775 -1.8930
11523TIP3   OH256059   3.841   6.216   0.683  0.0380  0.1498  0.5103
11523TIP3    H156060   3.812   6.280   0.748 -0.2814  0.6391 -0.1024
11523TIP3    H256061   3.811   6.252   0.599  1.3659  0.0554 -0.0217
11524TIP3   OH256062   3.248   1.849  14.891 -1.1586 -0.6468 -0.2212
11524TIP3    H156063   3.303   1.927  14.880 -0.6654 -0.8865  0.4693
11524TIP3    H256064   3.226   1.823  14.802 -0.1317 -0.5490 -0.5177
11525TIP3   OH256065   6.715   4.168  13.205  0.1061  0.3719 -0.6660
11525TIP3    H156066   6.750   4.210  13.284  0.7275 -1.4814  0.0850
11525TIP3    H256067   6.688   4.081  13.234 -0.5680 -0.0005 -2.3067
11526TIP3   OH256068   3.712   0.089  16.933  0.1574  0.6428 -0.3482
11526TIP3    H156069   3.664   0.161  16.974 -0.0664  0.4728 -0.3137
11526TIP3    H256070   3.674   0.010  16.971  0.7230  0.5153 -0.0222
11527TIP3   OH256071   2.014   0.835   0.703 -0.0951 -0.5636 -0.1031
11527TIP3    H156072   2.038   0.918   0.745  1.5054 -1.0648  0.0563
11527TIP3    H256073   2.035   0.848   0.611 -0.7890 -0.4727 -0.2545
11528TIP3   OH256074   3.167   3.245   1.794  0.2562  0.3283 -0.0589
11528TIP3    H156075   3.128   3.257   1.708 -1.5303  1.7876  0.8840
11528TIP3    H256076   3.230   3.316   1.803 -1.3653  1.7378  0.7385
11529TIP3   OH256077   1.332   0.220   1.188 -0.1701 -0.1211 -0.7102
11529TIP3    H156078   1.272   0.294   1.175  0.0287  0.2342  0.2898
11529TIP3    H256079   1.294   0.173   1.262  0.9530  0.2940  0.1506
11530TIP3   OH256080   1.751   6.498  14.385 -0.1124  0.1876  0.4315
11530TIP3    H156081   1.751   6.402  14.387  0.5388  0.1678 -0.2389
11530TIP3    H256082   1.703   6.520  14.304 -0.9641  0.4506  0.9912
11531TIP3   OH256083   4.745   2.041   2.750 -0.1405 -0.1580  0.1157
11531TIP3    H156084   4.755   2.023   2.657 -0.7133 -0.4202  0.0990
11531TIP3    H256085   4.654   2.071   2.759 -0.4623 -1.2626  0.7519
11532TIP3   OH256086   4.807   5.148  16.446  0.1174 -0.2559 -0.6336
11532TIP3    H156087   4.845   5.108  16.368  0.8196 -1.1816  0.1591
11532TIP3    H256088   4.881   5.158  16.506 -0.5075 -0.0448  0.1173
11533TIP3   OH256089   3.998   0.003   5.289  0.4367 -0.2410 -0.4270
11533TIP3    H156090   3.940  -0.032   5.222 -1.1999 -1.0363  1.3280
11533TIP3    H256091   3.971   0.094   5.300  0.7565 -0.0892 -0.8914
11534TIP3   OH256092   0.488   0.795   1.754  0.0750  0.0303  0.0825
11534TIP3    H156093   0.438   0.871   1.722  1.5141  0.8331 -0.3497
11534TIP3    H256094   0.564   0.833   1.798 -0.1933 -1.1436  1.6379
11535TIP3   OH256095   2.563   4.048  13.479  0.1019 -0.0487  0.0459
11535TIP3    H156096   2.658   4.049  13.485  0.2132 -2.7524 -0.3081
11535TIP3    H256097   2.533   4.025  13.567 -0.1283 -0.9338 -0.2575
11536TIP3   OH256098   4.752   1.430  14.227 -0.3237  0.5096 -0.5203
11536TIP3    H156099   4.742   1.390  14.141  0.5862  2.3158 -1.5047
11536TIP3    H256100   4.692   1.380  14.283 -0.5387 -1.0463 -2.0529
11537TIP3   OH256101   5.057   4.760   4.016 -0.6554 -0.2105  0.7033
11537TIP3    H156102   5.005   4.810   4.080 -0.0429  0.6706  0.5284
11537TIP3    H256103   5.139   4.808   4.009 -0.2750 -0.9312  0.0839
11538TIP3   OH256104   0.051   4.252  14.507  0.6070  0.1872 -0.4387
11538TIP3    H156105   0.036   4.160  14.529 -0.8294  0.6851  0.7749
11538TIP3    H256106  -0.018   4.274  14.445 -0.7341  1.1146  1.2860
11539TIP3   OH256107   0.350   2.133   0.875 -0.5218 -0.0131  0.5921
11539TIP3    H156108   0.404   2.201   0.835 -1.8510 -0.6898 -2.6864
11539TIP3    H256109   0.268   2.176   0.898 -0.3660  0.0251  1.0937
11540TIP3   OH256110   1.398   5.419   5.985  0.3147  0.2424 -0.3296
11540TIP3    H156111   1.344   5.378   6.053 -1.8307  3.7305  0.2661
11540TIP3    H256112   1.459   5.475   6.034  2.1222 -0.8580 -1.1893
11541TIP3   OH256113   6.020   4.718   3.499  0.1422  0.2668  0.3070
11541TIP3    H156114   5.945   4.777   3.502  1.1062  1.5059  0.6984
11541TIP3    H256115   6.033   4.692   3.590  0.6518  0.6601  0.3477
11542TIP3   OH256116   1.255   6.786   2.966 -0.7911  0.1121  0.1939
11542TIP3    H156117   1.291   6.702   2.937 -1.6428 -0.1058 -0.2625
11542TIP3    H256118   1.232   6.771   3.058  2.7889  1.0815  1.4436
11543TIP3   OH256119   2.167   2.120  12.970 -0.3344  0.5609 -0.7736
11543TIP3    H156120   2.188   2.181  13.041 -0.4207  0.9580 -1.0836
11543TIP3    H256121   2.080   2.148  12.941 -0.1230  0.6706 -1.3131
11544TIP3   OH256122   5.232   6.179  11.585  0.4977  0.0259  0.1386
11544TIP3    H156123   5.191   6.115  11.527  1.2596  2.0890 -2.9646
11544TIP3    H256124   5.188   6.262  11.564  1.8078  1.1352  1.5038
11545TIP3   OH256125   6.425   4.352   0.855 -0.2777 -0.1003 -0.0865
11545TIP3    H156126   6.386   4.437   0.832 -0.5343 -0.4280 -0.9272
11545TIP3    H256127   6.501   4.374   0.908 -0.7451  0.6231  0.3000
11546TIP3   OH256128   0.655   0.238  14.500  0.3551  0.4176  0.4276
11546TIP3    H156129   0.666   0.246  14.595  0.4848 -0.4946  0.4989
11546TIP3    H256130   0.599   0.161  14.489 -1.2207  1.5758 -0.1696
11547TIP3   OH256131   1.118   0.174   5.400 -0.2768 -0.2803  0.3767
11547TIP3    H156132   1.040   0.206   5.355 -1.1788 -1.2702  1.1896
11547TIP3    H256133   1.091   0.090   5.438  1.2142 -0.6880  0.5899
11548TIP3   OH256134   2.030   2.442  16.417 -0.1253 -0.4762  0.0329
11548TIP3    H156135   2.007   2.373  16.479 -2.8934  0.4099  0.0902
11548TIP3    H256136   2.060   2.394  16.339 -2.0744 -1.7946  0.0393
11549TIP3   OH256137   5.263   0.774  11.731  0.1271 -0.2353 -0.4507
11549TIP3    H156138   5.328   0.729  11.785 -0.7408 -1.2315 -0.2017
11549TIP3    H256139   5.265   0.864  11.762  0.0351 -0.6683  0.8862
11550TIP3   OH256140   1.851   6.603   2.969  0.3459 -0.4057 -0.2383
11550TIP3    H156141   1.902   6.539   2.919  1.2672  0.2179 -0.1227
11550TIP3    H256142   1.838   6.676   2.908  1.1265  0.1862  0.2908
11551TIP3   OH256143   6.430   1.803  16.829 -0.1027  0.2907  0.1509
11551TIP3    H156144   6.406   1.879  16.882 -0.1719  1.1840 -1.1187
11551TIP3    H256145   6.425   1.834  16.738 -2.8205 -1.9428 -0.5939
11552TIP3   OH256146   0.520   6.045   4.702  0.3318 -0.2453  0.1499
11552TIP3    H156147   0.467   6.032   4.781  0.0830 -1.1515 -0.1498
11552TIP3    H256148   0.485   5.981   4.640  0.4720  0.5049 -0.7269
11553TIP3   OH256149   1.467   4.253   0.240  0.7844  0.4782 -0.3224
11553TIP3    H156150   1.457   4.266   0.145 -0.6349 -0.2454 -0.3037
11553TIP3    H256151   1.472   4.158   0.251 -1.1519  0.4220  0.4660
11554TIP3   OH256152   0.384   4.931   4.075  0.9145  0.1000  0.3594
11554TIP3    H156153   0.397   5.022   4.103  1.6324  0.0842  0.0931
11554TIP3    H256154   0.297   4.930   4.036  0.1409  0.2670  1.9954
11555TIP3   OH256155   6.486   6.473  14.502  0.1092 -0.2819 -0.2260
11555TIP3    H156156   6.418   6.538  14.517 -0.0548 -0.5302  0.1043
11555TIP3    H256157   6.521   6.454  14.589  1.6019  0.9084 -0.4985
11556TIP3   OH256158   6.130   2.558  13.982 -0.8936 -0.2950  0.2635
11556TIP3    H156159   6.198   2.539  13.919  0.2827 -0.4883  1.5423
11556TIP3    H256160   6.177   2.575  14.064 -2.4298 -2.1050  1.6149
11557TIP3   OH256161   4.065   1.543  13.487  0.1314  0.3788 -0.4279
11557TIP3    H156162   4.080   1.467  13.430  0.3227  1.4837 -1.8948
11557TIP3    H256163   4.022   1.607  13.431 -1.0053  0.9781  1.0903
11558TIP3   OH256164   0.114   5.136  11.944 -0.0461  0.6494  0.0613
11558TIP3    H156165   0.175   5.188  11.891  1.0161 -0.0269  0.5823
11558TIP3    H256166   0.029   5.149  11.902  0.4080  1.7896 -0.5629
11559TIP3   OH256167   0.369   2.804   1.115 -0.1662  0.2631  0.1583
11559TIP3    H156168   0.418   2.722   1.111 -0.8336 -0.1400 -0.0162
11559TIP3    H256169   0.325   2.809   1.030 -0.4878  0.5709  0.3411
11560TIP3   OH256170   4.119   4.147  15.610 -0.5437 -0.0861  0.3184
11560TIP3    H156171   4.087   4.094  15.536 -1.1515 -0.6453  0.9558
11560TIP3    H256172   4.040   4.163  15.663 -0.1587  0.5135  0.7181
11561TIP3   OH256173   5.682   1.392  13.855 -0.0471  0.1806 -0.0272
11561TIP3    H156174   5.708   1.453  13.925 -0.0087  0.5068 -0.3252
11561TIP3    H256175   5.606   1.347  13.890  0.7357 -0.5846  0.7487
11562TIP3   OH256176   1.567   3.106   5.816  0.2245  0.3156 -0.7846
11562TIP3    H156177   1.608   3.064   5.741 -0.2569  2.6119 -2.4236
11562TIP3    H256178   1.637   3.158   5.856 -0.1887  1.3757 -1.4098
11563TIP3   OH256179   5.351   6.178  13.333  0.2782  0.8663 -0.1023
11563TIP3    H156180   5.298   6.227  13.271 -0.2061  0.1233 -0.2975
11563TIP3    H256181   5.373   6.097  13.287 -1.1826 -0.2869  1.1096
11564TIP3   OH256182   0.183   0.667  16.003 -0.0440  0.1383 -0.1372
11564TIP3    H156183   0.274   0.653  15.977  0.4483  0.4272  1.3173
11564TIP3    H256184   0.182   0.758  16.035 -1.1596  0.5768 -1.3431
11565TIP3   OH256185   2.688   0.614  15.350  0.5513  0.4855 -0.3590
11565TIP3    H156186   2.672   0.664  15.270  0.9702  0.1997 -0.6275
11565TIP3    H256187   2.601   0.602  15.388  0.6264  4.1115  1.4045
11566TIP3   OH256188   3.776   5.610  15.917  0.2308 -0.1360  0.0945
11566TIP3    H156189   3.867   5.618  15.889  0.0189  0.1692 -0.5329
11566TIP3    H256190   3.781   5.577  16.006  0.9495 -0.3724 -0.0276
11567TIP3   OH256191   1.196   4.893  14.270 -0.3156  0.2226  0.0257
11567TIP3    H156192   1.109   4.916  14.240 -0.2509 -0.3947 -0.6700
11567TIP3    H256193   1.235   4.976  14.299  0.0449  1.1266 -2.7305
11568TIP3   OH256194   4.771   5.491  13.416  0.9943 -0.1818 -0.1202
11568TIP3    H156195   4.798   5.517  13.504  1.6123  0.0724 -0.3839
11568TIP3    H256196   4.851   5.461  13.374  0.3071 -2.8672  0.2780
11569TIP3   OH256197   2.821   2.200  14.742  0.3981  0.3133  0.2320
11569TIP3    H156198   2.887   2.225  14.805  0.0104  2.7443 -0.2337
11569TIP3    H256199   2.842   2.251  14.663 -0.2218 -1.2205 -0.9870
11570TIP3   OH256200   0.542   2.955   5.904 -0.5053 -0.1157  0.5630
11570TIP3    H156201   0.472   2.891   5.915 -0.1661 -0.7968 -1.0175
11570TIP3    H256202   0.558   2.957   5.810  1.4681  0.1802  0.8708
11571TIP3   OH256203   1.097   6.541  15.426  0.8672 -0.3548 -0.6403
11571TIP3    H156204   1.081   6.557  15.333  0.5749 -0.9019 -0.6868
11571TIP3    H256205   1.103   6.446  15.433 -0.5499 -0.4123  0.1274
11572TIP3   OH256206   3.841   4.619   4.219  0.2171 -0.1067  0.9120
11572TIP3    H156207   3.877   4.602   4.306 -1.3334 -1.4776  1.3204
11572TIP3    H256208   3.757   4.660   4.235  0.7167  1.3427 -0.0071
11573TIP3   OH256209   5.981   1.774  15.756 -0.8131  0.0671 -0.2618
11573TIP3    H156210   6.012   1.841  15.695  1.0571 -0.8677 -0.4363
11573TIP3    H256211   6.040   1.781  15.831 -1.4464 -0.4940  0.2991
11574TIP3   OH256212   5.410   6.704   0.050 -0.4528  0.0208  0.2570
11574TIP3    H156213   5.428   6.628   0.105  3.6359  0.7722  0.2805
11574TIP3    H256214   5.400   6.668  -0.038 -0.4861 -0.6774  0.5415
11575TIP3   OH256215   4.648   3.483   4.366  0.6541 -0.5877 -0.4352
11575TIP3    H156216   4.565   3.516   4.331  0.0724 -2.2918 -0.7654
11575TIP3    H256217   4.715   3.535   4.322 -0.2162  0.8272 -0.1604
11576TIP3   OH256218   5.105   0.835  15.906  0.1467 -0.4058 -0.2378
11576TIP3    H156219   5.075   0.908  15.852  1.8428 -0.6837 -1.6071
11576TIP3    H256220   5.092   0.758  15.852  0.3048 -0.9049  0.4178
11577TIP3   OH256221   5.859   2.664  12.192  0.0395  0.3245 -0.5103
11577TIP3    H156222   5.770   2.653  12.226  0.0792 -0.0512 -0.5222
11577TIP3    H256223   5.886   2.751  12.222 -0.8495  1.0358 -1.6882
11578TIP3   OH256224   5.440   1.997  13.180  0.3852 -0.2015  0.0159
11578TIP3    H156225   5.526   2.008  13.219 -0.1197 -1.4340  1.5523
11578TIP3    H256226   5.378   2.010  13.252 -0.7076  0.2945 -0.9747
11579TIP3   OH256227   6.066   6.164  14.341  0.2642 -0.0416  0.1449
11579TIP3    H156228   6.127   6.237  14.333 -0.1116  0.3542  0.7691
11579TIP3    H256229   6.109   6.104  14.402  1.2318 -1.0535 -1.4818
11580TIP3   OH256230   1.649   1.834  14.550 -0.0725 -0.0256  1.1909
11580TIP3    H156231   1.608   1.781  14.617  0.0998  1.2164  2.3114
11580TIP3    H256232   1.582   1.897  14.524  0.0457 -0.1348  0.6017
11581TIP3   OH256233   0.675   5.217   2.498 -0.0456  0.2946 -0.0166
11581TIP3    H156234   0.592   5.260   2.481 -0.2931 -0.1862 -0.0220
11581TIP3    H256235   0.679   5.145   2.435 -0.0710 -0.2785  0.6253
11582TIP3   OH256236   1.015   0.949   5.535  0.4059 -0.2655  0.1296
11582TIP3    H156237   1.086   0.887   5.552  0.0667 -0.7353 -0.1477
11582TIP3    H256238   0.938   0.894   5.521  0.0320  0.2315  0.1961
11583TIP3   OH256239   2.805   4.305   4.913  0.2886  0.2023 -0.2686
11583TIP3    H156240   2.847   4.240   4.857  1.8566  0.3182  0.7137
11583TIP3    H256241   2.745   4.352   4.854 -0.1049 -1.4096 -1.2256
11584TIP3   OH256242   4.108   5.301  16.325  0.3666 -0.2726  1.0203
11584TIP3    H156243   4.132   5.367  16.261 -0.9264  0.2094  1.0063
11584TIP3    H256244   4.140   5.335  16.409  1.1164 -0.4045  0.7941
11585TIP3   OH256245   0.168   1.840   6.827  0.0333  0.3161  0.1129
11585TIP3    H156246   0.207   1.788   6.756  2.3726  0.5616  1.1117
11585TIP3    H256247   0.194   1.930   6.808  1.1667  0.3208  1.5150
11586TIP3   OH256248   2.810   0.374   5.525 -0.1183 -0.1987 -0.3940
11586TIP3    H156249   2.732   0.383   5.471  0.2539  2.6715 -0.6195
11586TIP3    H256250   2.877   0.427   5.480  0.9166  0.2710  1.5579
11587TIP3   OH256251   3.256   3.114   6.447 -0.5175  0.0123  0.4646
11587TIP3    H156252   3.314   3.044   6.416 -1.6237 -1.3836  1.4173
11587TIP3    H256253   3.308   3.159   6.513 -0.3497 -1.0005  1.0538
11588TIP3   OH256254   4.523   2.865   6.323 -0.0818 -0.1931  0.0843
11588TIP3    H156255   4.428   2.857   6.333 -0.0318  0.3458  1.0918
11588TIP3    H256256   4.548   2.790   6.268 -1.1311 -0.1229 -0.5098
11589TIP3   OH256257   0.348   5.415   1.912  0.1019 -0.7107 -0.5032
11589TIP3    H156258   0.314   5.504   1.922 -0.7924 -0.8748 -1.8812
11589TIP3    H256259   0.436   5.427   1.877  0.2657 -0.3580  0.0151
11590TIP3   OH256260   0.552   1.573  14.083  0.1791 -0.5665  0.1484
11590TIP3    H156261   0.495   1.500  14.109 -2.2065  0.6540 -1.2552
11590TIP3    H256262   0.491   1.643  14.060  2.3030  0.8914 -1.3696
11591TIP3   OH256263   3.437   3.031   5.586  0.6087 -0.2178  0.5617
11591TIP3    H156264   3.362   2.975   5.566 -1.4692  1.9509  1.8267
11591TIP3    H256265   3.485   3.037   5.503 -0.7205 -1.4609 -0.3453
11592TIP3   OH256266   4.918   2.938  15.842  0.5160  0.3789 -0.7906
11592TIP3    H156267   4.953   2.991  15.914 -1.8267 -0.1848  0.9148
11592TIP3    H256268   4.895   2.854  15.883 -0.0844 -0.2882 -2.3982
11593TIP3   OH256269   3.301   0.934  15.608  0.2285  0.2952  0.1150
11593TIP3    H156270   3.332   0.943  15.699  0.9478 -0.1574 -0.0753
11593TIP3    H256271   3.337   0.850  15.579 -0.9769 -0.1253 -0.2117
11594TIP3   OH256272   1.436   2.821   2.448  0.6963 -0.4538 -0.0382
11594TIP3    H156273   1.466   2.732   2.430  0.7270 -0.5316  0.3790
11594TIP3    H256274   1.341   2.816   2.443  0.7056 -0.4702 -0.1943
11595TIP3   OH256275   1.792   3.447   1.870  0.4276  0.2255  0.3315
11595TIP3    H156276   1.708   3.432   1.913  1.2796 -0.3991  1.8355
11595TIP3    H256277   1.839   3.365   1.879  1.5420  0.8405  0.2675
11596TIP3   OH256278   3.946   0.343  16.551  0.1618  0.2555 -0.5583
11596TIP3    H156279   3.893   0.387  16.485  0.4663 -0.5193 -1.3533
11596TIP3    H256280   3.901   0.359  16.634 -1.6604 -0.8616 -1.2664
11597TIP3   OH256281   0.087   0.334  16.757  0.0142 -0.6738 -0.4796
11597TIP3    H156282   0.074   0.428  16.766 -2.3150 -0.9765  0.0114
11597TIP3    H256283   0.168   0.325  16.708  0.6949  1.5570  0.1302
11598TIP3   OH256284   2.586   6.004  13.279 -0.6731  0.5170  0.1374
11598TIP3    H156285   2.494   6.008  13.304 -0.4036  3.2760  1.0474
11598TIP3    H256286   2.633   5.996  13.362 -0.0516 -2.1295 -0.3860
11599TIP3   OH256287   0.226   4.836   3.459 -0.8091 -0.4479  0.0614
11599TIP3    H156288   0.299   4.797   3.410 -0.9089  0.8567 -1.1891
11599TIP3    H256289   0.221   4.784   3.539  1.7436 -0.3473  0.3836
11600TIP3   OH256290   0.980   3.584  16.154 -0.6478 -0.0763  0.5976
11600TIP3    H156291   1.000   3.578  16.247  0.1659  1.1588  0.5276
11600TIP3    H256292   1.061   3.559  16.110 -0.6446  0.5324  0.2460
11601TIP3   OH256293   4.913   0.885   2.014  0.0066  0.2125  0.5014
11601TIP3    H156294   4.930   0.862   1.923  1.2674 -0.2193  0.8264
11601TIP3    H256295   4.822   0.913   2.015  0.1047  0.6913 -0.9869
11602TIP3   OH256296   5.552   2.498   2.851 -0.6017  0.1303  0.7412
11602TIP3    H156297   5.483   2.532   2.794  0.7000  0.7282 -0.5798
11602TIP3    H256298   5.632   2.507   2.799  0.3393 -1.5196  1.8001
11603TIP3   OH256299   1.841   5.477   0.305  0.1693  0.7117  0.0327
11603TIP3    H156300   1.802   5.394   0.277 -0.2112  0.4341  1.3184
11603TIP3    H256301   1.934   5.458   0.313  0.0970  0.4337  0.2327
11604TIP3   OH256302   0.100   3.893   1.544  0.2253 -0.0186  0.5063
11604TIP3    H156303   0.031   3.958   1.527  0.2984 -0.2149 -0.6373
11604TIP3    H256304   0.181   3.942   1.540  0.2949 -0.1928 -0.5688
11605TIP3   OH256305   5.528   4.062  14.347 -0.5280 -0.3019 -0.4596
11605TIP3    H156306   5.476   4.054  14.428 -0.4077  0.9116 -0.2554
11605TIP3    H256307   5.490   4.137  14.302  0.3484 -0.0830 -0.8412
11606TIP3   OH256308   5.380   0.831   2.169  0.5396  0.2600  0.1248
11606TIP3    H156309   5.371   0.761   2.104 -1.0501  0.2317  0.3210
11606TIP3    H256310   5.297   0.879   2.163  0.4008  0.3199  2.0451
11607TIP3   OH256311   4.979   4.896  13.477 -0.1164 -0.7013  0.0731
11607TIP3    H156312   5.026   4.819  13.446 -0.4661 -0.9477  0.1394
11607TIP3    H256313   5.033   4.971  13.451  1.3001 -1.0397  1.8440
11608TIP3   OH256314   2.669   4.707  14.939 -0.0810  0.3080  0.1022
11608TIP3    H156315   2.665   4.772  15.009 -0.7161  0.9002 -0.4617
11608TIP3    H256316   2.700   4.627  14.982 -0.6312  0.6077  1.1007
11609TIP3   OH256317   2.317   0.169  12.033 -0.0159  0.4155  0.2470
11609TIP3    H156318   2.298   0.098  12.094 -0.4511 -0.0414 -0.4056
11609TIP3    H256319   2.412   0.168  12.024  0.3739  2.2192  2.9431
11610TIP3   OH256320   5.603   3.068   2.191  0.1717  0.2452 -0.4834
11610TIP3    H156321   5.523   3.060   2.138  0.5786 -0.2746 -1.0334
11610TIP3    H256322   5.649   2.986   2.177 -0.5308 -0.6734  2.0977
11611TIP3   OH256323   3.779   4.705   4.799 -0.3092 -0.0088 -0.4067
11611TIP3    H156324   3.761   4.674   4.887  1.7590 -0.3780 -0.0543
11611TIP3    H256325   3.700   4.751   4.772 -0.8769  0.3281  1.7313
11612TIP3   OH256326   4.213   3.106  12.052  0.1132 -0.0289 -0.4273
11612TIP3    H156327   4.142   3.045  12.031  0.7777 -1.2564  0.7271
11612TIP3    H256328   4.187   3.188  12.010 -0.9882 -0.9939 -1.7435
11613TIP3   OH256329   6.173   3.866   1.738 -0.0368  0.4592 -0.2726
11613TIP3    H156330   6.152   3.812   1.662 -1.6893 -0.1453  0.5615
11613TIP3    H256331   6.173   3.805   1.812 -4.5589  1.7969  1.1241
11614TIP3   OH256332   4.200   1.543  12.595 -0.1471  0.4436 -0.7665
11614TIP3    H156333   4.112   1.550  12.559 -0.7631 -0.5905  0.4484
11614TIP3    H256334   4.207   1.617  12.656 -1.2743 -1.0066  1.2452
11615TIP3   OH256335   4.237   4.032   4.242 -0.0977 -0.8190  0.7617
11615TIP3    H156336   4.161   3.993   4.198  0.4406 -1.7865  0.6666
11615TIP3    H256337   4.284   3.958   4.280  1.9329 -0.4812 -0.9301
11616TIP3   OH256338   6.487   6.076  11.088  0.5484  0.3000  0.2113
11616TIP3    H156339   6.466   6.109  11.000 -1.1470 -1.6899 -0.2086
11616TIP3    H256340   6.552   6.137  11.121  0.6872  1.5528 -2.1347
11617TIP3   OH256341   4.457   1.974  14.045  0.3955 -0.4557 -0.4555
11617TIP3    H156342   4.488   2.055  14.084 -0.4655 -0.0515 -0.6012
11617TIP3    H256343   4.362   1.985  14.036  0.3581 -1.1854 -1.1383
11618TIP3   OH256344   2.951   4.720  13.550  0.4656  0.2954 -0.2313
11618TIP3    H156345   2.928   4.714  13.457  1.1863  0.0638 -0.4004
11618TIP3    H256346   2.891   4.786  13.585 -0.3672 -0.2138 -0.6736
11619TIP3   OH256347   5.534   6.070  15.382 -0.2460  0.4726 -0.2182
11619TIP3    H156348   5.469   6.122  15.430 -0.5100 -0.0449 -0.0015
11619TIP3    H256349   5.503   5.980  15.391 -0.2129  0.3556 -1.2517
11620TIP3   OH256350   6.606   3.948   4.916 -0.2980 -0.0344  0.0784
11620TIP3    H156351   6.518   3.969   4.947 -1.2461 -1.2079 -1.6859
11620TIP3    H256352   6.646   4.033   4.899 -1.8228  0.5173 -0.9700
11621TIP3   OH256353   6.665   1.346   5.177 -0.1727 -0.1542 -0.4604
11621TIP3    H156354   6.729   1.309   5.238 -0.3816 -1.0505 -0.7738
11621TIP3    H256355   6.713   1.411   5.127  0.6083 -1.1044 -0.9729
11622TIP3   OH256356   0.457   1.793   3.735  0.2003 -0.4426  0.2148
11622TIP3    H156357   0.522   1.725   3.718 -1.0789 -1.3099 -1.4940
11622TIP3    H256358   0.504   1.875   3.722  1.3600 -1.0141  0.6747
11623TIP3   OH256359   4.715   0.463   3.021  0.0681  0.0346 -0.6133
11623TIP3    H156360   4.692   0.486   3.111  1.5497 -0.1660 -0.1540
11623TIP3    H256361   4.714   0.547   2.975 -1.4607  0.0397 -0.6212
11624TIP3   OH256362   6.821   4.119  16.015  0.6472 -0.4049  0.5631
11624TIP3    H156363   6.764   4.086  16.085  0.9379 -0.8524  0.5954
11624TIP3    H256364   6.827   4.046  15.954  3.0245 -1.2211  1.6757
11625TIP3   OH256365   0.698   3.583  14.803  0.0402  0.1254 -0.1831
11625TIP3    H156366   0.766   3.562  14.739 -0.8664 -0.9609 -0.8102
11625TIP3    H256367   0.617   3.554  14.763 -0.5670 -0.5621  1.4398
11626TIP3   OH256368   6.704   4.871  10.738  0.0497  0.4379  0.0799
11626TIP3    H156369   6.676   4.951  10.693 -0.6662  0.6673  0.9161
11626TIP3    H256370   6.622   4.828  10.763  0.4301 -0.4792 -0.2122
11627TIP3   OH256371   5.966   3.019  15.952  0.1541 -0.1958 -0.4823
11627TIP3    H156372   5.994   3.011  15.860  2.6434  0.5092  0.1423
11627TIP3    H256373   5.918   2.938  15.970 -0.2198 -0.4314 -2.3225
11628TIP3   OH256374   0.173   5.251   2.241  0.1461 -0.0066  0.2311
11628TIP3    H156375   0.189   5.185   2.309  1.9533 -1.1702 -1.2308
11628TIP3    H256376   0.104   5.212   2.187 -0.3307  0.3022  0.6142
11629TIP3   OH256377   2.549   4.801  11.126 -0.2498  0.4746  0.4588
11629TIP3    H156378   2.460   4.803  11.090  0.2088 -1.5006 -0.9358
11629TIP3    H256379   2.599   4.750  11.063  1.6370  0.5628  1.8056
11630TIP3   OH256380   6.501   4.636   2.580  0.0258 -0.0294  0.4062
11630TIP3    H156381   6.556   4.620   2.504  1.8005 -2.0119  1.9781
11630TIP3    H256382   6.556   4.686   2.640 -0.9551  0.5495  0.8502
11631TIP3   OH256383   4.987   5.806  11.847  0.2604 -0.0872 -0.4222
11631TIP3    H156384   4.923   5.860  11.801  0.1013  0.1780  0.1062
11631TIP3    H256385   4.969   5.717  11.817 -0.3461 -0.0125 -0.2854
11632TIP3   OH256386   1.464   6.348   3.505 -0.0358  0.2391 -0.7285
11632TIP3    H156387   1.500   6.337   3.417  0.4445 -1.2829 -0.3876
11632TIP3    H256388   1.378   6.305   3.501 -0.3406  0.8350 -0.6458
11633TIP3   OH256389   0.935   6.053  16.280 -0.2285  0.4104  0.0173
11633TIP3    H156390   0.956   6.139  16.317 -1.2277  1.5912 -1.9982
11633TIP3    H256391   1.000   6.041  16.211  0.6974 -1.0873  1.0936
11634TIP3   OH256392   5.547   2.414   0.059 -0.0224 -0.6880  0.3170
11634TIP3    H156393   5.469   2.460   0.028  1.3904  1.5169 -0.2395
11634TIP3    H256394   5.523   2.383   0.146 -1.0930  1.2236  0.7683
11635TIP3   OH256395   4.274   6.302  13.307  0.4336  0.1129  0.1293
11635TIP3    H156396   4.346   6.347  13.352  1.8748 -0.9164 -1.0422
11635TIP3    H256397   4.219   6.269  13.378 -1.4348  4.6307  1.0802
11636TIP3   OH256398   2.741   5.430   2.992  0.5529  0.2653 -0.2357
11636TIP3    H156399   2.815   5.400   3.045  0.5155  0.3478 -0.1351
11636TIP3    H256400   2.692   5.351   2.971  1.7603 -0.0907 -2.0170
11637TIP3   OH256401   4.428   2.117  11.404 -0.3815  0.8546 -0.7915
11637TIP3    H156402   4.343   2.135  11.443 -0.3225 -1.3311  0.4986
11637TIP3    H256403   4.475   2.200  11.409 -1.2955  1.2989  1.4955
11638TIP3   OH256404   5.117   4.229   3.541 -0.1123  0.0754  0.0689
11638TIP3    H156405   5.146   4.320   3.552  1.2827 -0.2604 -0.6225
11638TIP3    H256406   5.174   4.179   3.599 -0.3128 -0.4540 -0.1878
11639TIP3   OH256407   6.620   6.352   4.424  0.3114 -0.0453 -0.0533
11639TIP3    H156408   6.586   6.267   4.397 -0.9124  0.5531 -0.4616
11639TIP3    H256409   6.546   6.395   4.467  0.3507  1.5163 -1.4396
11640TIP3   OH256410   2.183   3.397   4.227  0.5820 -0.1922 -0.3716
11640TIP3    H156411   2.222   3.316   4.260 -0.1409 -0.3467  0.1255
11640TIP3    H256412   2.235   3.467   4.268  0.9294 -0.3977 -0.4582
11641TIP3   OH256413   2.467   6.338  10.723  0.0678  0.4350  0.3548
11641TIP3    H156414   2.445   6.261  10.671 -0.5260  0.3846  0.6652
11641TIP3    H256415   2.558   6.326  10.748  0.2044  0.2084 -0.2419
11642TIP3   OH256416   5.569   3.429   4.122 -0.0024  0.2498  0.0367
11642TIP3    H156417   5.596   3.395   4.036  1.9267  1.7088  0.0076
11642TIP3    H256418   5.491   3.481   4.102  1.4555  2.1015 -1.2340
11643TIP3   OH256419   0.418   0.172   2.319 -0.1985 -0.1705 -0.2912
11643TIP3    H156420   0.471   0.170   2.239  1.3968 -1.5843  0.7215
11643TIP3    H256421   0.391   0.081   2.333 -0.5068  0.0570  0.7207
11644TIP3   OH256422   0.798   3.023  13.077 -0.0709  0.0734 -0.2102
11644TIP3    H156423   0.863   3.090  13.057  0.8281 -0.9137 -0.6902
11644TIP3    H256424   0.787   2.974  12.995 -0.5944 -0.4709  0.1704
11645TIP3   OH256425   0.128   0.606   0.790  0.8264  0.2648 -0.3197
11645TIP3    H156426   0.150   0.697   0.809  1.0655 -0.1022  1.2688
11645TIP3    H256427   0.137   0.561   0.874  0.9609 -1.2779 -1.1279
11646TIP3   OH256428   4.994   2.582  11.481 -0.3020 -0.3300 -0.3943
11646TIP3    H156429   5.043   2.573  11.399 -0.1396  1.3134 -0.5110
11646TIP3    H256430   5.060   2.570  11.550  0.4937  2.3823 -0.5466
11647TIP3   OH256431   0.754   3.533   4.976  0.2412 -0.7902  0.2480
11647TIP3    H156432   0.728   3.548   4.885  2.0086 -2.1374 -0.5378
11647TIP3    H256433   0.733   3.615   5.020 -0.5631 -0.0556 -1.3874
11648TIP3   OH256434   5.826   0.728  17.267  0.6405 -0.1944  0.4021
11648TIP3    H156435   5.861   0.677  17.339  1.4602 -0.5237 -0.2047
11648TIP3    H256436   5.877   0.699  17.191 -1.7552 -1.5558 -0.7848
11649TIP3   OH256437   6.635   0.673  13.645 -0.2680  1.0717  0.5065
11649TIP3    H156438   6.698   0.667  13.573 -0.0856 -1.8008  0.8073
11649TIP3    H256439   6.687   0.657  13.724 -1.2586 -0.9286  0.8001
11650TIP3   OH256440   3.718   5.243  14.669  0.0642  0.3068  0.1375
11650TIP3    H156441   3.761   5.243  14.584 -0.0401  0.8434  0.0801
11650TIP3    H256442   3.696   5.151  14.685 -0.9918  0.3369 -0.9732
11651TIP3   OH256443   4.474   6.303  15.723 -0.0568 -0.2504 -0.8840
11651TIP3    H156444   4.435   6.383  15.758  0.6985 -0.2273 -0.0684
11651TIP3    H256445   4.436   6.233  15.775  0.2381 -0.3120 -0.7500
11652TIP3   OH256446   0.091   1.715  16.290  0.5529  0.5399  0.6519
11652TIP3    H156447   0.145   1.636  16.282 -2.5334 -2.0244  2.6255
11652TIP3    H256448   0.140   1.771  16.349  2.3284 -0.3796  0.1222
11653TIP3   OH256449   0.486   2.325   0.717 -0.0287  0.4831 -0.4863
11653TIP3    H156450   0.565   2.373   0.693  0.2008  0.9727  1.1034
11653TIP3    H256451   0.434   2.388   0.768 -2.0357  0.5625 -2.4703
11654TIP3   OH256452   3.153   0.659   0.159 -0.5367 -0.1816  0.1518
11654TIP3    H156453   3.249   0.654   0.153 -0.5110 -1.2169  1.0515
11654TIP3    H256454   3.134   0.635   0.249 -1.6034  1.0500  0.2685
11655TIP3   OH256455   4.693   2.621   0.386 -0.0584 -0.2450  0.2057
11655TIP3    H156456   4.674   2.714   0.403 -0.1586 -0.5153  1.8021
11655TIP3    H256457   4.623   2.592   0.328  0.7712  1.0046 -1.4838
11656TIP3   OH256458   2.092   5.168   3.104 -0.1811  0.0706  0.1342
11656TIP3    H156459   2.014   5.178   3.158  1.0458  1.5868  1.7353
11656TIP3    H256460   2.142   5.098   3.147 -0.5870 -0.8467 -0.8449
11657TIP3   OH256461   3.085   6.698   3.491  0.3622 -0.2785 -0.2515
11657TIP3    H156462   3.149   6.732   3.429 -0.4230 -0.4486 -1.1719
11657TIP3    H256463   3.076   6.605   3.468  0.2023 -0.3949  0.2535
11658TIP3   OH256464   1.491   5.474  13.442 -0.8056 -0.3799 -0.3417
11658TIP3    H156465   1.535   5.390  13.436 -1.8204 -0.8739 -1.1445
11658TIP3    H256466   1.456   5.490  13.354 -0.1930  1.1367 -0.3469
11659TIP3   OH256467   4.792   1.692   0.886  0.5107  0.4020  0.1520
11659TIP3    H156468   4.812   1.719   0.976  0.0344 -0.5495  0.5667
11659TIP3    H256469   4.757   1.603   0.896  3.5165 -1.0805 -1.2385
11660TIP3   OH256470   5.856   3.519  15.565  0.1320 -0.1430  0.0200
11660TIP3    H156471   5.800   3.502  15.488  0.7340 -2.0786 -0.0455
11660TIP3    H256472   5.802   3.574  15.622 -1.0802 -0.2982 -0.9239
11661TIP3   OH256473   6.702   4.282   3.493  0.1972  0.3770 -0.3982
11661TIP3    H156474   6.721   4.374   3.514  0.2988  0.0879  0.8468
11661TIP3    H256475   6.785   4.237   3.507 -0.4820 -0.3444  1.7660
11662TIP3   OH256476   0.404   4.626   6.030 -0.5464 -0.1375  0.0984
11662TIP3    H156477   0.326   4.669   5.994  0.3977  1.0435 -0.5796
11662TIP3    H256478   0.465   4.698   6.047  1.5173 -1.2662 -2.1222
11663TIP3   OH256479   1.540   5.631  14.672 -0.3463  0.0357 -0.1441
11663TIP3    H156480   1.475   5.602  14.735 -1.3307 -1.0553 -1.5998
11663TIP3    H256481   1.612   5.569  14.681  0.0442  0.5903  0.7001
11664TIP3   OH256482   6.341   3.517   4.324 -0.5373 -0.4882 -0.0264
11664TIP3    H156483   6.268   3.572   4.298  1.0509  0.8735 -1.8923
11664TIP3    H256484   6.368   3.552   4.409 -0.3877  0.7655 -0.5706
11665TIP3   OH256485   0.495   4.069  16.928 -0.5341 -0.0406  0.8284
11665TIP3    H156486   0.408   4.055  16.966 -0.2773 -1.2237  1.0226
11665TIP3    H256487   0.503   4.000  16.862  0.5976 -0.5306  1.4443
11666TIP3   OH256488   4.792   3.055   0.967 -0.8155  0.0777 -0.5292
11666TIP3    H156489   4.770   3.096   1.051 -0.0988  1.9254 -1.1851
11666TIP3    H256490   4.812   2.964   0.988 -0.9911  0.4269  1.2429
11667TIP3   OH256491   0.434   6.456   2.455  0.0351 -0.9456 -0.3438
11667TIP3    H156492   0.437   6.367   2.490 -0.3652 -1.9162 -2.5930
11667TIP3    H256493   0.361   6.497   2.502  0.3612 -1.7121  0.8783
11668TIP3   OH256494   3.501   5.103   4.413 -0.3092  0.5593 -0.7489
11668TIP3    H156495   3.470   5.059   4.335  0.0124  0.7778 -1.0034
11668TIP3    H256496   3.584   5.060   4.433 -0.7214  0.0382 -0.1271
11669TIP3   OH256497   3.507   3.891  17.167  0.5023  0.6585  0.1647
11669TIP3    H156498   3.440   3.926  17.226  0.3886  0.5590  0.0937
11669TIP3    H256499   3.576   3.957  17.169 -1.2954  2.8888 -2.9751
11670TIP3   OH256500   5.130   2.909  17.063  0.2900  0.0546 -0.3114
11670TIP3    H156501   5.046   2.878  17.097 -0.5710 -0.0949 -2.3921
11670TIP3    H256502   5.122   3.004  17.063  0.4068  0.0645  0.1661
11671TIP3   OH256503   5.221   4.766   0.582 -0.2679 -0.0381  0.3951
11671TIP3    H156504   5.235   4.678   0.618  1.0021  0.8236  2.1712
11671TIP3    H256505   5.126   4.779   0.587 -0.1660  0.1144  3.8411
11672TIP3   OH256506   4.010   0.240  14.968  0.1416  0.0903  0.2464
11672TIP3    H156507   4.018   0.144  14.970  1.9681  0.2113  0.9846
11672TIP3    H256508   4.043   0.268  15.053  0.2105  1.4261 -0.1967
11673TIP3   OH256509   5.040   6.357   4.930  0.2757  0.4059  0.0192
11673TIP3    H156510   4.965   6.383   4.985  0.7480  0.9146  0.4460
11673TIP3    H256511   5.049   6.263   4.944  0.5745  0.5723  1.0870
11674TIP3   OH256512   3.628   2.623   3.395 -0.1892 -0.5735  0.2085
11674TIP3    H156513   3.708   2.573   3.377  0.5932  1.0909 -1.2290
11674TIP3    H256514   3.598   2.650   3.308 -2.3491 -1.1606  0.7250
11675TIP3   OH256515   3.517   6.094   1.931 -0.0596  0.2252  0.0132
11675TIP3    H156516   3.495   6.182   1.962  0.3353  0.1340  0.5697
11675TIP3    H256517   3.586   6.064   1.991 -1.2945 -1.0920  0.8283
11676TIP3   OH256518   2.901   3.394  13.501  0.0707 -0.6286  0.1073
11676TIP3    H156519   2.984   3.374  13.460 -0.1455 -2.4935  0.4855
11676TIP3    H256520   2.860   3.459  13.443  1.8076  0.4075 -0.0050
11677TIP3   OH256521   2.326   0.337   6.141  0.2380  0.0674  0.0269
11677TIP3    H156522   2.271   0.333   6.219 -0.6252 -0.6034 -0.6018
11677TIP3    H256523   2.415   0.323   6.174 -0.0198  0.5361  0.9697
11678TIP3   OH256524   6.610   6.723  17.127 -0.3974 -0.5900  0.0719
11678TIP3    H156525   6.517   6.721  17.148 -0.4695 -2.8275 -0.2707
11678TIP3    H256526   6.617   6.787  17.055 -1.5263  0.1384  0.5833
11679TIP3   OH256527   2.357   2.068  17.030 -0.0359 -0.2132  0.0700
11679TIP3    H156528   2.297   2.056  17.103 -0.3562 -1.5011 -0.3778
11679TIP3    H256529   2.381   1.979  17.004 -2.5602 -0.0185 -3.5546
11680TIP3   OH256530   0.168   3.417  11.498  0.2842  0.0088  0.2553
11680TIP3    H156531   0.165   3.428  11.593 -1.9978 -0.2608  0.2847
11680TIP3    H256532   0.212   3.495  11.465 -0.3695  0.9034  1.4471
11681TIP3   OH256533   0.045   0.438  15.969  0.1968  0.8321  0.3355
11681TIP3    H156534   0.110   0.382  15.927  0.4925  1.6056 -0.2649
11681TIP3    H256535   0.090   0.522  15.981 -0.6403  1.3345  0.0598
11682TIP3   OH256536   0.253   6.053   4.567  0.3057 -0.2447 -0.1846
11682TIP3    H156537   0.171   6.008   4.545  0.4681 -0.7577  0.2523
11682TIP3    H256538   0.321   5.991   4.542  0.5670  0.1724 -0.5197
11683TIP3   OH256539   3.071   4.776   2.302 -0.6741  0.2784  0.3520
11683TIP3    H156540   3.079   4.769   2.207  0.7420  0.6080  0.4346
11683TIP3    H256541   3.123   4.852   2.326 -2.4776  1.3190  1.2299
11684TIP3   OH256542   2.529   2.154   0.188 -0.4927  0.2140  0.1322
11684TIP3    H156543   2.573   2.142   0.104 -0.5160  0.1884  0.1236
11684TIP3    H256544   2.556   2.241   0.218 -0.4089  0.1843  0.1435
11685TIP3   OH256545   0.512   6.159  14.304  0.1139  0.5277  0.1527
11685TIP3    H156546   0.600   6.186  14.275  0.6151 -0.0120  1.1275
11685TIP3    H256547   0.490   6.087  14.246  0.5844  0.2614  0.2959
11686TIP3   OH256548   5.355   2.997  11.235  0.0059 -0.0737 -0.0740
11686TIP3    H156549   5.357   3.058  11.309 -0.8645  1.8140 -1.5292
11686TIP3    H256550   5.438   3.012  11.190  0.4272 -1.0480  0.3344
11687TIP3   OH256551   3.370   1.513  14.794 -0.3701 -0.6558  0.8098
11687TIP3    H156552   3.396   1.605  14.798  0.4547 -0.7913 -0.7991
11687TIP3    H256553   3.282   1.511  14.832  0.1161  0.5681  2.0752
11688TIP3   OH256554   6.411   6.014  14.581 -0.0392  0.2723 -0.4711
11688TIP3    H156555   6.411   5.943  14.517  3.4195 -0.1211 -0.2301
11688TIP3    H256556   6.390   6.092  14.530  0.1604 -0.3854 -1.5827
11689TIP3   OH256557   3.333   4.712  14.221 -0.2090 -0.2481 -0.3244
11689TIP3    H156558   3.361   4.625  14.248  0.4810 -0.4911 -1.7270
11689TIP3    H256559   3.243   4.700  14.191 -1.0748  0.0735  1.9785
11690TIP3   OH256560   1.421   0.689   5.007  0.2489  0.3375  0.1741
11690TIP3    H156561   1.354   0.739   4.960  1.1026  0.3661 -1.0624
11690TIP3    H256562   1.372   0.627   5.061 -0.7682  0.6214 -0.4063
11691TIP3   OH256563   0.914   5.539  13.362 -0.2018  0.0137 -0.2321
11691TIP3    H156564   0.852   5.602  13.327 -1.6609 -0.2441  1.7353
11691TIP3    H256565   0.967   5.589  13.424  0.7139 -0.0617 -0.9264
11692TIP3   OH256566   3.063   4.139   6.293 -0.2610 -0.0045  0.3671
11692TIP3    H156567   3.065   4.215   6.235  2.0201 -0.6366 -0.5006
11692TIP3    H256568   2.975   4.102   6.282  0.0144 -0.0213 -2.6249
11693TIP3   OH256569   0.121   4.099   3.479 -0.6149 -0.0249  0.8697
11693TIP3    H156570   0.197   4.069   3.528 -0.2092 -0.0303  0.2468
11693TIP3    H256571   0.157   4.156   3.411 -1.3088  1.3532  1.6112
11694TIP3   OH256572   3.648   5.824   1.400  0.0526 -0.0112  0.2870
11694TIP3    H156573   3.585   5.772   1.450 -1.1030  2.4106  1.5206
11694TIP3    H256574   3.696   5.760   1.348 -1.8104 -2.1966  1.0938
11695TIP3   OH256575   1.128   3.536   0.545 -0.3531  0.1427  0.2191
11695TIP3    H156576   1.116   3.464   0.482  0.5940  1.1589 -1.1975
11695TIP3    H256577   1.193   3.503   0.606 -0.5277 -0.4946  0.0759
11696TIP3   OH256578   4.984   4.255  15.672 -0.5968 -0.4844 -0.2719
11696TIP3    H156579   4.967   4.326  15.734  0.0929  0.4907 -1.1530
11696TIP3    H256580   4.917   4.189  15.691 -2.3979  1.1670 -0.5841
11697TIP3   OH256581   0.441   2.946   0.553  0.3907  0.4552  0.1747
11697TIP3    H156582   0.375   3.001   0.595 -0.2839 -1.3768  1.6531
11697TIP3    H256583   0.523   2.992   0.566 -0.3423  1.9236 -0.1524
11698TIP3   OH256584   6.074   5.161   1.623  0.9505  0.3835  0.4039
11698TIP3    H156585   6.050   5.253   1.636  1.1530  0.3187  1.3381
11698TIP3    H256586   5.994   5.118   1.592  1.1368  1.0746 -1.1312
11699TIP3   OH256587   6.347   4.404  13.000 -0.5645 -0.0236  0.4239
11699TIP3    H156588   6.419   4.348  12.971 -0.0600 -0.0473  1.6784
11699TIP3    H256589   6.374   4.435  13.086 -1.1278  1.6403  0.0386
11700TIP3   OH256590   4.553   4.999   2.574  0.1702 -0.2456  0.0622
11700TIP3    H156591   4.463   4.986   2.605  0.3647 -1.1913  0.2592
11700TIP3    H256592   4.549   5.079   2.523 -0.9157 -0.5779 -0.4087
11701TIP3   OH256593   2.043   5.705  16.751 -0.4807 -0.2021 -0.3444
11701TIP3    H156594   1.948   5.717  16.753 -0.4698 -0.1139  1.2539
11701TIP3    H256595   2.075   5.771  16.690 -1.3206  0.8645  0.3522
11702TIP3   OH256596   4.981   2.375   3.296  0.2318  0.3591 -0.8862
11702TIP3    H156597   4.921   2.440   3.333 -0.2767 -0.4464 -0.2399
11702TIP3    H256598   4.955   2.292   3.338  1.6429 -0.0567 -0.7771
11703TIP3   OH256599   3.622   4.162   5.292  0.1608 -0.1218  0.3337
11703TIP3    H156600   3.681   4.237   5.290 -0.1387  0.1298  0.8222
11703TIP3    H256601   3.680   4.086   5.303  0.4907 -0.0036 -0.5536
11704TIP3   OH256602   2.619   2.430  16.663 -0.4455  0.2717  0.0240
11704TIP3    H156603   2.576   2.385  16.736 -1.1280  2.5663  1.1390
11704TIP3    H256604   2.698   2.467  16.701  0.8339 -1.0594 -1.2131
11705TIP3   OH256605   0.661   0.234   3.315 -0.2958  0.2326  0.5779
11705TIP3    H156606   0.650   0.239   3.410  2.4978 -1.7388  1.1522
11705TIP3    H256607   0.574   0.247   3.279 -1.4206  1.1002  3.4053
11706TIP3   OH256608   2.474   3.459  13.422 -0.2133  0.4384 -0.5800
11706TIP3    H156609   2.429   3.538  13.451  0.8691  1.0622 -0.5831
11706TIP3    H256610   2.551   3.491  13.375  1.1469 -0.6163  0.8441
11707TIP3   OH256611   2.473   0.052   2.860  0.2862 -0.0541  0.1643
11707TIP3    H156612   2.516  -0.031   2.880  1.9543  1.0342  1.3643
11707TIP3    H256613   2.382   0.038   2.884  1.0940 -0.6439  3.4518
11708TIP3   OH256614   1.781   4.197   2.479  0.0752  0.0229  0.0373
11708TIP3    H156615   1.850   4.208   2.414 -1.5113  1.1342 -1.5794
11708TIP3    H256616   1.802   4.260   2.547  0.9272 -0.0254 -0.1663
11709TIP3   OH256617   0.555   0.680   4.753 -0.6844  0.0626  0.3194
11709TIP3    H156618   0.508   0.607   4.714 -1.7336  0.2562  1.1744
11709TIP3    H256619   0.531   0.755   4.699  2.2168 -0.5105 -2.0156
11710TIP3   OH256620   5.232   1.864   4.327  0.1274 -0.4207  0.2096
11710TIP3    H156621   5.194   1.859   4.240 -0.4497  0.1390  0.4200
11710TIP3    H256622   5.323   1.837   4.315 -0.4539 -2.2873 -0.1999
11711TIP3   OH256623   6.481   5.186  15.852  0.5113 -0.0425  0.4994
11711TIP3    H156624   6.389   5.203  15.832  0.4015  0.3884  1.3343
11711TIP3    H256625   6.526   5.268  15.832  0.6702 -0.1585  0.3749
11712TIP3   OH256626   6.134   1.038   4.367 -0.0926 -0.4386  0.2656
11712TIP3    H156627   6.090   1.044   4.452  0.1309  3.2071  0.3041
11712TIP3    H256628   6.228   1.044   4.388  0.0450 -0.9409 -0.1787
11713TIP3   OH256629   2.192   4.025  16.632  0.0189 -0.4968 -0.3938
11713TIP3    H156630   2.278   4.061  16.652  0.0968 -1.0018  0.2204
11713TIP3    H256631   2.204   3.978  16.549  0.1665 -0.0069 -0.6527
11714TIP3   OH256632   1.629   0.835   5.113 -0.1558  0.3691  0.2204
11714TIP3    H156633   1.606   0.846   5.205 -1.8150  1.0968 -0.2318
11714TIP3    H256634   1.558   0.780   5.078  0.0191  0.7725 -0.7868
11715TIP3   OH256635   4.909   2.142   5.808  0.4024 -0.0309  0.4466
11715TIP3    H156636   4.844   2.080   5.775  0.9890  0.5586 -1.9449
11715TIP3    H256637   4.861   2.194   5.874 -0.7890 -1.3086  0.6207
11716TIP3   OH256638   1.910   1.284   1.574 -0.5455 -0.4165 -0.6740
11716TIP3    H156639   1.963   1.217   1.616  0.8246  1.0577  0.0664
11716TIP3    H256640   1.901   1.255   1.483  3.6489  0.3379 -1.5439
11717TIP3   OH256641   6.063   0.498  11.717 -0.4301 -0.1250  0.9532
11717TIP3    H156642   6.123   0.559  11.675 -0.8183  0.1376  0.7758
11717TIP3    H256643   6.116   0.420  11.735  0.1086  0.3318  1.3427
11718TIP3   OH256644   1.915   0.418  15.568  0.8496 -0.7816  0.1526
11718TIP3    H156645   2.001   0.458  15.584  0.0196  1.7841 -1.2986
11718TIP3    H256646   1.890   0.448  15.481 -1.7061 -1.1229  0.6897
11719TIP3   OH256647   3.481   5.488  16.897  0.7586 -0.1759 -0.0756
11719TIP3    H156648   3.524   5.471  16.813  0.2995  0.9973 -0.5673
11719TIP3    H256649   3.387   5.486  16.877  0.6619  0.9317  0.2321
11720TIP3   OH256650   6.810   4.523   1.015 -0.0207 -0.5128 -0.3256
11720TIP3    H156651   6.728   4.475   1.027 -0.8536  0.7637 -0.7531
11720TIP3    H256652   6.805   4.557   0.926  0.2129  0.9546  0.1937
11721TIP3   OH256653   3.897   6.555  10.982 -0.4646  0.3264  0.1099
11721TIP3    H156654   3.806   6.538  10.957 -0.4474 -0.2707  0.4436
11721TIP3    H256655   3.891   6.604  11.063 -0.4991  1.2017 -0.4087
11722TIP3   OH256656   4.574   3.849   1.881 -0.2057 -0.2329  0.0630
11722TIP3    H156657   4.561   3.943   1.888 -1.2680 -0.4655  4.6864
11722TIP3    H256658   4.486   3.812   1.884  0.2400 -1.3986 -0.5353
11723TIP3   OH256659   6.621   3.434  11.870 -0.2750 -0.4974  0.2353
11723TIP3    H156660   6.644   3.480  11.789 -1.4078 -1.6701 -0.7897
11723TIP3    H256661   6.589   3.503  11.928 -1.2794  0.1236 -1.0185
11724TIP3   OH256662   6.622   1.820  11.188 -0.7999 -0.6395  0.0705
11724TIP3    H156663   6.579   1.751  11.239  0.5436 -1.4607  0.1319
11724TIP3    H256664   6.688   1.774  11.136  0.4110  0.6350  0.4184
11725TIP3   OH256665   1.004   0.261  16.641 -0.4411  0.4251  0.3167
11725TIP3    H156666   1.002   0.200  16.714  1.6007  0.5010  0.5008
11725TIP3    H256667   1.069   0.224  16.581 -0.6578  1.3687 -0.5307
11726TIP3   OH256668   3.539   4.348   4.633  0.6398  0.4662 -0.1659
11726TIP3    H156669   3.497   4.340   4.548 -0.0450  0.6203  0.1500
11726TIP3    H256670   3.566   4.259   4.655 -0.6294  0.1389  0.1707
11727TIP3   OH256671   4.010   3.774  16.691 -0.2047 -0.1353  0.3605
11727TIP3    H156672   4.006   3.772  16.786 -0.2618 -1.8264  0.3525
11727TIP3    H256673   4.002   3.867  16.668 -0.0141  0.3041  1.9937
11728TIP3   OH256674   0.836   0.115  12.882  0.0324 -0.1452  0.1551
11728TIP3    H156675   0.838   0.035  12.935 -0.3643  0.4827  1.1251
11728TIP3    H256676   0.759   0.105  12.827  0.4978 -0.8417 -0.3852
11729TIP3   OH256677   6.187   1.606   2.893 -0.1852  0.0999 -0.2925
11729TIP3    H156678   6.233   1.559   2.963  0.0531 -1.1710 -1.2501
11729TIP3    H256679   6.123   1.661   2.939  0.5756 -0.0072  0.9514
11730TIP3   OH256680   5.898   2.813   3.899 -0.4851 -0.1406 -0.4202
11730TIP3    H156681   5.894   2.741   3.962 -0.7250 -0.1125 -0.4012
11730TIP3    H256682   5.948   2.778   3.826  0.6479  0.1412  0.1925
11731TIP3   OH256683   2.373   2.154  11.135  0.1319  0.0696  0.1181
11731TIP3    H156684   2.378   2.249  11.144 -2.0439  0.4523 -1.7428
11731TIP3    H256685   2.424   2.134  11.057 -3.4163  0.5360 -2.6191
11732TIP3   OH256686   2.792   5.181   2.727 -0.3524  0.4115  0.5509
11732TIP3    H156687   2.794   5.275   2.708 -0.0725  0.4848  0.9395
11732TIP3    H256688   2.883   5.157   2.743 -0.2012 -0.2479 -1.0371
11733TIP3   OH256689   2.888   2.613   0.201 -0.2950  0.6237 -0.0210
11733TIP3    H156690   2.900   2.537   0.144 -0.2325  0.7347 -0.1566
11733TIP3    H256691   2.895   2.578   0.290 -2.2901  0.1122 -0.0147
11734TIP3   OH256692   5.588   1.634  12.813  0.7154 -0.2659 -0.3235
11734TIP3    H156693   5.510   1.663  12.765  0.8313 -0.3791 -0.5822
11734TIP3    H256694   5.587   1.684  12.894 -0.1396 -0.9247  0.0897
11735TIP3   OH256695   5.442   1.766   1.325  0.6103  0.0557 -0.3239
11735TIP3    H156696   5.430   1.680   1.283  1.1842  0.3924 -1.1842
11735TIP3    H256697   5.535   1.784   1.317  0.2068  1.6655 -1.9470
11736TIP3   OH256698   2.095   4.692   2.942 -0.2482 -0.1961 -0.1405
11736TIP3    H156699   2.087   4.776   2.896  0.4314 -1.1705 -2.1478
11736TIP3    H256700   2.185   4.690   2.974 -0.6844  0.4265  1.2099
11737TIP3   OH256701   0.590   4.142  12.740 -0.0809  0.3329 -0.1518
11737TIP3    H156702   0.603   4.138  12.646  1.3082 -0.8377  0.0538
11737TIP3    H256703   0.662   4.195  12.773 -0.4717  0.6122  0.2613
11738TIP3   OH256704   4.179   1.515   4.539 -0.1937  0.2205 -0.2929
11738TIP3    H156705   4.235   1.471   4.475  1.3140  1.6334 -0.0301
11738TIP3    H256706   4.221   1.497   4.624 -0.5948  0.6091 -0.0076
11739TIP3   OH256707   2.284   2.254   2.079  0.2669 -0.2995 -0.0697
11739TIP3    H156708   2.341   2.289   2.011  0.1141 -0.3006 -0.2009
11739TIP3    H256709   2.214   2.319   2.087 -0.3911 -0.8905 -0.8020
11740TIP3   OH256710   0.982   1.821  15.752 -0.3435  0.3019 -0.4109
11740TIP3    H156711   0.919   1.883  15.715 -0.8339 -0.1426 -0.3310
11740TIP3    H256712   1.059   1.828  15.695 -0.7816  0.2300 -1.0181
11741TIP3   OH256713   1.643   1.959  16.512 -0.4470 -0.8189 -0.1167
11741TIP3    H156714   1.706   1.911  16.566  1.3360  2.0181  0.5746
11741TIP3    H256715   1.691   1.979  16.432 -1.5663 -1.2054 -0.9016
11742TIP3   OH256716   2.392   0.149   5.355 -0.0410 -0.1748 -0.3076
11742TIP3    H156717   2.412   0.167   5.263 -0.4845 -1.0890 -0.5904
11742TIP3    H256718   2.303   0.112   5.354  0.2844 -1.0155  0.3848
11743TIP3   OH256719   2.430   3.213   1.600  0.2826  0.1510 -0.2130
11743TIP3    H156720   2.442   3.125   1.563  1.3071  0.3503 -0.3750
11743TIP3    H256721   2.487   3.215   1.676 -1.4787 -0.0938  1.1681
11744TIP3   OH256722   0.140   6.067   1.496  0.2549  0.5356  0.0975
11744TIP3    H156723   0.100   6.141   1.449  2.6271  1.1658 -1.1086
11744TIP3    H256724   0.069   6.004   1.506 -1.4585  2.3103 -0.2762
11745TIP3   OH256725   1.650   2.911  10.644  0.0322 -0.8906  0.2222
11745TIP3    H156726   1.631   2.997  10.681  0.2735 -1.1667  1.0081
11745TIP3    H256727   1.564   2.874  10.623 -0.1223 -0.8061  0.6948
11746TIP3   OH256728   1.821   2.312   3.823 -0.1433  0.6978 -0.6630
11746TIP3    H156729   1.880   2.282   3.893  0.2836  3.4351  0.2702
11746TIP3    H256730   1.868   2.292   3.742 -0.3910 -2.0153 -0.2117
11747TIP3   OH256731   1.185   6.085   5.251  0.2477 -0.2619  0.6817
11747TIP3    H156732   1.164   6.065   5.342  0.6147 -1.3903  0.5370
11747TIP3    H256733   1.140   6.017   5.201 -1.4630  1.3839 -0.1427
11748TIP3   OH256734   0.435   5.262  17.024 -0.6835  0.7332  0.5070
11748TIP3    H156735   0.423   5.355  17.008 -2.1724  0.3950 -0.4757
11748TIP3    H256736   0.350   5.232  17.056 -0.6879 -0.5729 -0.6504
11749TIP3   OH256737   1.431   1.847  14.975 -0.3226 -0.2532 -0.1388
11749TIP3    H156738   1.427   1.895  15.058  1.3725 -1.3031  0.5945
11749TIP3    H256739   1.497   1.892  14.924 -0.9038 -0.0020 -0.6828
11750TIP3   OH256740   0.792   2.426  13.658  0.7567  0.4070 -0.1882
11750TIP3    H156741   0.870   2.454  13.611  1.5825 -1.4227 -0.0038
11750TIP3    H256742   0.719   2.450  13.601  1.6826 -1.1191 -2.1308
11751TIP3   OH256743   2.768   4.168   1.782  0.0211  0.1374 -0.9328
11751TIP3    H156744   2.673   4.172   1.792 -0.1662 -0.4209 -2.2976
11751TIP3    H256745   2.802   4.171   1.872 -1.3478 -1.2177 -0.3178
11752TIP3   OH256746   0.895   1.865   1.913 -0.0799  0.5717 -0.3746
11752TIP3    H156747   0.908   1.858   1.818 -0.2917  1.6866 -0.4882
11752TIP3    H256748   0.866   1.955   1.927  4.3052  1.9760  1.2332
11753TIP3   OH256749   4.475   2.764   0.551 -0.3462 -0.3563 -0.4476
11753TIP3    H156750   4.520   2.744   0.633  0.1373  1.3182 -0.2750
11753TIP3    H256751   4.423   2.842   0.571 -0.1401  0.1314 -1.7672
11754TIP3   OH256752   4.438   2.571   4.790 -0.2617 -0.0795 -0.1071
11754TIP3    H156753   4.480   2.552   4.874 -0.6167  0.3556  0.1751
11754TIP3    H256754   4.463   2.499   4.733  0.3709 -0.1315  0.2370
11755TIP3   OH256755   1.901   6.778  11.849  0.5356 -0.2549  0.1650
11755TIP3    H156756   1.978   6.826  11.878 -0.4232  0.9132  0.8590
11755TIP3    H256757   1.936   6.700  11.807  2.1914  1.4401 -1.8211
11756TIP3   OH256758   4.797   1.620  10.764 -0.2701  0.0949 -0.9169
11756TIP3    H156759   4.860   1.685  10.796 -0.9947 -0.0057  0.8568
11756TIP3    H256760   4.850   1.546  10.736  0.4775  0.6917 -1.0880
11757TIP3   OH256761   3.050   5.508  16.434 -0.0842 -0.2335  0.0111
11757TIP3    H156762   3.059   5.576  16.501 -1.8772 -0.3942  0.4603
11757TIP3    H256763   3.100   5.542  16.359 -0.4317  1.2930  0.4420
11758TIP3   OH256764   1.830   5.016   1.605 -0.3776  0.4214  0.7819
11758TIP3    H156765   1.750   4.977   1.640  0.4786 -0.5862  1.7197
11758TIP3    H256766   1.846   4.968   1.524  0.8447 -1.5219  2.0921
11759TIP3   OH256767   4.632   6.579   1.139 -0.3436  0.2585 -0.4736
11759TIP3    H156768   4.569   6.514   1.108  1.5446 -1.0916 -1.7171
11759TIP3    H256769   4.716   6.533   1.139  0.6843  2.0123  1.0127
11760TIP3   OH256770   4.632   0.003  16.103  0.1143  0.4869  0.1015
11760TIP3    H156771   4.634  -0.081  16.149  2.1140  1.4215  1.9492
11760TIP3    H256772   4.655  -0.018  16.013 -2.3620 -1.2422 -0.2289
11761TIP3   OH256773   2.999   4.998   5.998 -0.6121 -0.3575 -0.4909
11761TIP3    H156774   3.031   5.067   6.055  1.6000 -0.7952 -1.1115
11761TIP3    H256775   2.948   4.941   6.056 -0.9101  0.7652  0.3966
11762TIP3   OH256776   4.952   6.610  10.718  0.0893 -0.4583  0.3620
11762TIP3    H156777   5.000   6.688  10.746 -1.4303  1.0640 -1.0473
11762TIP3    H256778   4.901   6.639  10.642 -0.4103 -2.8814 -0.3155
11763TIP3   OH256779   6.646   2.828  17.274 -0.2736  0.2881  0.3367
11763TIP3    H156780   6.616   2.876  17.352 -1.7304  2.9728 -1.7033
11763TIP3    H256781   6.568   2.783  17.242  0.2492 -0.5655  0.2311
11764TIP3   OH256782   3.936   4.787   0.401  0.4288 -0.3798  0.5048
11764TIP3    H156783   4.023   4.820   0.381 -0.2865 -0.2743 -3.4004
11764TIP3    H256784   3.877   4.858   0.377 -0.8323 -2.0228 -1.7464
11765TIP3   OH256785   6.374   4.773  12.145 -0.0585 -0.3980  0.1952
11765TIP3    H156786   6.411   4.693  12.107  0.4235  0.2845 -0.8062
11765TIP3    H256787   6.450   4.824  12.172 -0.0347  1.7822 -3.4124
11766TIP3   OH256788   5.076   6.598   2.512 -0.4439  0.5640 -0.1547
11766TIP3    H156789   5.149   6.594   2.450  0.0324  0.8293  0.3847
11766TIP3    H256790   5.053   6.691   2.515 -1.3891  0.3765 -0.9857
11767TIP3   OH256791   5.662   0.749   0.440 -0.7651  0.1598  0.3499
11767TIP3    H156792   5.624   0.756   0.353 -0.8273 -1.3349  0.2372
11767TIP3    H256793   5.715   0.670   0.438  0.0021  0.6109  1.3983
11768TIP3   OH256794   2.776   5.271   6.080 -0.4687 -0.3318 -0.5604
11768TIP3    H156795   2.811   5.251   6.167  0.6827  3.0345 -0.1088
11768TIP3    H256796   2.849   5.312   6.034 -2.1617  1.7457 -1.5889
11769TIP3   OH256797   2.035   6.341   2.535  0.3314  0.3820  0.8041
11769TIP3    H156798   2.125   6.309   2.533  0.3876  0.5277  1.0024
11769TIP3    H256799   2.037   6.422   2.484  0.3082  0.3775  0.7958
11770TIP3   OH256800   4.925   6.314   3.439  0.1207 -0.4355  0.4028
11770TIP3    H156801   4.893   6.226   3.416 -0.2402 -0.0178 -0.7723
11770TIP3    H256802   4.846   6.365   3.452  0.3058  0.1199 -0.5763
11771TIP3   OH256803   2.107   1.254  14.528 -0.4905  0.0876  0.2539
11771TIP3    H156804   2.075   1.334  14.571 -0.9266  0.1876 -0.2416
11771TIP3    H256805   2.030   1.220  14.481 -0.1230 -0.2208 -0.1327
11772TIP3   OH256806   3.825   0.657  13.230 -0.4843 -0.3669  0.0154
11772TIP3    H156807   3.881   0.638  13.155  1.4897 -1.0938  1.5562
11772TIP3    H256808   3.737   0.662  13.194  0.3420 -0.9587 -2.2814
11773TIP3   OH256809   5.534   4.199   0.624  0.6270  0.0434 -0.3775
11773TIP3    H156810   5.489   4.132   0.674  1.7185 -0.2574  0.2477
11773TIP3    H256811   5.531   4.169   0.533  0.8812 -0.7190 -0.1344
11774TIP3   OH256812   2.664   6.392  14.061  0.3314  0.2806 -0.2710
11774TIP3    H156813   2.574   6.384  14.092  0.9094  1.0493  1.7697
11774TIP3    H256814   2.706   6.311  14.091  0.5985  0.4416 -0.2112
11775TIP3   OH256815   6.185   1.346  12.336 -0.5377 -0.2844 -0.5453
11775TIP3    H156816   6.125   1.413  12.369 -1.3530 -1.1903 -0.1328
11775TIP3    H256817   6.132   1.267  12.332  1.2046 -1.7472  2.1650
11776TIP3   OH256818   3.544   3.467  15.949  0.0001 -0.6280  0.0337
11776TIP3    H156819   3.515   3.528  16.017  0.2575  0.9920 -1.2510
11776TIP3    H256820   3.551   3.382  15.994  2.1208  0.7182  2.5645
11777TIP3   OH256821   1.743   5.755   6.061 -0.1330  0.1755 -0.5176
11777TIP3    H156822   1.737   5.808   6.140 -0.4506 -0.7113  0.0770
11777TIP3    H256823   1.668   5.695   6.067  1.4059 -1.8326 -0.0112
11778TIP3   OH256824   2.947   4.627  14.425 -0.2971  0.1167 -0.1639
11778TIP3    H156825   2.948   4.601  14.518 -0.1883 -0.0449 -0.2113
11778TIP3    H256826   2.923   4.719  14.427 -1.4180 -0.1656 -0.0388
11779TIP3   OH256827   4.487   3.712  11.911 -0.1901 -0.8080 -0.4695
11779TIP3    H156828   4.452   3.772  11.846  0.2580 -0.2535 -0.2083
11779TIP3    H256829   4.577   3.741  11.925  0.2950 -2.0187 -0.9066
11780TIP3   OH256830   4.737   6.257   2.515 -0.0540 -0.5957 -0.2218
11780TIP3    H156831   4.683   6.280   2.590 -1.4936 -1.8797 -0.8203
11780TIP3    H256832   4.704   6.172   2.486  1.3276 -0.7406 -1.5194
11781TIP3   OH256833   3.176   3.210  17.203  0.4834  0.2413 -0.4482
11781TIP3    H156834   3.196   3.201  17.110  0.3779  0.5065 -0.5000
11781TIP3    H256835   3.082   3.194  17.208  0.4584  0.3943 -0.4131
11782TIP3   OH256836   3.998   6.003  11.983 -0.2119 -0.3138 -0.5656
11782TIP3    H156837   3.924   6.048  12.023 -1.7338 -1.2949 -2.1416
11782TIP3    H256838   3.959   5.949  11.914  1.7580 -2.4145 -0.1370
11783TIP3   OH256839   0.072   2.740  13.820 -0.2464 -0.0291 -0.0097
11783TIP3    H156840   0.060   2.818  13.767  0.0987  0.1641  0.1956
11783TIP3    H256841   0.130   2.767  13.891 -2.2103  0.2578  1.6126
11784TIP3   OH256842   3.072   3.648  14.507 -0.0892  0.1896  0.0907
11784TIP3    H156843   2.977   3.654  14.515 -0.0996 -0.2055  0.2628
11784TIP3    H256844   3.100   3.738  14.488 -0.4027  0.5000  1.0371
11785TIP3   OH256845   3.546   0.210  16.492  0.1803 -0.0994 -0.1525
11785TIP3    H156846   3.561   0.268  16.417  0.4462 -2.6211 -2.1834
11785TIP3    H256847   3.453   0.187  16.486 -0.4134  1.4896  1.7834
11786TIP3   OH256848   1.963   2.170  12.002 -0.0000  0.7027  0.0960
11786TIP3    H156849   2.051   2.147  12.032  0.8720  1.5575 -1.6467
11786TIP3    H256850   1.941   2.101  11.939  0.1124  1.3341 -0.6517
11787TIP3   OH256851   5.506   3.061   4.755  0.1819  0.3478  0.3336
11787TIP3    H156852   5.584   3.018   4.721  1.5237  1.9967  1.1376
11787TIP3    H256853   5.479   3.122   4.687 -0.2037  0.0415  0.2057
11788TIP3   OH256854   3.494   3.617   2.115  0.3574  0.2538 -0.7993
11788TIP3    H156855   3.558   3.687   2.103  3.2153 -1.9442  0.5253
11788TIP3    H256856   3.510   3.557   2.043  1.3490 -1.3593  0.6905
11789TIP3   OH256857   3.743   0.697   2.482  0.1190  0.2381  0.2448
11789TIP3    H156858   3.704   0.675   2.566  0.4595 -1.5681 -0.0255
11789TIP3    H256859   3.836   0.708   2.500  0.1057  0.4439  0.1942
11790TIP3   OH256860   3.355   1.777  14.095 -0.1944  0.2499  0.1451
11790TIP3    H156861   3.356   1.859  14.046  3.1492 -0.5231 -1.3788
11790TIP3    H256862   3.283   1.727  14.057 -0.2828  1.2909 -1.1217
11791TIP3   OH256863   3.377   2.598   4.898  0.0612 -0.3938  0.4511
11791TIP3    H156864   3.469   2.586   4.873  0.0954  0.1798  0.2764
11791TIP3    H256865   3.333   2.625   4.817 -0.2227 -0.4781  0.5748
11792TIP3   OH256866   5.328   2.389  13.946  0.0302  0.1051  0.0299
11792TIP3    H156867   5.260   2.388  13.878 -0.0161 -1.2181  0.0721
11792TIP3    H256868   5.298   2.325  14.010  0.1185  1.2756  1.2907
11793TIP3   OH256869   0.906   5.361   4.135  0.0614 -0.1075 -0.1218
11793TIP3    H156870   0.874   5.296   4.197  0.0538 -1.5728 -1.5650
11793TIP3    H256871   1.001   5.352   4.138  0.1845  1.4064  1.2649
11794TIP3   OH256872   2.214   2.930  16.693 -0.6376 -0.0538  0.4624
11794TIP3    H156873   2.260   2.873  16.754  0.6264 -0.6794 -0.9996
11794TIP3    H256874   2.155   2.872  16.644 -1.6799  0.4466  1.0869
11795TIP3   OH256875   5.215   4.893   2.394 -0.0880  0.6799  0.2750
11795TIP3    H156876   5.245   4.984   2.385 -1.7204  1.5180  2.2920
11795TIP3    H256877   5.272   4.843   2.336  1.3137  2.8917 -0.4023
11796TIP3   OH256878   1.593   0.040  17.226  0.3827  0.7935 -0.0771
11796TIP3    H156879   1.619   0.049  17.134 -0.0314  1.5258 -0.1316
11796TIP3    H256880   1.535  -0.037  17.228 -1.2688  1.9614 -0.8187
11797TIP3   OH256881   2.358   2.273  14.327 -0.2187  0.3469 -0.4210
11797TIP3    H156882   2.432   2.318  14.369  0.4363  0.8369 -2.0076
11797TIP3    H256883   2.377   2.180  14.338 -0.1031  0.4511  0.3843
11798TIP3   OH256884   1.972   6.257   4.005  0.3047  0.2786 -0.3288
11798TIP3    H156885   2.041   6.316   3.976  0.4123  0.8005  0.9319
11798TIP3    H256886   2.011   6.209   4.078  0.0228 -0.9492 -0.9548
11799TIP3   OH256887   4.872   5.563  11.742  0.2526  0.4247 -1.0354
11799TIP3    H156888   4.943   5.591  11.686  0.8272  0.5131 -0.2832
11799TIP3    H256889   4.831   5.489  11.696  1.7684 -0.6008 -0.7965
11800TIP3   OH256890   0.997   4.466  11.971  0.2970  0.0200  0.0941
11800TIP3    H156891   1.051   4.434  11.899  1.0538  3.5635 -1.0936
11800TIP3    H256892   1.058   4.477  12.044  0.1402 -0.6314  0.3335
11801TIP3   OH256893   6.052   4.455  15.258 -0.5941 -0.1461 -0.1974
11801TIP3    H156894   5.985   4.391  15.280  0.3243 -1.5117 -1.2542
11801TIP3    H256895   6.010   4.540  15.275 -1.7464 -0.9907  1.4522
11802TIP3   OH256896   0.197   4.453   0.467 -0.1197 -0.0782 -0.1634
11802TIP3    H156897   0.150   4.370   0.457 -1.0425  0.3821  0.1768
11802TIP3    H256898   0.260   4.437   0.536 -1.7547  0.0939  1.4441
11803TIP3   OH256899   3.576   0.911  13.638  0.2089 -0.2121  0.1311
11803TIP3    H156900   3.548   0.966  13.711  2.0009  0.7300  0.1779
11803TIP3    H256901   3.538   0.825  13.657 -1.9275  0.7490  0.5222
11804TIP3   OH256902   6.431   4.298  13.320 -0.3643  0.1517 -0.7784
11804TIP3    H156903   6.418   4.222  13.263 -1.8050  0.0962 -0.4096
11804TIP3    H256904   6.525   4.316  13.314  0.4506 -2.9206  0.6893
11805TIP3   OH256905   3.686   5.513   2.051 -0.4286 -0.1086  0.2501
11805TIP3    H156906   3.693   5.418   2.057 -2.9112 -0.4339 -0.8684
11805TIP3    H256907   3.749   5.538   1.984 -0.0043 -0.9917  0.3051
11806TIP3   OH256908   4.724   1.462   4.084  0.0868 -0.0868 -0.2154
11806TIP3    H156909   4.640   1.428   4.116  0.1298  0.4350  0.4606
11806TIP3    H256910   4.704   1.552   4.056  0.6444  0.4300  0.9848
11807TIP3   OH256911   6.697   5.173  13.619  0.2325  0.2373 -0.2430
11807TIP3    H156912   6.708   5.101  13.682  0.1878  1.3652  1.1045
11807TIP3    H256913   6.626   5.145  13.562 -0.6468 -0.2750  1.0570
11808TIP3   OH256914   6.079   5.585   5.193 -0.4779 -0.0346 -0.2533
11808TIP3    H156915   6.077   5.493   5.165  0.1635 -0.6882  1.6606
11808TIP3    H256916   5.999   5.597   5.243 -0.9640  0.7220 -1.1753
11809TIP3   OH256917   4.057   0.195  11.937  0.5301  0.1328  0.0534
11809TIP3    H156918   4.052   0.106  11.903 -1.5279  0.6619 -1.1800
11809TIP3    H256919   4.016   0.249  11.869 -2.2427  1.4811  2.6087
11810TIP3   OH256920   2.679   4.836  11.645  0.6228 -0.7313  0.2882
11810TIP3    H156921   2.645   4.844  11.556  0.9462  0.8467  0.2791
11810TIP3    H256922   2.632   4.903  11.696  0.2329 -1.7975  1.3847
11811TIP3   OH256923   6.800   3.976   2.479 -0.4221 -0.1600  0.4454
11811TIP3    H156924   6.717   4.023   2.472 -0.0046  0.7547  1.4360
11811TIP3    H256925   6.810   3.959   2.572  0.3914 -0.4629  0.3078
11812TIP3   OH256926   2.370   4.375  15.714  0.1543 -0.3721  0.0407
11812TIP3    H156927   2.410   4.405  15.795 -0.0450 -0.1902  0.0748
11812TIP3    H256928   2.277   4.367  15.735  0.2540 -1.4191  0.1512
11813TIP3   OH256929   1.227   3.434   0.995 -0.2299  0.2514  0.0447
11813TIP3    H156930   1.252   3.396   1.078 -0.9930  0.8633  0.5748
11813TIP3    H256931   1.148   3.485   1.015 -0.6346  0.1088 -1.1203
11814TIP3   OH256932   2.595   3.974  11.806 -0.0783  0.3597  0.3044
11814TIP3    H156933   2.602   3.906  11.874  0.0538  0.2905  0.2237
11814TIP3    H256934   2.564   3.927  11.729  0.5226  0.2871  0.0998
11815TIP3   OH256935   3.564   0.461   3.929  0.2295 -0.1848 -0.2541
11815TIP3    H156936   3.487   0.408   3.908 -1.0809  0.9643  1.3289
11815TIP3    H256937   3.587   0.435   4.019 -1.0700  2.4596  0.9677
11816TIP3   OH256938   2.233   2.720  15.034 -0.0847 -0.2249 -0.2581
11816TIP3    H156939   2.295   2.784  14.998  1.4383 -0.4544  1.7739
11816TIP3    H256940   2.208   2.756  15.119 -1.7550 -0.8019 -0.4636
11817TIP3   OH256941   6.753   4.380  15.913 -0.1558  0.2806 -0.0880
11817TIP3    H156942   6.798   4.298  15.933 -0.2559  0.5042  1.1173
11817TIP3    H256943   6.728   4.415  15.998  1.2977  2.3649 -0.4400
11818TIP3   OH256944   3.173   2.351   0.613 -0.0532  0.2135  0.3042
11818TIP3    H156945   3.195   2.366   0.705 -0.3258 -0.8779  0.5687
11818TIP3    H256946   3.142   2.260   0.611 -0.3181  0.3164 -0.8180
11819TIP3   OH256947   0.128   2.474  13.749  0.0714 -0.3393  0.2485
11819TIP3    H156948   0.093   2.441  13.666 -1.4226 -0.9971  1.1032
11819TIP3    H256949   0.092   2.562  13.757  0.3316 -0.2208  0.1540
11820TIP3   OH256950   4.360   0.505   6.246 -0.7874 -0.1856  0.4712
11820TIP3    H156951   4.456   0.506   6.246 -0.7499 -1.2058 -0.9881
11820TIP3    H256952   4.335   0.591   6.212 -0.3928  0.0493  0.7656
11821TIP3   OH256953   1.395   3.343   5.078  0.1066  0.2739  0.1564
11821TIP3    H156954   1.361   3.264   5.037  0.6676  0.9387 -1.7226
11821TIP3    H256955   1.471   3.314   5.128  1.0960 -0.2576 -1.5719
11822TIP3   OH256956   0.477   5.197   0.299  0.3944  0.1351  0.1331
11822TIP3    H156957   0.418   5.124   0.282 -0.0364  0.5591 -0.2011
11822TIP3    H256958   0.438   5.271   0.254  0.0683  0.9175  1.6242
11823TIP3   OH256959   2.376   0.317  13.739  0.0402  0.4023  0.1894
11823TIP3    H156960   2.321   0.276  13.805 -0.9879  0.1315 -0.8096
11823TIP3    H256961   2.385   0.408  13.768 -1.5152  0.6282  0.0404
11824TIP3   OH256962   3.045   6.512  16.631  0.3266  0.8137 -0.0771
11824TIP3    H156963   3.083   6.545  16.713  0.5533 -0.0312  0.1696
11824TIP3    H256964   2.952   6.504  16.648  0.4959 -0.2625  0.4317
11825TIP3   OH256965   2.366   5.926   2.033  0.2970  0.3093 -0.5916
11825TIP3    H156966   2.297   5.959   1.975 -0.9511  0.9104  1.1349
11825TIP3    H256967   2.369   5.989   2.104  1.8426 -0.3545 -0.0290
11826TIP3   OH256968   5.050   6.024  15.567  0.1627 -0.1685  0.8014
11826TIP3    H156969   5.043   6.068  15.483 -0.4581  0.9637  1.4224
11826TIP3    H256970   5.117   5.957  15.554 -0.5821 -0.6347 -0.8399
11827TIP3   OH256971   3.325   1.464   1.229  0.4424  0.2496  1.0186
11827TIP3    H156972   3.379   1.425   1.298  1.0817  1.1476  1.0432
11827TIP3    H256973   3.388   1.491   1.162  0.2235  2.6360  1.6863
11828TIP3   OH256974   0.269   0.959  12.214  0.0341  0.1458 -0.4001
11828TIP3    H156975   0.270   0.935  12.306 -0.1505  0.0040 -0.4338
11828TIP3    H256976   0.286   0.878  12.167  0.1683  0.2248 -0.4892
11829TIP3   OH256977   2.991   4.693   5.121  0.4491 -0.0158 -0.2107
11829TIP3    H156978   2.967   4.601   5.107  0.8163  0.0334 -1.2023
11829TIP3    H256979   3.059   4.690   5.189 -0.4142 -0.3618  0.6751
11830TIP3   OH256980   4.569   1.236  14.342 -0.3348 -0.0197  0.0684
11830TIP3    H156981   4.622   1.164  14.308 -0.4452  0.3698 -0.9730
11830TIP3    H256982   4.523   1.199  14.417 -1.4205 -1.4396 -1.2225
11831TIP3   OH256983   4.521   2.697  15.344  0.0054 -0.2555 -0.1163
11831TIP3    H156984   4.522   2.651  15.428 -0.4391  0.2928  0.1989
11831TIP3    H256985   4.571   2.777  15.360  0.4887 -0.4641 -0.5667
11832TIP3   OH256986   6.813   4.883   3.306  0.0790 -0.5310 -0.3062
11832TIP3    H156987   6.800   4.800   3.262 -0.1813 -1.9415  2.2511
11832TIP3    H256988   6.876   4.864   3.376  0.1001  1.4409  0.2856
11833TIP3   OH256989   5.398   4.291  13.539 -0.2770 -0.0807 -0.1753
11833TIP3    H156990   5.352   4.214  13.572  0.5449 -1.3891 -1.9030
11833TIP3    H256991   5.350   4.316  13.460  1.9302 -1.6254 -2.1546
11834TIP3   OH256992   0.692   6.330   4.054  0.4854 -0.0693  0.4529
11834TIP3    H156993   0.707   6.247   4.099  2.0223 -1.3634 -2.2583
11834TIP3    H256994   0.742   6.324   3.973 -0.0401  3.1908 -0.2665
11835TIP3   OH256995   2.280   5.096   5.490 -0.8933 -0.2245 -0.2687
11835TIP3    H156996   2.204   5.130   5.443 -1.8956 -1.2752  0.5104
11835TIP3    H256997   2.251   5.090   5.581 -1.1531 -3.8545 -0.4381
11836TIP3   OH256998   2.154   2.340  13.745 -0.4914 -0.2545  0.0002
11836TIP3    H156999   2.222   2.273  13.756  0.7939  1.1569  1.0251
11836TIP3    H257000   2.120   2.354  13.833 -0.7126  0.4961 -0.2031
11837TIP3   OH257001   3.617   0.689  14.756 -0.0443  0.4334 -0.1089
11837TIP3    H157002   3.629   0.685  14.661 -0.1348  1.9315 -0.2054
11837TIP3    H257003   3.527   0.661  14.770  0.3522 -1.0407 -0.3199
11838TIP3   OH257004   5.822   4.048   1.815  0.7629  0.6262  0.1472
11838TIP3    H157005   5.776   4.131   1.827 -2.5348 -0.9801 -0.3446
11838TIP3    H257006   5.775   4.004   1.744  1.2859 -2.4033  1.5127
11839TIP3   OH257007   3.614   3.245  14.461  0.0454  0.3048 -0.0169
11839TIP3    H157008   3.566   3.167  14.486 -0.8066  0.9805  0.5300
11839TIP3    H257009   3.553   3.317  14.477 -0.2224  0.9072 -3.2000
11840TIP3   OH257010   0.811   0.776  15.988  0.3933  0.2110 -0.1051
11840TIP3    H157011   0.779   0.712  15.925  0.7172  1.1981 -1.3024
11840TIP3    H257012   0.875   0.728  16.040  1.4995 -0.1592 -1.7462
11841TIP3   OH257013   4.270   0.609   5.654 -0.1439  0.1127  0.0894
11841TIP3    H157014   4.313   0.550   5.716 -0.2038 -1.5197 -1.3365
11841TIP3    H257015   4.340   0.666   5.622  0.5853 -1.2164 -0.7542
11842TIP3   OH257016   3.768   2.659  14.036 -0.1409  0.0337  0.2813
11842TIP3    H157017   3.841   2.697  13.987  0.6902 -0.3741  1.1541
11842TIP3    H257018   3.794   2.568  14.051  0.2947  0.4670  2.6025
11843TIP3   OH257019   3.420   6.250  16.297  0.4388 -0.0554  0.0250
11843TIP3    H157020   3.514   6.255  16.284  0.5220  0.4874  0.7600
11843TIP3    H257021   3.404   6.301  16.377 -0.3951 -0.6615  0.2640
11844TIP3   OH257022   1.955   6.732   3.801  0.0994  0.0955  0.0596
11844TIP3    H157023   1.919   6.675   3.869 -1.2136 -2.0630 -2.2827
11844TIP3    H257024   1.985   6.810   3.848 -2.4684 -0.4335  2.8576
11845TIP3   OH257025   4.718   5.362   0.895  0.6578  0.3684 -0.7173
11845TIP3    H157026   4.806   5.338   0.866  1.2742  0.6892  0.7662
11845TIP3    H257027   4.728   5.376   0.990 -1.1235 -0.1700 -0.4273
11846TIP3   OH257028   2.418   5.233  15.469 -0.0891  0.3980 -0.0507
11846TIP3    H157029   2.335   5.221  15.423 -0.9631 -0.2563  1.5986
11846TIP3    H257030   2.393   5.236  15.561  1.5270  2.2104  0.3921
11847TIP3   OH257031   3.601   6.266  11.516  0.3889 -0.0143  0.0283
11847TIP3    H157032   3.617   6.178  11.550  2.7771  0.8677  1.4041
11847TIP3    H257033   3.647   6.268  11.432  1.4976  0.3165  0.6328
11848TIP3   OH257034   3.977   6.407   2.079 -0.2897 -0.5398  0.3952
11848TIP3    H157035   4.069   6.389   2.098 -0.3187 -0.7818  0.3090
11848TIP3    H257036   3.980   6.468   2.005 -0.2152 -1.8133 -0.6876
11849TIP3   OH257037   2.406   4.820  15.421 -0.3573  0.1629  0.6769
11849TIP3    H157038   2.411   4.796  15.329 -1.9577  0.9980  0.3354
11849TIP3    H257039   2.329   4.773  15.454 -0.6273  0.9587  1.2238
11850TIP3   OH257040   5.564   2.068  15.246  0.4699  0.3180 -0.2571
11850TIP3    H157041   5.524   2.155  15.241 -2.3199 -0.9112 -2.8419
11850TIP3    H257042   5.512   2.022  15.312  0.8330  0.1135 -0.1130
11851TIP3   OH257043   2.343   4.461   4.112 -0.1313  0.1486 -0.1426
11851TIP3    H157044   2.280   4.415   4.056 -1.1860  0.5219  0.6926
11851TIP3    H257045   2.321   4.431   4.201  1.1443 -0.0194  0.1344
11852TIP3   OH257046   3.825   0.733   1.187  0.0059 -0.1783  0.3511
11852TIP3    H157047   3.884   0.766   1.255 -1.1892  1.9911  0.4496
11852TIP3    H257048   3.765   0.676   1.234 -1.1113  1.6773  1.3195
11853TIP3   OH257049   0.837   2.198   5.088  0.2798  0.8173  0.0515
11853TIP3    H157050   0.822   2.268   5.025  1.0150  0.1422 -0.9130
11853TIP3    H257051   0.845   2.242   5.172 -1.0319  1.7202 -0.2663
11854TIP3   OH257052   3.594   6.299  10.367 -0.1968  0.2857  0.3425
11854TIP3    H157053   3.545   6.349  10.433 -3.2025 -1.0653 -0.6678
11854TIP3    H257054   3.555   6.212  10.370  1.7594 -0.7163 -1.0777
11855TIP3   OH257055   2.776   0.329  14.081 -0.2290  0.5208 -0.2553
11855TIP3    H157056   2.846   0.290  14.028 -0.1861  0.7912 -0.4021
11855TIP3    H257057   2.821   0.393  14.136 -0.7015  3.0590 -2.6120
11856TIP3   OH257058   6.055   4.092   2.828 -0.2953 -0.1503 -0.1184
11856TIP3    H157059   6.017   4.061   2.910 -2.5009  0.9171 -0.6656
11856TIP3    H257060   5.988   4.149   2.791  0.1138 -1.4878 -3.2316
11857TIP3   OH257061   6.127   0.962  15.556  0.0979  0.5213  0.5582
11857TIP3    H157062   6.101   0.871  15.571  3.9698 -0.6300  1.4499
11857TIP3    H257063   6.200   0.956  15.493 -1.0356  3.3038 -1.2055
11858TIP3   OH257064   4.279   3.310   0.326  0.1009 -0.2300  0.3808
11858TIP3    H157065   4.262   3.218   0.308  0.2460 -0.2638  0.4186
11858TIP3    H257066   4.294   3.313   0.421 -3.1089  0.2933  0.9930
11859TIP3   OH257067   3.786   5.563   3.510 -0.2100 -0.1774  0.2499
11859TIP3    H157068   3.822   5.478   3.532 -0.2575 -0.3844 -0.4669
11859TIP3    H257069   3.697   5.562   3.546  0.0204 -0.1738  0.8247
11860TIP3   OH257070   6.342   5.103   1.071  0.0856  0.2258  0.2396
11860TIP3    H157071   6.324   5.051   0.992 -0.6594 -0.3630  0.7906
11860TIP3    H257072   6.338   5.194   1.041  0.5822 -0.0016 -0.5631
11861TIP3   OH257073   6.546   2.722  15.251 -0.3869 -0.4424  0.3583
11861TIP3    H157074   6.587   2.636  15.248  0.6378 -0.0774  2.1892
11861TIP3    H257075   6.464   2.709  15.298 -0.1722 -0.4129  0.7469
11862TIP3   OH257076   0.160   3.118   2.688 -0.0119 -0.9030 -0.1653
11862TIP3    H157077   0.150   3.212   2.707  0.9221 -0.9664  0.7231
11862TIP3    H257078   0.199   3.116   2.601  0.1048 -0.4566 -0.1289
11863TIP3   OH257079   5.591   4.981  12.123 -0.3643  0.2969 -0.0993
11863TIP3    H157080   5.681   4.993  12.151 -0.5979  0.3353  0.6671
11863TIP3    H257081   5.580   4.886  12.118  0.0717  0.3011 -1.4140
11864TIP3   OH257082   1.754   3.768  11.409  0.1400  0.2715  0.6464
11864TIP3    H157083   1.825   3.757  11.345 -0.9874 -2.7510 -0.2451
11864TIP3    H257084   1.696   3.833  11.369  1.6369  1.6995  0.7169
11865TIP3   OH257085   1.215   3.915  17.139  0.1998  0.1592  0.2992
11865TIP3    H157086   1.120   3.917  17.131  0.2267  0.5339  0.0818
11865TIP3    H257087   1.243   4.005  17.124  0.6382 -0.0580 -0.2165
11866TIP3   OH257088   2.735   3.388   5.455  0.2231 -0.2487  0.2085
11866TIP3    H157089   2.686   3.361   5.377 -1.1451  1.1616  0.5275
11866TIP3    H257090   2.667   3.405   5.521  1.3010 -0.5606  1.4351
11867TIP3   OH257091   4.784   0.259   3.524 -0.7728  0.0837  0.5771
11867TIP3    H157092   4.853   0.324   3.541 -1.1560  0.6657 -0.0167
11867TIP3    H257093   4.708   0.293   3.572 -0.3684 -1.1319  2.1446
11868TIP3   OH257094   2.620   6.266  14.572 -0.4608 -0.1513 -0.6237
11868TIP3    H157095   2.542   6.320  14.576  2.3744  4.4858 -0.7080
11868TIP3    H257096   2.630   6.231  14.661 -1.6825  0.6344 -0.1560
11869TIP3   OH257097   1.925   0.223  11.494  0.3998 -0.1987 -0.5593
11869TIP3    H157098   1.932   0.237  11.400 -2.2517 -0.9187 -0.9407
11869TIP3    H257099   1.933   0.128  11.505 -0.6112 -0.2671 -0.2617
11870TIP3   OH257100   1.060   4.457  11.466  0.3439  0.3823 -0.0997
11870TIP3    H157101   1.029   4.520  11.531  1.3938  0.4617  0.3397
11870TIP3    H257102   0.982   4.433  11.417 -0.0769  1.9630 -0.2321
11871TIP3   OH257103   6.406   4.943  13.979  0.4904 -0.1899 -0.0599
11871TIP3    H157104   6.492   4.902  13.969  2.0054  2.4170  1.2563
11871TIP3    H257105   6.394   4.948  14.074 -0.6864  0.3663 -0.2248
11872TIP3   OH257106   1.865   1.152  16.447  0.0355  0.1000 -0.9184
11872TIP3    H157107   1.834   1.061  16.446 -1.3024  0.5351 -0.5316
11872TIP3    H257108   1.793   1.203  16.412  0.4044  1.1248 -0.2408
11873TIP3   OH257109   0.199   2.044  15.464 -0.0582  0.8239  0.2436
11873TIP3    H157110   0.208   1.952  15.488 -0.2427  1.3506  2.5635
11873TIP3    H257111   0.261   2.090  15.521 -0.4411  2.1925 -0.4077
11874TIP3   OH257112   5.829   3.689   2.190  0.2968  0.0454  0.6257
11874TIP3    H157113   5.816   3.730   2.105  0.4936  0.8996  0.9923
11874TIP3    H257114   5.745   3.648   2.210  0.0613  0.3613  0.2933
11875TIP3   OH257115   3.632   5.990   2.697 -0.0176 -0.4096 -0.8827
11875TIP3    H157116   3.661   5.927   2.630  0.2078 -1.3178  0.0403
11875TIP3    H257117   3.673   6.072   2.671  1.4394 -1.1205 -0.9563
11876TIP3   OH257118   6.545   3.589   3.200  0.3977 -0.0928 -0.5351
11876TIP3    H157119   6.620   3.530   3.208  0.1470 -0.4590 -0.8341
11876TIP3    H257120   6.540   3.633   3.285 -0.8460 -2.2356  0.5895
11877TIP3   OH257121   5.003   3.967   3.664  0.1890  0.6031 -0.4153
11877TIP3    H157122   4.939   3.911   3.708  1.2117 -0.2546  0.0356
11877TIP3    H257123   5.027   3.919   3.585  1.3504  0.1979  0.1619
11878TIP3   OH257124   2.775   1.639   0.561  0.1696 -0.3880 -0.6423
11878TIP3    H157125   2.708   1.595   0.613 -1.1668  2.8236  0.6111
11878TIP3    H257126   2.852   1.642   0.618  0.5625 -1.7535 -1.0676
11879TIP3   OH257127   1.383   3.939  10.414  0.0084 -0.0868  0.7097
11879TIP3    H157128   1.295   3.972  10.393 -0.2845  0.3100  2.4630
11879TIP3    H257129   1.442   3.996  10.365 -0.6853 -0.2237 -0.3258
11880TIP3   OH257130   1.862   2.754  13.237  0.3746 -0.3473  0.4492
11880TIP3    H157131   1.853   2.681  13.176  1.0160  2.4759 -3.4394
11880TIP3    H257132   1.773   2.783  13.255  0.1668  0.9584 -2.2688
11881TIP3   OH257133   5.233   3.882  11.670 -0.5788 -0.3294  0.7445
11881TIP3    H157134   5.248   3.934  11.591  0.5784 -1.5219  0.1498
11881TIP3    H257135   5.143   3.851  11.661 -1.1535  1.1924  0.9175
11882TIP3   OH257136   2.660   3.011   0.132  0.1445 -0.1692 -0.0297
11882TIP3    H157137   2.712   3.090   0.150  0.1134  0.1699 -1.3416
11882TIP3    H257138   2.675   2.993   0.039 -1.2603 -0.6807 -0.1836
11883TIP3   OH257139   5.718   2.550   1.572  0.7167  0.4242 -0.1488
11883TIP3    H157140   5.750   2.641   1.568 -0.4401  0.8107 -3.2555
11883TIP3    H257141   5.791   2.497   1.542  1.1033  0.3716  0.8343
11884TIP3   OH257142   3.202   6.306   0.886  0.3814  0.1205 -0.0781
11884TIP3    H157143   3.151   6.225   0.877  0.5521  0.2737 -3.3314
11884TIP3    H257144   3.261   6.306   0.811  2.3681  1.9639  1.3528
11885TIP3   OH257145   5.984   6.062  13.642  0.2672 -0.1102 -0.1315
11885TIP3    H157146   5.933   6.125  13.693  2.4311  1.8285 -0.2162
11885TIP3    H257147   5.954   6.073  13.552 -0.4120 -0.3192  0.0625
11886TIP3   OH257148   5.843   4.271  11.852  0.4190  0.1017  0.5699
11886TIP3    H157149   5.791   4.296  11.776  0.1828 -0.2286  0.6192
11886TIP3    H257150   5.874   4.183  11.832 -0.5814 -0.4394  1.3290
11887TIP3   OH257151   2.106   0.012   5.790  0.1013 -0.4072 -0.1782
11887TIP3    H157152   2.099   0.010   5.886 -2.5126  2.5106 -0.1617
11887TIP3    H257153   2.177   0.073   5.772 -1.3140  1.3833  0.0182
11888TIP3   OH257154   3.733   3.223  11.544 -0.1576 -0.1906 -0.3789
11888TIP3    H157155   3.661   3.195  11.601 -0.5348  0.9756 -0.2514
11888TIP3    H257156   3.691   3.276  11.477  0.3985 -0.8457 -1.2572
11889TIP3   OH257157   4.232   1.872  11.639 -0.1574 -0.0560 -0.1441
11889TIP3    H157158   4.308   1.831  11.598 -0.6641 -0.3708 -0.7903
11889TIP3    H257159   4.256   1.880  11.731  0.6423 -0.1804 -0.3328
11890TIP3   OH257160   1.041   5.929   2.234 -0.1612 -0.1638 -0.1707
11890TIP3    H157161   1.112   5.988   2.208 -1.0206  0.2876 -1.5960
11890TIP3    H257162   0.994   5.976   2.302  0.4347 -0.1334  0.2244
11891TIP3   OH257163   5.443   5.439  13.350 -0.6085  0.0243  0.2218
11891TIP3    H157164   5.532   5.414  13.375 -0.2993  1.5172  0.6770
11891TIP3    H257165   5.387   5.392  13.412 -0.0379  0.5529  1.1634
11892TIP3   OH257166   6.014   2.087  11.406 -0.2495  0.3622 -0.0670
11892TIP3    H157167   6.048   2.002  11.436 -0.6833  0.7796  1.7343
11892TIP3    H257168   6.055   2.101  11.321  1.3093 -0.7765  0.4551
11893TIP3   OH257169   5.007   1.771   3.875  0.0382  0.2019 -0.3336
11893TIP3    H157170   4.991   1.678   3.891  0.9161 -0.3659 -2.3720
11893TIP3    H257171   5.099   1.783   3.897  0.1289  0.3878 -0.7998
11894TIP3   OH257172   5.399   2.642   1.941  0.3310  0.1259  0.0988
11894TIP3    H157173   5.381   2.612   1.852  0.1770 -0.4003  0.3050
11894TIP3    H257174   5.313   2.661   1.978  0.3792  0.1374  0.2046
11895TIP3   OH257175   6.685   2.309   3.064  0.5384  0.5079 -0.5361
11895TIP3    H157176   6.694   2.242   2.995  1.6505 -0.1966  0.2707
11895TIP3    H257177   6.591   2.323   3.070  0.2130 -1.4428 -0.3256
11896TIP3   OH257178   5.057   0.142   2.536 -0.2401  0.2127  0.1815
11896TIP3    H157179   5.072   0.191   2.455 -0.8672  0.7791  0.4036
11896TIP3    H257180   5.129   0.167   2.593 -1.0956  1.6931  0.6661
11897TIP3   OH257181   1.755   5.720   0.200 -0.3014  0.7139  0.1381
11897TIP3    H157182   1.836   5.736   0.152 -0.2251 -4.0625 -1.8238
11897TIP3    H257183   1.773   5.642   0.252 -3.8324 -1.1249 -1.1171
11898TIP3   OH257184   1.419   3.811  10.906 -0.1854 -0.1086 -0.1538
11898TIP3    H157185   1.360   3.838  10.835  0.3872  2.7108  0.3535
11898TIP3    H257186   1.403   3.873  10.976  0.6732 -1.6549  1.4995
11899TIP3   OH257187   3.478   1.684   3.048  0.5515 -0.0036 -0.2941
11899TIP3    H157188   3.531   1.610   3.076  0.6573  0.0165 -0.4383
11899TIP3    H257189   3.540   1.743   3.004  0.3875 -0.0368 -0.5706
11900TIP3   OH257190   0.571   2.712   0.766 -0.7335 -0.3050 -0.4491
11900TIP3    H157191   0.479   2.735   0.780 -0.7400  1.0446 -2.2932
11900TIP3    H257192   0.571   2.658   0.687  0.2002  1.3190 -1.6087
11901TIP3   OH257193   1.520   5.015   3.289  0.0357 -0.7358  0.4237
11901TIP3    H157194   1.516   4.933   3.240  0.3381 -0.4139 -0.1570
11901TIP3    H257195   1.445   5.066   3.258  0.1967 -0.5525  0.3332
11902TIP3   OH257196   5.440   4.507   2.750 -0.0837  0.0217  0.3295
11902TIP3    H157197   5.374   4.477   2.813  1.2349 -2.9140  0.4883
11902TIP3    H257198   5.430   4.450   2.675  0.3779  1.5021 -0.9198
11903TIP3   OH257199   5.043   4.710  16.795  0.4773 -0.7747  0.1973
11903TIP3    H157200   4.952   4.690  16.775 -0.1016  1.2827  0.5286
11903TIP3    H257201   5.080   4.739  16.712  0.2784  0.2016  0.4370
11904TIP3   OH257202   5.008   4.394   0.970  0.2169  0.2880  0.2941
11904TIP3    H157203   5.087   4.349   0.940  0.7975  1.4467  0.0272
11904TIP3    H257204   5.036   4.447   1.044 -0.3048  0.6915  0.2171
11905TIP3   OH257205   0.934   4.782   5.691  0.3541  0.3424  0.5536
11905TIP3    H157206   0.999   4.712   5.687  0.1526  0.1925 -0.6218
11905TIP3    H257207   0.985   4.861   5.707  0.7760  0.1541  0.1646
11906TIP3   OH257208   0.522   5.228   0.902  0.0884  0.4327  0.3559
11906TIP3    H157209   0.612   5.261   0.900 -0.0764  0.9374  0.9695
11906TIP3    H257210   0.496   5.235   0.994 -0.5574  0.2274  0.1926
11907TIP3   OH257211   1.775   1.549   3.559 -0.1908  0.7413 -0.0381
11907TIP3    H157212   1.752   1.561   3.651 -0.9551 -0.9297  0.0281
11907TIP3    H257213   1.859   1.594   3.549  1.2198 -1.1358  2.1529
11908TIP3   OH257214   2.218   4.721  12.164 -0.6278  0.4272  0.1630
11908TIP3    H157215   2.211   4.739  12.070  0.2027  0.3028  0.0664
11908TIP3    H257216   2.259   4.799  12.200 -1.5026  0.7304  0.5320
11909TIP3   OH257217   6.355   5.499   6.611  0.6026  0.4928 -0.1918
11909TIP3    H157218   6.439   5.458   6.590  0.0294 -0.6622 -0.2683
11909TIP3    H257219   6.375   5.593   6.613  1.7237  0.2930 -0.9777
11910TIP3   OH257220   1.507   1.497  13.130 -0.0709  0.3271 -0.0336
11910TIP3    H157221   1.581   1.491  13.191 -0.3938 -1.1727  0.2387
11910TIP3    H257222   1.521   1.580  13.083  0.7024  1.0359  1.3909
11911TIP3   OH257223   0.843   6.230   3.834 -0.3762  0.5252 -0.0933
11911TIP3    H157224   0.781   6.251   3.765 -0.5371 -0.0401 -0.1275
11911TIP3    H257225   0.927   6.264   3.802 -0.3456 -0.2056 -0.8168
11912TIP3   OH257226   0.492   1.187   3.629 -0.1631 -0.2256 -0.6995
11912TIP3    H157227   0.477   1.123   3.698 -1.3410  0.4888 -0.2718
11912TIP3    H257228   0.421   1.172   3.566 -0.2515  0.4255 -0.7639
11913TIP3   OH257229   1.735   5.587   0.787  0.2263  0.3132  0.0096
11913TIP3    H157230   1.706   5.520   0.725 -2.2286  1.2277  0.0828
11913TIP3    H257231   1.760   5.661   0.732  0.0062  0.4146  0.0479
11914TIP3   OH257232   4.316   6.300   3.065  0.4032 -0.1145 -0.3340
11914TIP3    H157233   4.348   6.210   3.063  0.2239 -0.1663 -1.2816
11914TIP3    H257234   4.392   6.354   3.044  0.6920  0.0246  0.9831
11915TIP3   OH257235   6.168   5.197  13.477 -0.2566 -0.1104 -0.3793
11915TIP3    H157236   6.260   5.223  13.486 -0.3457  0.1766 -0.2754
11915TIP3    H257237   6.157   5.125  13.538  0.3094 -1.2226 -1.5524
11916TIP3   OH257238   5.103   2.109   5.487 -0.2063  0.1940  0.2184
11916TIP3    H157239   5.103   2.013   5.479 -3.4404 -0.0604  1.5806
11916TIP3    H257240   5.081   2.140   5.399 -0.1627 -0.3809  0.0019
11917TIP3   OH257241   3.917   5.190   5.389  0.1756  0.4539  0.0947
11917TIP3    H157242   3.890   5.099   5.381 -0.3542  0.6408 -0.2551
11917TIP3    H257243   3.999   5.195   5.338 -0.7459  0.5788 -1.4395
11918TIP3   OH257244   4.488   1.286   0.963  0.4768  0.6306  0.2865
11918TIP3    H157245   4.553   1.351   0.989  1.4533 -0.0316 -0.4836
11918TIP3    H257246   4.469   1.306   0.872 -0.3164  0.7349  0.4636
11919TIP3   OH257247   1.559   4.596   5.840 -0.1077  0.0009  0.4149
11919TIP3    H157248   1.507   4.630   5.913  2.0130 -0.6320  2.3366
11919TIP3    H257249   1.580   4.673   5.787 -0.9685  0.6049  0.9220
11920TIP3   OH257250   5.947   2.811   0.087  0.2043 -0.1453  0.1388
11920TIP3    H157251   5.965   2.798   0.180 -1.8175  1.1650  0.7930
11920TIP3    H257252   5.852   2.825   0.083  0.2782  0.0874 -2.0971
11921TIP3   OH257253   5.658   1.755  16.383  0.4398 -0.3780  0.7958
11921TIP3    H157254   5.590   1.702  16.342 -0.4339  3.0569 -2.8353
11921TIP3    H257255   5.612   1.801  16.454 -0.2028 -0.4231  0.4220
11922TIP3   OH257256   6.318   3.283   1.613 -0.7126 -0.0223 -0.4440
11922TIP3    H157257   6.238   3.235   1.597 -0.2760 -0.3515 -1.7912
11922TIP3    H257258   6.291   3.375   1.618 -0.9954  0.0823 -2.7826
11923TIP3   OH257259   4.393   2.497   0.566  0.0449 -0.0460  0.5714
11923TIP3    H157260   4.447   2.577   0.563  1.2262 -0.8280 -0.2536
11923TIP3    H257261   4.413   2.458   0.650 -0.2162  0.3103  0.8026
11924TIP3   OH257262   3.528   2.451   2.682 -0.2104 -0.2839 -0.1515
11924TIP3    H157263   3.499   2.363   2.707 -0.1579  0.0080  1.0071
11924TIP3    H257264   3.452   2.506   2.699 -0.6767 -0.2512 -2.0701
11925TIP3   OH257265   2.646   1.051   4.774  0.6085  0.0620 -1.0253
11925TIP3    H157266   2.552   1.034   4.766  0.4660  0.6716 -0.7044
11925TIP3    H257267   2.659   1.136   4.734  0.9300  0.2317 -0.5707
11926TIP3   OH257268   5.960   0.213  14.406  0.3209 -0.1032 -0.2344
11926TIP3    H157269   5.898   0.233  14.337 -1.6496 -1.3965  1.0594
11926TIP3    H257270   6.046   0.226  14.366 -0.7354  2.4888 -1.8608
11927TIP3   OH257271   5.986   3.334  12.475  0.0155  0.5310  0.0388
11927TIP3    H157272   5.994   3.430  12.474  2.9042  0.3963  0.5524
11927TIP3    H257273   5.999   3.308  12.384 -2.1033  0.6345 -0.3362
11928TIP3   OH257274   5.557   2.018   3.932  0.2391  0.3178 -0.1410
11928TIP3    H157275   5.564   1.969   3.850 -1.8399  1.4520 -1.0647
11928TIP3    H257276   5.644   2.055   3.945  1.7276 -2.9265  0.2411
11929TIP3   OH257277   2.838   0.476  13.627 -0.2990 -0.5520  0.1529
11929TIP3    H157278   2.764   0.473  13.566 -0.3504 -1.2676  0.2389
11929TIP3    H257279   2.798   0.474  13.713 -0.2072 -0.0351  0.2109
11930TIP3   OH257280   0.018   5.882  13.725  0.1387 -0.2225 -0.4009
11930TIP3    H157281   0.103   5.870  13.682 -0.7493 -0.8614 -2.0490
11930TIP3    H257282  -0.019   5.960  13.683  0.3921  0.8088  1.1889
11931TIP3   OH257283   1.728   4.787  14.877  0.0127  0.1612  0.7566
11931TIP3    H157284   1.683   4.708  14.849  0.0498  1.0726 -2.2435
11931TIP3    H257285   1.810   4.755  14.915 -0.7730 -1.2718  1.3460
11932TIP3   OH257286   4.903   6.502  12.940 -0.0655 -0.0528 -0.3245
11932TIP3    H157287   4.897   6.439  13.013 -0.1489 -0.3759 -0.6084
11932TIP3    H257288   4.961   6.570  12.973 -2.3339  1.3185  1.1467
11933TIP3   OH257289   4.055   5.777  10.945  0.7515  0.2518  0.3327
11933TIP3    H157290   4.146   5.794  10.917  0.1217 -0.2705 -2.3011
11933TIP3    H257291   4.005   5.777  10.863 -1.1075 -2.8519  1.3311
11934TIP3   OH257292   6.232   4.236  16.298 -1.0391  0.0713 -0.3569
11934TIP3    H157293   6.324   4.259  16.285 -0.9847 -0.5767 -1.1883
11934TIP3    H257294   6.184   4.298  16.243 -1.1455  0.6833  0.3965
11935TIP3   OH257295   0.212   3.224  15.049 -0.0393 -0.3224  0.3453
11935TIP3    H157296   0.189   3.136  15.020 -0.0613 -0.2414  0.1116
11935TIP3    H257297   0.302   3.216  15.079  0.8019  0.0474 -1.8511
11936TIP3   OH257298   5.390   0.154  11.599  0.3016  0.4923 -0.0911
11936TIP3    H157299   5.429   0.067  11.607 -1.7718 -0.6102 -1.1920
11936TIP3    H257300   5.456   0.205  11.552  1.4740 -0.5284  0.3883
11937TIP3   OH257301   3.437   6.780  13.900 -0.0564  0.5040  0.1169
11937TIP3    H157302   3.528   6.793  13.875 -0.2513  1.0215 -0.3406
11937TIP3    H257303   3.401   6.868  13.908 -0.8863  0.2954 -1.1065
11938TIP3   OH257304   3.959   1.139   0.279  0.0160 -0.3584 -0.1469
11938TIP3    H157305   3.961   1.044   0.288 -2.0973 -0.6549 -2.0882
11938TIP3    H257306   3.967   1.171   0.369  1.2283 -2.3045  0.5156
11939TIP3   OH257307   0.777   0.753   6.184  0.6814 -0.4748 -0.4780
11939TIP3    H157308   0.717   0.680   6.197  0.2963  0.2534  2.6650
11939TIP3    H257309   0.722   0.831   6.194  1.6514  0.2210 -0.4183
11940TIP3   OH257310   2.322   1.728   3.239 -1.0364 -0.2972  0.1745
11940TIP3    H157311   2.392   1.776   3.284 -2.0125  1.4080 -0.0670
11940TIP3    H257312   2.256   1.715   3.307 -0.2714 -2.5347  0.5946
11941TIP3   OH257313   0.829   3.486  10.568 -0.0807  0.4605 -0.2623
11941TIP3    H157314   0.751   3.504  10.620 -0.7557  0.0294 -1.0876
11941TIP3    H257315   0.856   3.571  10.534  0.1387  0.6869  0.4603
11942TIP3   OH257316   3.833   2.630   3.685  0.2533  0.0783  0.0903
11942TIP3    H157317   3.745   2.655   3.712 -0.2663 -2.3640  0.9119
11942TIP3    H257318   3.890   2.695   3.727 -1.0655  0.9969  0.5257
11943TIP3   OH257319   3.238   4.510   2.852 -0.0398 -0.8300  0.5855
11943TIP3    H157320   3.262   4.546   2.938 -0.1289  0.6974  0.0121
11943TIP3    H257321   3.171   4.570   2.819 -0.9784 -2.1674  0.0142
11944TIP3   OH257322   3.339   2.711  15.842 -0.2070  0.0090  0.2822
11944TIP3    H157323   3.361   2.725  15.934 -1.4653  0.2090  0.5697
11944TIP3    H257324   3.417   2.670  15.805  0.2099 -0.3659  1.5123
11945TIP3   OH257325   3.064   6.428  12.125  0.1148  0.2582 -0.2286
11945TIP3    H157326   3.074   6.523  12.115 -0.7659  0.2275 -1.7730
11945TIP3    H257327   3.104   6.392  12.046  1.9215 -0.8074  1.0887
11946TIP3   OH257328   1.778   2.785  14.663 -0.4583 -0.4102 -0.1599
11946TIP3    H157329   1.780   2.878  14.642 -1.1241 -0.0678  1.1790
11946TIP3    H257330   1.865   2.753  14.639  0.0030  0.7019 -0.0286
11947TIP3   OH257331   4.688   3.682  15.660 -0.3959 -0.3608  0.0879
11947TIP3    H157332   4.645   3.753  15.707  0.5826  0.7486 -0.6380
11947TIP3    H257333   4.687   3.609  15.721 -2.5294 -0.1266  0.3985
11948TIP3   OH257334   3.491   3.456   4.422  0.2012  0.2157  0.0128
11948TIP3    H157335   3.435   3.527   4.392  0.0967  0.1758  0.1132
11948TIP3    H257336   3.580   3.492   4.418  0.1849  0.2312 -0.2854
11949TIP3   OH257337   6.019   0.833   0.302  0.0454 -0.2711 -0.4719
11949TIP3    H157338   6.111   0.825   0.278  0.6666  1.4533  1.0773
11949TIP3    H257339   6.010   0.780   0.381 -0.5959 -1.3827 -1.2750
11950TIP3   OH257340   4.389   4.815   0.165 -0.4922  0.0315 -0.2715
11950TIP3    H157341   4.459   4.858   0.117 -0.2152  0.0263  0.1164
11950TIP3    H257342   4.313   4.872   0.152 -0.1214  0.6749  0.2721
11951TIP3   OH257343   2.216   4.517   4.763  0.4640 -0.9074 -0.1343
11951TIP3    H157344   2.215   4.434   4.812 -1.0878 -0.3621  0.8543
11951TIP3    H257345   2.294   4.512   4.708 -0.2796 -3.6112 -1.0998
11952TIP3   OH257346   3.861   6.369  12.062 -0.8502  0.2161 -0.1916
11952TIP3    H157347   3.923   6.358  12.134 -0.6224  1.7615 -0.1054
11952TIP3    H257348   3.916   6.384  11.986 -1.0327  2.9330  0.1127
11953TIP3   OH257349   1.709   2.248   2.734 -0.0113 -0.4523  0.2020
11953TIP3    H157350   1.746   2.188   2.670 -0.6627  0.2667 -0.8771
11953TIP3    H257351   1.680   2.191   2.806  1.7121 -1.1697  0.3908
11954TIP3   OH257352   1.306   2.403   0.759  0.6934  0.0263  1.1296
11954TIP3    H157353   1.378   2.367   0.811  0.6310  0.7530  1.7457
11954TIP3    H257354   1.318   2.498   0.766  0.5834  0.1360 -0.0607
11955TIP3   OH257355   4.500   1.794  13.838  0.4336 -0.2422  0.4224
11955TIP3    H157356   4.587   1.755  13.837  1.2134  1.3402 -1.4472
11955TIP3    H257357   4.503   1.859  13.908 -0.4568 -2.4853  2.6842
11956TIP3   OH257358   1.422   0.760  17.279  0.3944 -0.6360 -0.4236
11956TIP3    H157359   1.510   0.799  17.285  0.8186 -1.5392 -0.5094
11956TIP3    H257360   1.362   0.832  17.296  1.1102  0.3378 -1.8083
11957TIP3   OH257361   4.783   6.512   2.280  0.3461  0.4926 -0.4022
11957TIP3    H157362   4.852   6.576   2.263 -0.1156  0.7065 -1.5493
11957TIP3    H257363   4.784   6.501   2.375  0.2326  2.4276 -0.1420
11958TIP3   OH257364   3.245   5.044   0.096 -0.0235  0.1101 -0.2793
11958TIP3    H157365   3.241   4.957   0.136  1.8020  0.2152  0.2432
11958TIP3    H257366   3.283   5.028   0.010 -0.2007  0.3253 -0.3940
11959TIP3   OH257367   2.584   0.197   5.845 -0.5114 -0.0927  0.1095
11959TIP3    H157368   2.606   0.289   5.863 -2.0156  0.1709  0.8148
11959TIP3    H257369   2.580   0.191   5.750 -1.1936  0.8008  0.0644
11960TIP3   OH257370   0.400   3.933  15.250 -0.7981 -0.1176  0.0099
11960TIP3    H157371   0.359   4.005  15.299  0.1607  1.3701 -1.2966
11960TIP3    H257372   0.490   3.961  15.237 -0.2845 -1.7607 -0.2076
11961TIP3   OH257373   5.431   2.224  15.896  0.2482  0.5769  0.6335
11961TIP3    H157374   5.372   2.267  15.957 -1.4596 -1.4255  0.5144
11961TIP3    H257375   5.454   2.141  15.940  0.7104  0.0689 -0.5329
11962TIP3   OH257376   0.174   2.514  17.138 -0.3698 -0.7508 -0.5583
11962TIP3    H157377   0.191   2.472  17.054  0.3768 -1.9776  0.1669
11962TIP3    H257378   0.261   2.541  17.169 -0.6701 -0.0495 -0.3062
11963TIP3   OH257379   1.554   1.864   3.812  0.1629  0.1769 -0.4133
11963TIP3    H157380   1.468   1.905   3.817  0.2794  0.3647  0.1587
11963TIP3    H257381   1.579   1.873   3.720 -0.5958 -0.2439 -0.6671
11964TIP3   OH257382   1.419   5.667  16.568  0.1659 -0.0695  0.1296
11964TIP3    H157383   1.438   5.693  16.478  0.4525  1.0265  0.4897
11964TIP3    H257384   1.506   5.654  16.607  0.0463 -0.3487  0.3026
11965TIP3   OH257385   4.209   4.939   4.032  0.0059 -0.0368 -0.0270
11965TIP3    H157386   4.248   4.881   4.098  1.0951  0.2342 -0.4195
11965TIP3    H257387   4.281   4.959   3.972 -0.9473 -0.1912 -1.2465
11966TIP3   OH257388   6.811   2.059  12.057 -0.5374  0.1452  0.0600
11966TIP3    H157389   6.806   2.083  11.965  1.2363 -1.1626 -0.4331
11966TIP3    H257390   6.869   2.125  12.096 -1.0053  0.4945  0.1677
11967TIP3   OH257391   0.825   2.278   1.551 -0.0887  0.6148  0.0662
11967TIP3    H157392   0.823   2.310   1.461 -0.4378  1.5431  0.3982
11967TIP3    H257393   0.756   2.212   1.555 -1.9714  2.4892  0.3429
11968TIP3   OH257394   5.163   3.229  16.763  0.6780 -0.6763 -0.3440
11968TIP3    H157395   5.232   3.169  16.733 -0.2540 -2.0684  0.2304
11968TIP3    H257396   5.141   3.280  16.685  1.6651 -0.8814 -0.7785
11969TIP3   OH257397   1.245   0.448   0.424  0.2480 -0.5915  0.2758
11969TIP3    H157398   1.279   0.527   0.465 -1.0503 -1.2262  2.7499
11969TIP3    H257399   1.159   0.436   0.463  0.6378 -3.5497  0.4373
11970TIP3   OH257400   6.410   0.478   2.874  0.2939 -0.0179  0.3463
11970TIP3    H157401   6.415   0.401   2.819  2.1136 -0.1396  0.6206
11970TIP3    H257402   6.340   0.459   2.936  1.0903 -1.7176  0.7739
11971TIP3   OH257403   0.105   2.041   1.580 -0.1868  0.2022 -0.1813
11971TIP3    H157404   0.139   1.973   1.638  0.5480 -0.3476 -1.2290
11971TIP3    H257405   0.013   2.019   1.567  0.0808 -0.6836 -0.6254
11972TIP3   OH257406   3.510   1.102  11.295 -0.2309  0.2790  0.1874
11972TIP3    H157407   3.551   1.040  11.355 -0.2846  0.9661  0.9504
11972TIP3    H257408   3.561   1.096  11.215  1.4531  1.1895  1.1391
11973TIP3   OH257409   2.798   0.208  12.868 -0.2111  0.5709 -0.5936
11973TIP3    H157410   2.853   0.230  12.792  0.0631 -1.0043 -0.8903
11973TIP3    H257411   2.840   0.131  12.906 -1.1359  0.5051  0.3318
11974TIP3   OH257412   1.642   4.534  11.418 -0.1550 -0.5692  0.1056
11974TIP3    H157413   1.550   4.509  11.417 -0.7608  1.0846  3.0379
11974TIP3    H257414   1.643   4.621  11.459  2.6187  0.0722 -1.0675
11975TIP3   OH257415   3.024   1.261  15.713  0.1207 -0.1292  0.1463
11975TIP3    H157416   3.080   1.260  15.790 -1.2119  1.2187  1.1933
11975TIP3    H257417   3.032   1.350  15.679 -1.3518  0.1070  0.3354
11976TIP3   OH257418   5.472   0.754  13.351 -0.1819 -0.1010  0.1601
11976TIP3    H157419   5.402   0.813  13.380  0.5532  0.4679  0.8233
11976TIP3    H257420   5.488   0.777  13.260 -0.2037  0.4234  0.2874
11977TIP3   OH257421   2.472   5.647   0.565 -0.2935  0.0319  0.3319
11977TIP3    H157422   2.464   5.553   0.577  1.1250 -0.1341  0.1501
11977TIP3    H257423   2.389   5.674   0.526 -1.1540 -0.9574  1.4151
11978TIP3   OH257424   3.640   5.969  12.467  0.1464 -0.5183  0.4363
11978TIP3    H157425   3.646   5.879  12.496 -0.5250 -0.5046  0.6272
11978TIP3    H257426   3.585   5.966  12.388 -1.7110 -0.0351  1.6489
11979TIP3   OH257427   6.159   4.479   0.034  0.3191  0.5025 -0.6602
11979TIP3    H157428   6.165   4.519  -0.053  1.3454 -0.6800 -1.1680
11979TIP3    H257429   6.068   4.451   0.041  0.0043  1.4195 -0.9729
11980TIP3   OH257430   6.732   2.623   5.158 -0.2668 -0.2042 -0.2927
11980TIP3    H157431   6.770   2.545   5.199 -1.1377  0.1829  1.3278
11980TIP3    H257432   6.801   2.657   5.102 -0.2664 -2.8282 -2.0645
11981TIP3   OH257433   2.725   3.259  10.426 -0.1640 -0.2889  0.0464
11981TIP3    H157434   2.788   3.203  10.471  0.0634 -1.4599 -1.6330
11981TIP3    H257435   2.666   3.198  10.382  0.8143  0.6927 -2.8486
11982TIP3   OH257436   2.025   3.270  15.486  0.6563  0.9137  0.2732
11982TIP3    H157437   1.972   3.312  15.554  0.6698  0.2535  0.6998
11982TIP3    H257438   2.047   3.184  15.522 -0.8461 -0.1927 -1.2732
11983TIP3   OH257439   6.717   4.548   3.538  0.0897  0.1945 -0.3055
11983TIP3    H157440   6.674   4.614   3.484 -1.0258 -0.1108  0.1752
11983TIP3    H257441   6.662   4.541   3.616  2.1302  1.2479  1.3138
11984TIP3   OH257442   1.652   1.417   5.436 -0.7876  0.1076 -0.3786
11984TIP3    H157443   1.573   1.448   5.481 -0.3534 -1.0014  1.2294
11984TIP3    H257444   1.623   1.341   5.385 -0.5681 -1.1168  1.2432
11985TIP3   OH257445   0.489   2.627  13.295  0.3296 -0.1455 -0.4063
11985TIP3    H157446   0.504   2.716  13.328  0.5456 -0.7734  1.3286
11985TIP3    H257447   0.560   2.613  13.232  0.1285  1.0073 -0.8988
11986TIP3   OH257448   6.051   2.473  12.134 -0.6861  0.0045  0.3070
11986TIP3    H157449   6.017   2.399  12.186  0.6466 -0.3397  0.7105
11986TIP3    H257450   5.991   2.545  12.154 -1.0694 -0.5291  1.1735
11987TIP3   OH257451   3.177   0.199   2.249  0.1411  0.4044 -0.8249
11987TIP3    H157452   3.156   0.264   2.182  0.4285  1.0975 -0.2524
11987TIP3    H257453   3.160   0.243   2.332  1.8401  0.2936 -0.3833
11988TIP3   OH257454   4.004   3.539   5.514 -0.1924  0.3804 -0.3470
11988TIP3    H157455   4.010   3.536   5.609  0.6210  2.2961 -0.2953
11988TIP3    H257456   3.954   3.460   5.491 -2.4005  0.9966  1.8206
11989TIP3   OH257457   4.911   2.301   2.636 -0.3792  0.5897 -0.3214
11989TIP3    H157458   4.969   2.248   2.691  0.3812  1.5524 -0.1606
11989TIP3    H257459   4.915   2.259   2.550  0.0305  0.2535 -0.1419
11990TIP3   OH257460   1.430   0.385  11.973  0.0795 -0.3526 -0.1618
11990TIP3    H157461   1.397   0.350  11.890 -0.1744 -2.0971  0.6335
11990TIP3    H257462   1.525   0.383  11.964  0.0615 -0.9831 -0.2380
11991TIP3   OH257463   3.497   2.169   4.974  0.2999 -0.1488 -0.0376
11991TIP3    H157464   3.537   2.244   5.018  0.7099 -0.6005  0.3646
11991TIP3    H257465   3.431   2.208   4.916 -1.9368  0.3480  2.6146
11992TIP3   OH257466   5.896   5.559  14.443  0.0671  0.4118 -0.2482
11992TIP3    H157467   5.818   5.555  14.499 -0.5681  2.6070 -0.8735
11992TIP3    H257468   5.967   5.583  14.502 -0.2605  1.0010 -0.0875
11993TIP3   OH257469   4.185   2.596  12.645 -0.2016 -0.1434 -0.0937
11993TIP3    H157470   4.113   2.650  12.613  0.4296  0.3830 -0.6552
11993TIP3    H257471   4.263   2.631  12.601  0.6382  0.2733  1.6221
11994TIP3   OH257472   5.622   2.875   6.628  0.3615 -0.0047 -0.1308
11994TIP3    H157473   5.691   2.942   6.624  0.4124 -0.0638 -0.2553
11994TIP3    H257474   5.669   2.792   6.617  0.5151 -0.1947  1.7224
11995TIP3   OH257475   4.512   4.095   4.498  0.3756  0.2317 -0.2756
11995TIP3    H157476   4.466   4.175   4.471 -1.0560 -0.6286 -0.5061
11995TIP3    H257477   4.508   4.095   4.593  0.6174  0.5596 -0.2633
11996TIP3   OH257478   5.009   1.082  13.966  0.3251  0.1868 -0.4118
11996TIP3    H157479   5.079   1.135  13.928  0.2321  1.1347  0.6731
11996TIP3    H257480   5.053   1.001  13.993  0.6324  0.0244 -1.3846
11997TIP3   OH257481   4.568   0.921   3.718  0.3357 -0.5032  0.8926
11997TIP3    H157482   4.572   0.908   3.623 -2.1404 -0.5500  0.7120
11997TIP3    H257483   4.501   0.859   3.748 -1.2010  1.6160  2.1682
11998TIP3   OH257484   2.770   5.691  15.082 -0.2728  0.2387 -0.3294
11998TIP3    H157485   2.722   5.671  15.002 -0.2315  3.0120 -1.1202
11998TIP3    H257486   2.736   5.775  15.111 -0.1983 -0.6097  2.5648
11999TIP3   OH257487   1.687   6.202  11.604 -0.1737 -0.9421  0.0880
11999TIP3    H157488   1.719   6.130  11.658 -2.4155 -1.5026  0.7568
11999TIP3    H257489   1.734   6.192  11.521  1.2927 -1.7255  0.9742
12000TIP3   OH257490   4.164   4.011   3.521 -0.5280 -0.4529  0.4178
12000TIP3    H157491   4.183   4.103   3.539  0.5536 -0.5122 -0.3414
12000TIP3    H257492   4.099   4.013   3.451  0.7155 -0.2415 -0.7744
12001TIP3   OH257493   1.214   1.331   2.940 -0.3289  0.5660  0.7006
12001TIP3    H157494   1.284   1.267   2.923 -0.7875  0.1219  0.4430
12001TIP3    H257495   1.229   1.361   3.029  0.7012  1.1255  0.3540
12002TIP3   OH257496   1.824   0.056   5.080 -0.1185  0.2133  0.0651
12002TIP3    H157497   1.761  -0.002   5.038 -0.8746  1.3706 -0.4471
12002TIP3    H257498   1.840   0.017   5.166 -1.4496 -0.1525  0.1610
12003TIP3   OH257499   0.628   3.711   4.399 -0.5091  0.2687 -0.1362
12003TIP3    H157500   0.608   3.776   4.332 -1.1348  0.2811  0.0540
12003TIP3    H257501   0.545   3.664   4.412 -0.4906  0.5008  0.8723
12004TIP3   OH257502   1.382   0.051  15.053  0.2709  0.3237  0.0758
12004TIP3    H157503   1.398  -0.042  15.067  0.3798 -0.0109 -1.9996
12004TIP3    H257504   1.287   0.059  15.054  0.1854 -0.1435 -1.3635
12005TIP3   OH257505   3.110   5.181  14.055  0.3781 -0.1694 -0.0476
12005TIP3    H157506   3.178   5.178  14.123  2.4146  0.8053 -1.8912
12005TIP3    H257507   3.089   5.274  14.047  1.9718  0.0951 -2.2879
12006TIP3   OH257508   0.228   2.791   1.418  0.2402  0.5332  0.4797
12006TIP3    H157509   0.303   2.807   1.475  0.5986 -2.0971  0.8470
12006TIP3    H257510   0.233   2.860   1.351  2.4330  0.9628  1.0296
12007TIP3   OH257511   2.224   4.235   1.951  0.5524 -0.3243 -0.7587
12007TIP3    H157512   2.180   4.164   1.997 -1.2197  0.9601 -0.3592
12007TIP3    H257513   2.182   4.237   1.865 -0.2861  0.9748 -0.3432
12008TIP3   OH257514   6.153   3.816  15.994 -0.1867 -0.1633  0.5699
12008TIP3    H157515   6.205   3.896  15.989  1.2916 -1.1268 -0.0072
12008TIP3    H257516   6.167   3.784  16.083  2.1171 -1.6121 -0.2434
12009TIP3   OH257517   4.656   4.936  15.080  0.2039 -0.5906 -0.1180
12009TIP3    H157518   4.563   4.944  15.060 -0.3710 -1.6160  1.8734
12009TIP3    H257519   4.676   4.844  15.063  0.7026 -0.5173  0.0539
12010TIP3   OH257520   0.285   1.897   1.832  0.2331 -0.1162  0.4204
12010TIP3    H157521   0.226   1.879   1.904  1.9381  0.1081  1.9531
12010TIP3    H257522   0.366   1.928   1.874  1.1710  0.3610 -1.5956
12011TIP3   OH257523   2.212   0.873   3.702 -0.1283 -0.0340  0.0757
12011TIP3    H157524   2.179   0.891   3.790 -1.5137  2.7133 -0.8771
12011TIP3    H257525   2.275   0.943   3.685 -1.6602  0.9913 -1.8859
12012TIP3   OH257526   3.252   2.823   0.642 -0.3698 -0.2129  0.3957
12012TIP3    H157527   3.186   2.754   0.644 -0.8498  0.1723 -0.9829
12012TIP3    H257528   3.204   2.904   0.659 -0.4001  0.1392 -1.1783
12013TIP3   OH257529   4.053   1.927  12.609  0.0264 -0.1018  0.3452
12013TIP3    H157530   4.087   1.977  12.683 -0.6782  0.0113  0.5978
12013TIP3    H257531   4.105   1.957  12.534 -1.2629  2.0354  0.2247
12014TIP3   OH257532   2.284   2.509   3.229  0.1820  0.3543 -0.1713
12014TIP3    H157533   2.364   2.510   3.177  0.7290  0.3686  0.6553
12014TIP3    H257534   2.304   2.449   3.302  0.5248  2.6319  1.7107
12015TIP3   OH257535   2.876   3.874  16.156  0.1627 -0.4755  0.3566
12015TIP3    H157536   2.912   3.960  16.134 -0.0104 -0.6427 -0.6723
12015TIP3    H257537   2.942   3.833  16.210  0.2629  0.2933  0.8294
12016TIP3   OH257538   6.073   0.217  10.982 -0.1847 -0.3722 -0.2057
12016TIP3    H157539   6.085   0.308  10.957 -1.6501 -0.5147 -1.5852
12016TIP3    H257540   6.005   0.184  10.923  0.0054 -2.2442  0.5352
12017TIP3   OH257541   3.138   5.781  16.935  0.0517 -0.1902  0.3271
12017TIP3    H157542   3.171   5.848  16.875 -1.2210  0.9750  0.8614
12017TIP3    H257543   3.082   5.829  16.995  1.6855 -1.2032  2.8245
12018TIP3   OH257544   5.787   2.946   0.887 -0.6478 -1.1850  0.2251
12018TIP3    H157545   5.794   2.857   0.920  1.0329 -0.3227  2.4880
12018TIP3    H257546   5.813   3.001   0.961 -2.4114  1.2477 -0.8128
12019TIP3   OH257547   3.768   3.944   5.009  0.1631  0.3387 -0.2246
12019TIP3    H157548   3.799   3.930   5.098  1.7647  2.5255 -0.3649
12019TIP3    H257549   3.692   4.001   5.019  0.3876  0.6448 -0.2514
12020TIP3   OH257550   1.332   3.171   0.519 -0.4219  0.1762  0.1852
12020TIP3    H157551   1.405   3.232   0.529  0.7111 -1.4695  3.8087
12020TIP3    H257552   1.371   3.094   0.476 -0.1995 -0.3702  1.3368
12021TIP3   OH257553   6.311   0.419   3.628  0.3535 -0.5708  0.1643
12021TIP3    H157554   6.357   0.376   3.555  0.8931 -0.0357  0.1826
12021TIP3    H257555   6.230   0.369   3.638  1.2800 -2.0460  0.6486
12022TIP3   OH257556   2.656   0.766   3.657 -0.4711 -0.4495  0.2351
12022TIP3    H157557   2.745   0.796   3.675 -1.4409  1.7210  1.9535
12022TIP3    H257558   2.666   0.697   3.591  2.3702  0.4600 -0.4110
12023TIP3   OH257559   4.544   6.549  12.093  0.6168 -0.2221 -0.3029
12023TIP3    H157560   4.457   6.588  12.080 -0.6694 -3.2149 -1.4280
12023TIP3    H257561   4.591   6.569  12.012  0.5662  0.3840 -0.1877
12024TIP3   OH257562   6.213   3.196  11.632  0.3885 -0.3339  0.5801
12024TIP3    H157563   6.277   3.217  11.700  1.1806  0.2150 -0.2898
12024TIP3    H257564   6.237   3.108  11.603  1.8620  0.4582 -0.8538
12025TIP3   OH257565   0.386   5.657   5.598  0.4758 -0.0298  0.3233
12025TIP3    H157566   0.298   5.643   5.634  1.6439  0.4406  3.6729
12025TIP3    H257567   0.381   5.743   5.556 -0.7935 -0.2430  0.0016
12026TIP3   OH257568   1.063   5.000   6.122  0.0401  0.1405 -0.3378
12026TIP3    H157569   1.088   4.967   6.208  0.5886 -0.7397 -0.8252
12026TIP3    H257570   1.097   5.090   6.120 -0.2925  0.2934  0.4876
12027TIP3   OH257571   5.409   5.822  15.253  0.5670  0.4114 -0.3557
12027TIP3    H157572   5.392   5.741  15.204  0.4459  0.2821 -0.1007
12027TIP3    H257573   5.496   5.810  15.290  0.1135 -0.0643  0.5871
12028TIP3   OH257574   6.348   4.670   0.476  0.3969  0.6182 -0.0270
12028TIP3    H157575   6.349   4.652   0.381  1.3240 -0.6551  0.1891
12028TIP3    H257576   6.355   4.583   0.516  0.3140  1.1738  1.2089
12029TIP3   OH257577   5.668   2.153   0.084 -0.0927 -0.1079 -0.0097
12029TIP3    H157578   5.632   2.114   0.004 -0.1108 -0.4505  0.1647
12029TIP3    H257579   5.600   2.215   0.112  0.0700  0.2850 -0.4572
12030TIP3   OH257580   5.437   3.543  15.603  0.2281 -0.2893  0.1812
12030TIP3    H157581   5.439   3.558  15.508  2.5281 -0.2261  0.1884
12030TIP3    H257582   5.361   3.593  15.633  2.6922  4.8231 -0.9134
12031TIP3   OH257583   5.826   6.517   2.314 -0.2382 -0.2725 -0.3253
12031TIP3    H157584   5.816   6.612   2.308 -0.6224 -0.3340 -0.7169
12031TIP3    H257585   5.919   6.503   2.331 -0.2831  0.2000  0.3686
12032TIP3   OH257586   5.648   2.770  14.955  0.0674 -0.0539 -0.3275
12032TIP3    H157587   5.733   2.726  14.953  0.5031  0.7212  0.3956
12032TIP3    H257588   5.596   2.723  14.890  0.9066 -0.8182 -0.4820
12033TIP3   OH257589   1.262   0.579  16.418 -0.0221 -0.8747  0.0888
12033TIP3    H157590   1.300   0.572  16.505 -1.3170  0.8595  0.8497
12033TIP3    H257591   1.320   0.639  16.371  0.1466 -1.0549  0.0655
12034TIP3   OH257592   1.252   3.107   5.064  0.2401 -0.0308 -0.1227
12034TIP3    H157593   1.172   3.144   5.103  0.8890  1.7598 -0.4068
12034TIP3    H257594   1.239   3.012   5.070 -2.1559  0.1961 -0.6662
12035TIP3   OH257595   3.956   0.197  11.011 -0.2328 -0.0017  0.8822
12035TIP3    H157596   4.008   0.158  11.082  2.0163  1.4837  0.1434
12035TIP3    H257597   3.994   0.160  10.931  0.2370  1.6757  0.2963
12036TIP3   OH257598   3.310   3.617   4.268  0.2379 -0.7627  0.0203
12036TIP3    H157599   3.222   3.596   4.299 -0.4949  0.6570 -1.0329
12036TIP3    H257600   3.327   3.705   4.300  0.9634 -0.7171 -0.4587
12037TIP3   OH257601   4.461   3.418  13.184  0.0190  0.3606 -0.4011
12037TIP3    H157602   4.545   3.377  13.205  0.1803  1.2408  0.7898
12037TIP3    H257603   4.401   3.345  13.171  0.6480 -0.2655  0.1356
12038TIP3   OH257604   0.352   5.008   3.696 -0.2931  0.2769 -0.2822
12038TIP3    H157605   0.429   4.953   3.685 -0.1554  0.3894  0.1236
12038TIP3    H257606   0.373   5.087   3.646 -0.3743  0.0819 -0.6286
12039TIP3   OH257607   5.393   3.007   3.070  0.0255  0.2520 -0.3535
12039TIP3    H157608   5.467   3.064   3.094 -0.1233  0.1543  0.3779
12039TIP3    H257609   5.412   2.925   3.115  1.9255 -1.4738 -3.9635
12040TIP3   OH257610   2.671   5.281   6.563 -0.1105 -0.2504 -0.3553
12040TIP3    H157611   2.684   5.298   6.469 -0.8628 -1.0066 -0.6087
12040TIP3    H257612   2.576   5.276   6.573 -0.0654  0.3860  0.5643
12041TIP3   OH257613   5.394   3.684  15.287 -0.2182 -0.6010  0.3160
12041TIP3    H157614   5.421   3.634  15.210  0.6393 -0.0886  0.2591
12041TIP3    H257615   5.306   3.715  15.267 -0.1244 -0.7412 -0.3268
12042TIP3   OH257616   4.127   1.193  17.044  0.2453  0.2072  0.1320
12042TIP3    H157617   4.186   1.141  16.988  1.0205  1.0104  0.1903
12042TIP3    H257618   4.058   1.132  17.068  0.9726 -0.7196 -0.0619
12043TIP3   OH257619   3.739   6.697   2.252  0.3902  0.5906 -0.1771
12043TIP3    H157620   3.828   6.713   2.284  0.2318  0.6518  0.2456
12043TIP3    H257621   3.699   6.784   2.250  0.8240  0.7736 -1.8737
12044TIP3   OH257622   3.696   1.785  15.989  0.1815  0.0280 -0.5037
12044TIP3    H157623   3.791   1.784  16.006 -0.1461 -0.4346  1.6627
12044TIP3    H257624   3.687   1.828  15.904  2.2815  0.8807 -0.3606
12045TIP3   OH257625   0.727   4.442  15.353  0.2978  0.0493 -0.5667
12045TIP3    H157626   0.742   4.434  15.259  1.2759 -1.7265 -0.3037
12045TIP3    H257627   0.696   4.356  15.381 -1.3541  0.9423  0.5379
12046TIP3   OH257628   4.997   5.897  14.798  0.0122  0.4981  0.1254
12046TIP3    H157629   4.971   5.982  14.834  0.0970  0.9857 -0.9326
12046TIP3    H257630   4.953   5.833  14.854  0.4748  1.2117  1.3557
12047TIP3   OH257631   4.017   0.090  10.727  0.3526  0.0875 -0.0690
12047TIP3    H157632   3.984   0.007  10.692 -0.7145  0.3797  0.2125
12047TIP3    H257633   3.982   0.157  10.667  1.3724  0.3300 -0.4123
12048TIP3   OH257634   0.045   4.410  12.061  0.2717 -0.4908  0.0507
12048TIP3    H157635   0.015   4.325  12.030 -0.7032  0.1049 -0.7021
12048TIP3    H257636   0.007   4.419  12.148 -1.0468 -0.1280 -0.5385
12049TIP3   OH257637   1.677   4.709   4.989  0.0795 -0.4044  0.8110
12049TIP3    H157638   1.709   4.620   5.006  0.1004 -0.1782  2.0486
12049TIP3    H257639   1.582   4.701   4.989  0.0586 -0.2701  1.9245
12050TIP3   OH257640   3.424   0.744   4.357 -0.2914 -0.5164 -0.4804
12050TIP3    H157641   3.352   0.724   4.297  0.0057  1.5050 -1.5906
12050TIP3    H257642   3.502   0.712   4.311 -0.1738  0.0725 -0.6940
12051TIP3   OH257643   2.407   6.051  16.866 -0.1631  0.4028  0.3987
12051TIP3    H157644   2.394   5.958  16.848 -0.4578 -0.1398  2.9883
12051TIP3    H257645   2.319   6.083  16.887  0.2749  0.6233  2.0167
12052TIP3   OH257646   2.872   1.613  12.852 -0.0741 -0.2958 -0.4119
12052TIP3    H157647   2.803   1.581  12.910  0.9094  0.8800  1.5070
12052TIP3    H257648   2.913   1.685  12.901  2.7233 -1.1408 -1.3131
12053TIP3   OH257649   1.201   0.126  16.483 -0.3430  0.5493 -0.1674
12053TIP3    H157650   1.259   0.078  16.541 -0.8723  0.0692 -0.0233
12053TIP3    H257651   1.133   0.062  16.459 -0.5204  0.9448 -0.7439
12054TIP3   OH257652   4.229   1.251  10.093  0.3804  0.2170  0.1467
12054TIP3    H157653   4.221   1.334  10.047 -2.0498  0.5897  1.0707
12054TIP3    H257654   4.265   1.274  10.178  0.4082  0.2342  0.1297
12055TIP3   OH257655   4.636   4.384   4.642 -0.0990 -0.4179  0.1024
12055TIP3    H157656   4.559   4.383   4.586 -0.9171  0.6010  1.1506
12055TIP3    H257657   4.704   4.424   4.589 -0.4503 -0.8144 -0.6541
12056TIP3   OH257658   4.385   0.742   2.091  0.1549  0.3891 -0.0358
12056TIP3    H157659   4.316   0.711   2.033  0.8473  0.8962 -1.1756
12056TIP3    H257660   4.339   0.774   2.169 -0.7984 -0.2820 -0.3117
12057TIP3   OH257661   2.605   3.567   2.791  0.3072  0.0094  0.1095
12057TIP3    H157662   2.656   3.534   2.717 -1.2135  1.0790 -1.4719
12057TIP3    H257663   2.603   3.662   2.779 -0.4713  0.1593  1.2020
12058TIP3   OH257664   6.473   1.695   5.168  0.2693 -0.2303 -0.6577
12058TIP3    H157665   6.380   1.701   5.191  0.4467 -0.5670  0.1929
12058TIP3    H257666   6.518   1.692   5.252  0.9960 -0.8774 -1.0604
12059TIP3   OH257667   5.814   6.801  14.258  0.2861 -0.1880  0.1810
12059TIP3    H157668   5.826   6.846  14.342  0.2710 -1.7609  1.0601
12059TIP3    H257669   5.755   6.859  14.209 -0.2937  0.4343  1.5289
12060TIP3   OH257670   1.852   4.803   5.802  0.1306  0.2839  0.1479
12060TIP3    H157671   1.779   4.857   5.832 -1.0161 -0.5307 -1.0543
12060TIP3    H257672   1.892   4.853   5.731 -0.2418  0.0508 -0.2298
12061TIP3   OH257673   6.761   5.604   0.969  0.0295  0.1905 -0.0277
12061TIP3    H157674   6.728   5.556   1.045  0.8603  0.7263  0.6952
12061TIP3    H257675   6.687   5.655   0.937 -0.6701 -1.0094 -0.3718
12062TIP3   OH257676   2.712   0.916  13.489  0.1514 -0.2995  0.1375
12062TIP3    H157677   2.806   0.934  13.480  0.4273 -0.6893  1.8023
12062TIP3    H257678   2.689   0.869  13.409  0.7656  2.0287 -1.5054
12063TIP3   OH257679   2.566   5.093   0.135 -0.0549 -0.4833  0.5706
12063TIP3    H157680   2.529   5.055   0.055  1.4567 -0.2395 -0.2909
12063TIP3    H257681   2.498   5.081   0.201 -0.1451 -3.5813  0.0790
12064TIP3   OH257682   3.071   6.098   3.962 -0.2031 -0.5155 -0.3371
12064TIP3    H157683   3.055   6.185   3.925 -0.9631 -1.1577 -1.6157
12064TIP3    H257684   3.074   6.112   4.057 -1.4729  0.7492 -0.4456
12065TIP3   OH257685   1.013   5.803   4.496  0.0109 -0.0541  0.4931
12065TIP3    H157686   0.920   5.822   4.506  0.0097 -0.5861  1.8105
12065TIP3    H257687   1.019   5.750   4.416 -0.3147  2.9412 -1.6687
12066TIP3   OH257688   3.521   5.796  16.509  0.3006  0.6911 -0.3253
12066TIP3    H157689   3.508   5.831  16.421  1.4578 -0.0001 -0.7828
12066TIP3    H257690   3.478   5.860  16.566 -2.1269  0.2371 -1.4837
12067TIP3   OH257691   4.662   5.604   0.771  0.1322  0.0320  0.6226
12067TIP3    H157692   4.661   5.571   0.682 -0.4881 -0.4408  0.8053
12067TIP3    H257693   4.669   5.526   0.826 -1.0261  0.2117  1.0435
12068TIP3   OH257694   4.126   0.358  10.697 -0.3171  0.7756  0.0845
12068TIP3    H157695   4.048   0.307  10.673 -0.2442  1.3624 -1.5214
12068TIP3    H257696   4.119   0.439  10.647  1.7833  0.4466 -0.8978
12069TIP3   OH257697   3.194   4.254   4.310 -0.5391  0.7441  0.1258
12069TIP3    H157698   3.248   4.229   4.385 -0.4488 -1.4504 -0.6007
12069TIP3    H257699   3.113   4.204   4.322 -0.2829 -0.1357 -1.5145
12070TIP3   OH257700   0.616   3.246  13.287  0.0024 -0.6594 -0.0593
12070TIP3    H157701   0.623   3.318  13.350 -0.1590 -0.9111  0.2528
12070TIP3    H257702   0.696   3.252  13.234 -0.1212 -0.1159 -0.1821
12071TIP3   OH257703   1.040   6.783   2.327  0.2720 -0.3136 -0.2215
12071TIP3    H157704   0.966   6.728   2.302 -0.7579  0.8473  0.1610
12071TIP3    H257705   1.081   6.808   2.244  0.1568 -0.8377 -0.4422
12072TIP3   OH257706   2.026   5.659  16.386 -0.5934  0.4405 -0.2737
12072TIP3    H157707   2.075   5.696  16.313 -1.0891  0.1844 -0.7367
12072TIP3    H257708   1.937   5.648  16.353 -0.5928 -0.6145  0.0534
12073TIP3   OH257709   4.030   5.191   2.277 -0.3518 -0.3129 -0.0403
12073TIP3    H157710   3.990   5.148   2.352 -1.6571 -0.3922 -0.7532
12073TIP3    H257711   3.987   5.152   2.201 -1.0214  1.6580 -0.7346
12074TIP3   OH257712   4.840   6.145  16.093  0.2063  0.5751 -0.1333
12074TIP3    H157713   4.805   6.124  16.180 -0.6107  1.6983 -0.1838
12074TIP3    H257714   4.862   6.238  16.097  1.3794  0.3530 -0.7364
12075TIP3   OH257715   4.627   4.407   5.438 -0.5189  0.6912 -0.0379
12075TIP3    H157716   4.601   4.317   5.417 -0.6373  0.9457 -1.0636
12075TIP3    H257717   4.704   4.423   5.384 -1.1852  1.5725 -0.7818
12076TIP3   OH257718   5.914   2.205  12.662 -0.3540 -0.0281  0.4257
12076TIP3    H157719   5.924   2.144  12.590 -0.2450  0.9877 -0.4456
12076TIP3    H257720   6.001   2.213  12.700 -0.5358 -1.0432  1.0858
12077TIP3   OH257721   5.133   5.758  13.068  0.1559  0.4199  0.1107
12077TIP3    H157722   5.193   5.746  13.141 -2.2302 -1.3076  1.9422
12077TIP3    H257723   5.062   5.812  13.103 -0.5115  0.5107 -1.2883
12078TIP3   OH257724   1.018   1.919  14.374 -0.9494 -0.5257 -0.5202
12078TIP3    H157725   1.017   2.007  14.412 -3.0861 -0.2895 -0.9960
12078TIP3    H257726   1.108   1.907  14.344  0.1054  0.4131  1.9381
12079TIP3   OH257727   4.094   6.138  10.773 -0.7442 -0.3159  0.1541
12079TIP3    H157728   4.082   6.068  10.709 -0.2808 -1.4773  1.2875
12079TIP3    H257729   4.051   6.214  10.735 -0.8720 -1.0987 -1.3147
12080TIP3   OH257730   5.276   3.058  11.982 -0.1097  0.0484 -0.0327
12080TIP3    H157731   5.301   3.122  12.048 -2.1267  0.8804 -0.0028
12080TIP3    H257732   5.268   3.108  11.901 -0.3637 -0.4351 -0.3123
12081TIP3   OH257733   3.612   5.700  13.191  0.3381 -1.0886 -0.4926
12081TIP3    H157734   3.606   5.749  13.109 -1.2087 -1.5025 -0.6668
12081TIP3    H257735   3.569   5.617  13.171  0.4567 -1.4127  0.5842
12082TIP3   OH257736   3.792   4.271  16.779  0.6936  0.2094 -0.1291
12082TIP3    H157737   3.853   4.326  16.828  0.0715  0.0714  0.8306
12082TIP3    H257738   3.706   4.290  16.817  0.0793  0.5963 -1.6260
12083TIP3   OH257739   2.357   2.148  13.711 -0.1367 -0.8270  0.5249
12083TIP3    H157740   2.319   2.063  13.688  0.7405 -1.6041  1.7828
12083TIP3    H257741   2.444   2.127  13.743  0.3338  0.6362  0.2648
12084TIP3   OH257742   4.669   4.662   3.831  0.0125  0.1271 -0.1109
12084TIP3    H157743   4.696   4.664   3.923 -1.3017 -1.1202  0.3401
12084TIP3    H257744   4.580   4.627   3.833 -0.4056  0.9826 -1.7977
12085TIP3   OH257745   1.455   4.487  16.888  0.1356  0.5627 -0.3104
12085TIP3    H157746   1.480   4.543  16.814  2.4920 -0.3737 -0.3173
12085TIP3    H257747   1.453   4.398  16.851 -2.2547  0.4054  0.0024
12086TIP3   OH257748   2.822   2.249   2.578 -0.5472 -0.3855 -0.3213
12086TIP3    H157749   2.816   2.156   2.557 -0.3134 -0.5273  0.2327
12086TIP3    H257750   2.868   2.252   2.662  0.5089  0.2756 -0.8899
12087TIP3   OH257751   3.101   0.147  15.074  0.6954  0.0003  0.1866
12087TIP3    H157752   3.073   0.160  15.165  0.7315 -1.5257  0.4368
12087TIP3    H257753   3.036   0.195  15.022 -0.6628 -0.9979  0.9173
12088TIP3   OH257754   2.720   1.280  16.739 -0.0062 -0.5753 -0.1770
12088TIP3    H157755   2.802   1.328  16.738 -0.1609 -0.3141 -0.4562
12088TIP3    H257756   2.660   1.333  16.686 -1.0586  0.4330  1.9210
12089TIP3   OH257757   5.033   4.062  12.312  0.2502 -0.5101  0.0413
12089TIP3    H157758   5.103   4.115  12.275  0.0053 -0.5490 -0.4837
12089TIP3    H257759   5.038   3.979  12.265  0.2923 -0.7664  0.4886
12090TIP3   OH257760   5.210   3.224  15.615 -0.7827 -0.7293  0.1268
12090TIP3    H157761   5.251   3.256  15.696 -0.7251 -0.1935 -0.1096
12090TIP3    H257762   5.204   3.129  15.627 -3.2504 -0.4407  1.9294
12091TIP3   OH257763   5.779   5.393  14.748  0.6230 -0.7282 -0.4225
12091TIP3    H157764   5.867   5.361  14.765  0.2300 -2.5527 -1.4644
12091TIP3    H257765   5.729   5.369  14.827  0.5282 -2.0090 -0.8474
12092TIP3   OH257766   3.877   1.734  11.028 -0.4121  0.9292  0.3895
12092TIP3    H157767   3.947   1.795  11.053  0.5270  0.7777 -1.6388
12092TIP3    H257768   3.887   1.724  10.933 -1.5713 -1.1258  0.4243
12093TIP3   OH257769   4.395   1.051  10.479  0.2320 -0.2768 -0.5972
12093TIP3    H157770   4.490   1.041  10.468  0.6128  2.3041 -0.1715
12093TIP3    H257771   4.378   1.020  10.568  1.1009  1.4304  0.1967
12094TIP3   OH257772   1.563   2.953   3.159 -0.4590 -0.0293  0.1301
12094TIP3    H157773   1.531   2.882   3.213 -1.6167 -0.0104 -0.4825
12094TIP3    H257774   1.483   2.995   3.125  0.1981  1.2282  0.0585
12095TIP3   OH257775   5.127   3.718   0.996  0.4000 -0.1692 -0.2901
12095TIP3    H157776   5.036   3.729   0.967  0.9115 -0.0792 -1.9897
12095TIP3    H257777   5.145   3.795   1.049 -0.1833  0.3940 -0.8974
12096TIP3   OH257778   6.220   3.140   1.251  0.0264 -0.2362  0.1540
12096TIP3    H157779   6.189   3.056   1.284 -0.4251 -0.1258  0.0101
12096TIP3    H257780   6.311   3.123   1.226  0.0105 -0.6210  0.3424
12097TIP3   OH257781   6.114   6.662   5.950 -0.6395 -0.3012  0.1472
12097TIP3    H157782   6.052   6.735   5.940 -0.7443 -0.5312 -0.9951
12097TIP3    H257783   6.199   6.705   5.960 -0.9162  0.0098  1.4728
12098TIP3   OH257784   5.840   3.916   4.387  0.1279 -0.3687  0.7080
12098TIP3    H157785   5.797   3.831   4.381 -0.3002 -0.0814 -0.9998
12098TIP3    H257786   5.921   3.899   4.434  0.7182 -2.0271 -0.7735
12099TIP3   OH257787   5.778   6.502  16.310  0.2067  0.3541  0.6950
12099TIP3    H157788   5.760   6.560  16.236  1.2359 -0.8126 -0.5230
12099TIP3    H257789   5.853   6.451  16.282 -1.2344 -2.2539  1.3092
12100TIP3   OH257790   5.329   3.937   4.194  0.5277 -0.7527  0.3139
12100TIP3    H157791   5.273   3.978   4.128 -1.4498 -0.5419  2.0203
12100TIP3    H257792   5.314   3.988   4.274  2.4903 -1.2700  1.0698
12101TIP3   OH257793   4.518   2.599  14.908  0.3600  0.2490 -0.2656
12101TIP3    H157794   4.512   2.643  14.823  0.2518  0.3235 -0.2170
12101TIP3    H257795   4.476   2.514  14.893  0.2643  0.2964 -0.2614
12102TIP3   OH257796   2.571   6.332   2.880 -0.5051  0.6669  0.1424
12102TIP3    H157797   2.524   6.400   2.928 -0.9697  0.8160 -0.5049
12102TIP3    H257798   2.648   6.376   2.843  0.0201  0.4807  0.9922
12103TIP3   OH257799   1.945   5.624  14.551  0.4684 -0.1140  0.4458
12103TIP3    H157800   1.876   5.685  14.523 -0.2749 -0.9180  0.4863
12103TIP3    H257801   1.992   5.603  14.470  0.9837  0.7923  0.4879
12104TIP3   OH257802   1.463   3.590  14.378 -0.4906  0.2421 -0.3070
12104TIP3    H157803   1.412   3.599  14.297 -2.4316 -1.2246  0.6705
12104TIP3    H257804   1.399   3.561  14.443  1.5814 -1.4755  1.0664
12105TIP3   OH257805   3.787   3.456   0.248  0.2990  0.0435 -0.4340
12105TIP3    H157806   3.882   3.466   0.256  0.0842  1.2499  1.3087
12105TIP3    H257807   3.761   3.529   0.191  0.5011 -0.9258 -1.8050
12106TIP3   OH257808   5.705   6.633   1.915 -0.1785 -0.5846  0.6138
12106TIP3    H157809   5.666   6.657   1.999 -0.0189 -2.0034  1.1180
12106TIP3    H257810   5.750   6.712   1.886 -1.5629  0.4121  1.0741
12107TIP3   OH257811   0.523   2.404  14.995  0.4525  0.0047  0.5047
12107TIP3    H157812   0.535   2.364  15.081 -0.6640 -2.2153 -0.2882
12107TIP3    H257813   0.559   2.339  14.934  0.9327  1.3937 -0.7331
12108TIP3   OH257814   2.762   6.089   5.811 -0.0518  0.0041  0.8858
12108TIP3    H157815   2.765   6.091   5.906  0.6774  1.0667  0.8651
12108TIP3    H257816   2.851   6.111   5.784 -0.1784 -0.5544 -0.0490
12109TIP3   OH257817   4.304   6.382  11.266  0.4218  0.6187  0.1522
12109TIP3    H157818   4.371   6.319  11.291 -0.0003  0.4443  0.8953
12109TIP3    H257819   4.231   6.329  11.236  0.3379  0.7788  0.0718
12110TIP3   OH257820   3.024   1.854   1.929  0.2100 -0.3897  0.0685
12110TIP3    H157821   3.107   1.814   1.902  1.0526  1.3160 -0.0154
12110TIP3    H257822   2.986   1.888   1.848  0.7641  1.1577  0.4109
12111TIP3   OH257823   5.530   4.268  12.967 -0.3372  0.2315 -0.1233
12111TIP3    H157824   5.559   4.176  12.971 -0.0126  0.2658 -1.3500
12111TIP3    H257825   5.604   4.318  13.002 -0.6396  0.0269  0.8611
12112TIP3   OH257826   2.172   0.940  14.518 -0.7304 -0.5879  0.1538
12112TIP3    H157827   2.135   0.995  14.449 -1.9113 -0.1047  1.1129
12112TIP3    H257828   2.232   0.998  14.565  0.1582 -0.9483 -0.5093
12113TIP3   OH257829   0.897   4.681  13.252 -0.7501  0.5490  0.1233
12113TIP3    H157830   0.947   4.757  13.281  0.0560  0.1959 -0.3146
12113TIP3    H257831   0.899   4.685  13.157 -0.4916 -0.1473  0.0945
12114TIP3   OH257832   3.381   1.695  11.702 -0.2613  0.2220  0.2095
12114TIP3    H157833   3.461   1.674  11.751 -0.9546 -0.8359  0.9088
12114TIP3    H257834   3.409   1.694  11.610  0.7192  0.7315  0.4864
12115TIP3   OH257835   2.845   0.676   1.967 -0.2046  0.6849 -0.1667
12115TIP3    H157836   2.787   0.704   2.037 -0.4690 -1.5701  0.5937
12115TIP3    H257837   2.933   0.688   2.002 -0.3370 -1.5310  1.1152
12116TIP3   OH257838   5.180   2.175   2.246 -0.0818 -0.0971  0.1731
12116TIP3    H157839   5.241   2.137   2.183 -2.1580 -1.5366 -1.0724
12116TIP3    H257840   5.190   2.270   2.234  2.5061 -0.2219  0.6950
12117TIP3   OH257841   6.336   2.816  11.166 -0.4012  0.4789 -0.4537
12117TIP3    H157842   6.389   2.740  11.192 -0.2822  0.3423 -1.0912
12117TIP3    H257843   6.311   2.856  11.249  1.3295  0.9971 -0.1384
12118TIP3   OH257844   6.557   1.038  13.648 -0.5753 -0.0424  0.1878
12118TIP3    H157845   6.479   1.077  13.609  0.6280  1.2985 -0.9937
12118TIP3    H257846   6.614   1.020  13.574  0.6522 -0.0553  1.1101
12119TIP3   OH257847   1.554   4.185   2.655  0.3305 -0.1684  0.7450
12119TIP3    H157848   1.522   4.276   2.653  0.9641  0.1431  2.6324
12119TIP3    H257849   1.607   4.177   2.576  0.1420  1.0602  0.4681
12120TIP3   OH257850   2.465   4.033  15.970 -0.4986  0.0672 -0.0748
12120TIP3    H157851   2.432   3.984  16.045 -2.2801 -0.2864 -1.0342
12120TIP3    H257852   2.496   3.966  15.909  0.3630  0.3223  0.0701
12121TIP3   OH257853   0.827   4.187   3.116 -0.4568  0.1333  0.5951
12121TIP3    H157854   0.813   4.166   3.023 -1.3521  1.5137  0.3875
12121TIP3    H257855   0.765   4.257   3.134 -0.0424  0.1257  2.1620
12122TIP3   OH257856   3.939   3.540  11.165 -0.7123 -0.0938 -0.0398
12122TIP3    H157857   3.970   3.495  11.086 -0.0067 -0.1127  0.2438
12122TIP3    H257858   3.882   3.476  11.208 -2.0621  0.3234 -1.1164
12123TIP3   OH257859   4.970   2.648  16.253  0.3460 -0.0171  0.2721
12123TIP3    H157860   4.946   2.569  16.301 -0.5707 -0.5417 -0.9940
12123TIP3    H257861   5.056   2.629  16.217 -1.1755 -1.8637 -2.7893
12124TIP3   OH257862   1.840   6.417   0.625 -0.2890 -0.2040 -0.2959
12124TIP3    H157863   1.820   6.470   0.702  1.2268  1.0944 -0.7494
12124TIP3    H257864   1.935   6.423   0.616 -0.5016  0.4751 -2.8224
12125TIP3   OH257865   5.356   3.425  12.947  0.0411 -0.0898  0.1595
12125TIP3    H157866   5.412   3.405  12.873 -0.5208  2.9530 -1.2467
12125TIP3    H257867   5.397   3.501  12.988 -0.9180 -0.2913  1.5641
12126TIP3   OH257868   6.335   1.502  11.143  0.6573  0.0856 -0.3871
12126TIP3    H157869   6.426   1.503  11.174  1.5345 -1.5623 -2.6296
12126TIP3    H257870   6.343   1.498  11.048 -1.7997  0.3986 -0.6488
12127TIP3   OH257871   4.333   0.913  13.276 -0.4818 -0.5314 -0.0375
12127TIP3    H157872   4.342   0.973  13.202  2.8772  1.6042  1.8507
12127TIP3    H257873   4.278   0.960  13.339  0.4391 -0.3301  0.6256
12128TIP3   OH257874   0.246   1.525  16.180 -0.4031 -0.1531  0.0822
12128TIP3    H157875   0.331   1.567  16.165 -0.7493  0.0209 -1.6055
12128TIP3    H257876   0.241   1.456  16.113 -1.4146 -0.4132  0.4148
12129TIP3   OH257877   0.397   6.019  11.666  0.0298 -0.1189  0.3769
12129TIP3    H157878   0.345   6.005  11.587 -0.4579  2.2402  0.2075
12129TIP3    H257879   0.364   5.953  11.728  0.2646 -1.8643 -1.2462
12130TIP3   OH257880   5.831   1.810  15.088 -0.3655  0.4312  0.1084
12130TIP3    H157881   5.901   1.811  15.023 -0.9870 -0.0566 -0.5744
12130TIP3    H257882   5.876   1.824  15.171  0.6442 -0.6209 -0.2383
12131TIP3   OH257883   2.967   3.102  14.020 -0.2156  0.3651 -0.2007
12131TIP3    H157884   2.881   3.059  14.023 -0.3792  0.6218 -0.9631
12131TIP3    H257885   2.947   3.196  14.027  0.0202  0.4076 -0.0971
12132TIP3   OH257886   2.587   1.190  12.070 -0.4795  0.1775  0.1081
12132TIP3    H157887   2.629   1.159  11.990  0.5717 -0.8936  1.0414
12132TIP3    H257888   2.649   1.251  12.109 -0.9152  0.5707  0.2047
12133TIP3   OH257889   1.101   5.541  12.716  0.1497 -0.5527  0.3375
12133TIP3    H157890   1.090   5.575  12.805 -2.9918 -2.9474  1.0401
12133TIP3    H257891   1.071   5.450  12.721  2.1020 -1.5008 -2.7233
12134TIP3   OH257892   3.864   2.166   3.212  0.1614 -0.3831  0.1205
12134TIP3    H157893   3.903   2.245   3.249 -0.2498  0.0011 -0.2509
12134TIP3    H257894   3.785   2.152   3.263 -0.7173  0.4795 -0.9521
12135TIP3   OH257895   0.248   3.712   5.962 -0.0291 -0.1622  0.2343
12135TIP3    H157896   0.165   3.739   6.001 -0.4968 -1.8745  0.4754
12135TIP3    H257897   0.223   3.672   5.879  0.5065 -1.0433  0.4874
12136TIP3   OH257898   0.524   4.558  14.774  0.4299 -0.4724 -0.1124
12136TIP3    H157899   0.599   4.618  14.782 -0.1901  0.2737  0.2588
12136TIP3    H257900   0.507   4.553  14.680  1.5691 -1.4510 -0.2884
12137TIP3   OH257901   2.503   4.598   1.458  0.4431  0.1691  0.3969
12137TIP3    H157902   2.479   4.506   1.447 -1.5155  0.6410  0.4892
12137TIP3    H257903   2.465   4.643   1.383 -1.0684  1.3025  1.7707
12138TIP3   OH257904   5.092   2.564  11.229  0.2618  0.3326  0.5908
12138TIP3    H157905   5.174   2.610  11.209 -0.0798  0.4149 -0.7667
12138TIP3    H257906   5.106   2.476  11.194 -0.1974  0.3371  0.3836
12139TIP3   OH257907   0.398   1.104  11.321 -0.0855  0.0757 -0.1206
12139TIP3    H157908   0.435   1.190  11.301 -0.1236  0.0412 -0.3384
12139TIP3    H257909   0.304   1.116  11.308 -0.1005  0.0267 -0.0560
12140TIP3   OH257910   2.992   6.153  14.822  0.5914 -0.5601 -0.2594
12140TIP3    H157911   2.898   6.167  14.811  0.9542  0.9487 -2.0567
12140TIP3    H257912   3.031   6.239  14.804  2.3919 -1.5102 -1.1934
12141TIP3   OH257913   1.901   4.006  11.197  0.6318  0.0083 -0.3443
12141TIP3    H157914   1.827   4.036  11.145 -0.8253 -1.9873  0.4677
12141TIP3    H257915   1.907   4.068  11.269 -1.1874 -0.5664  0.3503
12142TIP3   OH257916   6.046   5.731  15.183 -0.6044 -0.2637  0.1860
12142TIP3    H157917   6.122   5.703  15.132 -0.8891 -2.6857  0.9528
12142TIP3    H257918   5.971   5.706  15.131 -0.8823  0.0587  0.4271
12143TIP3   OH257919   6.083   1.252   3.212 -0.0277  0.5516  0.1906
12143TIP3    H157920   6.133   1.229   3.290  2.5861  2.6447 -0.6998
12143TIP3    H257921   6.062   1.345   3.223 -3.1851 -0.0382  0.1245
12144TIP3   OH257922   0.586   2.499  17.243 -0.1001  0.3587  0.1266
12144TIP3    H157923   0.611   2.476  17.153 -0.3400 -0.4027  0.2458
12144TIP3    H257924   0.669   2.501  17.291 -0.1739 -2.1216  0.5107
12145TIP3   OH257925   0.888   1.204   2.883  0.2157 -0.0160  0.6357
12145TIP3    H157926   0.881   1.174   2.793  1.0814  0.0996  0.5247
12145TIP3    H257927   0.840   1.287   2.885 -1.7788 -1.1028  0.8330
12146TIP3   OH257928   0.767   5.222  12.373 -0.7842  0.2076  0.4339
12146TIP3    H157929   0.776   5.127  12.363 -0.1264  0.2487  0.6062
12146TIP3    H257930   0.672   5.237  12.367 -1.0567 -0.6491  1.9255
12147TIP3   OH257931   6.657   1.968   1.658 -0.0107 -0.2360 -0.4862
12147TIP3    H157932   6.576   1.986   1.707 -0.0660 -2.4652  0.3865
12147TIP3    H257933   6.633   1.897   1.599  1.0304 -0.1246 -1.0493
12148TIP3   OH257934   3.799   2.722   1.228  0.2486 -0.3263 -0.6379
12148TIP3    H157935   3.727   2.728   1.165  0.8643 -0.9322 -1.4160
12148TIP3    H257936   3.805   2.809   1.267 -0.1113  0.0625 -1.4469
12149TIP3   OH257937   6.625   0.053   4.435  0.1340  0.6472 -0.0974
12149TIP3    H157938   6.708   0.014   4.409  0.2149  0.6358  0.1679
12149TIP3    H257939   6.593   0.097   4.356 -1.0100 -1.7189 -1.0198
12150TIP3   OH257940   6.672   4.527   6.857 -0.0681 -0.4722  0.1617
12150TIP3    H157941   6.667   4.623   6.852 -0.4853 -0.5144 -0.2992
12150TIP3    H257942   6.765   4.508   6.861 -0.0025 -0.0036  1.1815
12151TIP3   OH257943   3.766   2.147   0.400  0.1285 -0.7102  0.4044
12151TIP3    H157944   3.748   2.232   0.439 -1.7095 -0.9200  0.1191
12151TIP3    H257945   3.720   2.085   0.457  0.7498 -1.4357  0.1330
12152TIP3   OH257946   5.714   5.720   2.030  0.5571  0.0407  0.2018
12152TIP3    H157947   5.691   5.758   1.945  1.3355 -0.3118 -0.1746
12152TIP3    H257948   5.810   5.720   2.031  0.5614  0.1778  1.1454
12153TIP3   OH257949   3.329   3.668  16.591 -0.1695 -0.1764 -0.2004
12153TIP3    H157950   3.353   3.581  16.557 -2.3585 -1.9185  2.3181
12153TIP3    H257951   3.413   3.707  16.616  0.9022 -1.4534 -1.5256
12154TIP3   OH257952   3.819   2.312  16.219 -0.4329  0.0926 -0.1660
12154TIP3    H157953   3.837   2.398  16.181 -2.3659  0.1344 -1.1418
12154TIP3    H257954   3.897   2.261  16.203 -0.5076  0.6534 -2.6860
12155TIP3   OH257955   1.631   5.171   1.204 -0.5368  0.0887  0.0638
12155TIP3    H157956   1.586   5.255   1.204 -1.6184 -0.4586 -0.0990
12155TIP3    H257957   1.560   5.107   1.213  0.0987 -0.8663 -1.3326
12156TIP3   OH257958   0.909   2.154  11.918 -0.0448 -0.4312 -0.2906
12156TIP3    H157959   0.964   2.232  11.922 -1.6193  0.7276 -0.6047
12156TIP3    H257960   0.941   2.099  11.990  0.2976  1.0304  0.7149
12157TIP3   OH257961   0.316   4.960   5.044 -0.4871  0.0032  0.4680
12157TIP3    H157962   0.395   4.936   5.093 -0.2840  0.6810  0.4780
12157TIP3    H257963   0.349   5.003   4.965 -0.8465  2.8786  1.7763
12158TIP3   OH257964   1.410   4.514  11.146 -0.0028  0.0419 -0.1064
12158TIP3    H157965   1.443   4.543  11.061  0.0696 -0.4815 -0.2561
12158TIP3    H257966   1.342   4.579  11.169  1.4717  1.4610  0.4651
12159TIP3   OH257967   4.375   4.062   3.928  0.4873 -0.1883 -0.9627
12159TIP3    H157968   4.431   4.023   3.861 -0.0030  0.1528 -1.5758
12159TIP3    H257969   4.288   4.067   3.888  0.4776  1.2986 -0.8097
12160TIP3   OH257970   2.200   0.143  16.103 -0.3748 -0.1720  0.2553
12160TIP3    H157971   2.251   0.078  16.151  0.5551 -0.8026 -1.4843
12160TIP3    H257972   2.231   0.135  16.012 -1.1908  1.7849 -0.2415
12161TIP3   OH257973   3.057   0.868   5.094 -0.3007  0.0407  0.0973
12161TIP3    H157974   2.979   0.902   5.138 -1.3086 -1.5261 -0.3888
12161TIP3    H257975   3.082   0.937   5.033  0.4350  1.7675  2.2112
12162TIP3   OH257976   5.615   1.033   4.740  0.4142  0.4999 -0.2491
12162TIP3    H157977   5.642   0.957   4.688  0.9159  0.9980 -0.7303
12162TIP3    H257978   5.696   1.064   4.781  0.0509  0.2065  0.7241
12163TIP3   OH257979   3.728   1.742  15.104 -0.1331  0.6670  0.0498
12163TIP3    H157980   3.710   1.829  15.138  0.4452  0.5555  0.6511
12163TIP3    H257981   3.814   1.719  15.140  0.5187  0.5493 -1.4714
12164TIP3   OH257982   3.242   4.461  11.685 -0.3360  0.1843  0.3969
12164TIP3    H157983   3.162   4.473  11.634  0.6064  1.2892 -0.8664
12164TIP3    H257984   3.297   4.536  11.663  0.8923 -0.3148  1.5786
12165TIP3   OH257985   2.992   6.719   1.860 -0.0178  0.5558 -0.0829
12165TIP3    H157986   2.987   6.638   1.910 -0.1182  0.9492  0.5511
12165TIP3    H257987   3.081   6.750   1.874 -0.9749  2.4491  2.7302
12166TIP3   OH257988   5.777   4.215  12.810  0.4473 -0.2699 -0.3594
12166TIP3    H157989   5.693   4.233  12.767 -1.4196 -1.7141  2.3387
12166TIP3    H257990   5.835   4.286  12.781 -1.7437  0.9245 -2.1561
12167TIP3   OH257991   2.373   1.346   5.377 -0.1745  0.3028  0.0810
12167TIP3    H157992   2.300   1.408   5.372 -1.0326 -0.7523 -1.0258
12167TIP3    H257993   2.411   1.362   5.464 -0.9486  1.7124  0.2033
12168TIP3   OH257994   2.535   1.007  13.096 -0.2205  0.2293 -0.0100
12168TIP3    H157995   2.546   1.082  13.155 -1.2668  1.7046 -1.5633
12168TIP3    H257996   2.551   0.930  13.150 -0.4829  1.5248  2.0123
12169TIP3   OH257997   2.554   2.293   3.679 -0.3978 -0.6667 -0.3046
12169TIP3    H157998   2.609   2.254   3.747 -0.0395 -0.4090 -0.4478
12169TIP3    H257999   2.466   2.291   3.716  0.0473  1.3094  1.0223
12170TIP3   OH258000   1.056   4.644   3.293  0.6490  0.0253 -0.4568
12170TIP3    H158001   0.973   4.650   3.245 -1.0320  3.2078  2.3958
12170TIP3    H258002   1.040   4.579   3.360  0.4679  0.5763  0.0397
12171TIP3   OH258003   2.165   5.319   3.431  0.1017  0.0001 -0.3145
12171TIP3    H158004   2.150   5.236   3.475  0.4812 -0.4709 -1.0601
12171TIP3    H258005   2.189   5.379   3.502  0.7569 -0.7551  0.1203
12172TIP3   OH258006   6.316   2.444   1.138 -0.0034  0.0141 -0.1491
12172TIP3    H158007   6.231   2.406   1.161  0.5558 -0.7294  0.7811
12172TIP3    H258008   6.296   2.533   1.111 -0.7775  0.9569  3.1076
12173TIP3   OH258009   3.137   6.735   6.133  0.5454 -0.0689  0.7099
12173TIP3    H158010   3.169   6.767   6.048  0.3920  0.2124  0.7566
12173TIP3    H258011   3.198   6.773   6.197  0.5104 -0.0749  0.7463
12174TIP3   OH258012   0.739   3.768   0.311  0.6328 -0.1045  0.0788
12174TIP3    H158013   0.668   3.774   0.247  0.6626 -2.1148 -0.2095
12174TIP3    H258014   0.726   3.844   0.369 -0.0358  1.1515 -1.6335
12175TIP3   OH258015   0.053   0.404  12.234 -0.1652 -0.7466 -0.7337
12175TIP3    H158016  -0.020   0.447  12.189  0.4307 -0.5356 -1.5137
12175TIP3    H258017   0.024   0.313  12.245 -2.0096  0.0448  2.1271
12176TIP3   OH258018   2.879   1.356   3.967  0.6126  0.3074  0.1552
12176TIP3    H158019   2.931   1.300   4.024  1.7202  1.3119  0.1745
12176TIP3    H258020   2.820   1.403   4.025  0.0735 -0.3992  0.1967
12177TIP3   OH258021   4.219   5.451  13.301 -0.0242 -0.1666 -0.1874
12177TIP3    H158022   4.283   5.409  13.358 -1.2277 -2.8943 -0.6904
12177TIP3    H258023   4.182   5.521  13.354  1.4244 -0.2891  1.0551
12178TIP3   OH258024   5.702   1.650  14.489 -0.0881  0.1472 -0.1867
12178TIP3    H158025   5.786   1.608  14.504  0.8359  1.8165 -0.5011
12178TIP3    H258026   5.640   1.601  14.544  1.1899 -0.6976  0.5382
12179TIP3   OH258027   4.722   6.027  11.267 -0.1401 -0.0382  0.4741
12179TIP3    H158028   4.700   6.039  11.175 -0.9680  0.6871  0.7471
12179TIP3    H258029   4.816   6.012  11.268 -0.2458 -0.8971 -0.5526
12180TIP3   OH258030   0.363   2.436   0.114 -0.3285 -0.1049  0.2528
12180TIP3    H158031   0.319   2.519   0.094  1.4568  0.7667 -0.2628
12180TIP3    H258032   0.449   2.445   0.073  0.2709 -1.8099  1.0876
12181TIP3   OH258033   1.513   0.025   3.033  0.1445  0.3709  0.1503
12181TIP3    H158034   1.531  -0.064   3.064 -1.2329  0.6132  1.7152
12181TIP3    H258035   1.435   0.016   2.978  0.7721  0.4415 -0.7896
12182TIP3   OH258036   2.699   4.438  15.597 -0.4843  0.3543 -0.1023
12182TIP3    H158037   2.720   4.401  15.682 -1.1877 -0.3391 -0.2241
12182TIP3    H258038   2.664   4.525  15.616  0.3147  0.6170  0.2376
12183TIP3   OH258039   4.050   5.480  14.777  0.2024  0.4219 -0.9954
12183TIP3    H158040   4.024   5.388  14.783  1.1792  0.1378 -0.9641
12183TIP3    H258041   4.000   5.514  14.702  0.5180 -0.3850 -1.5884
12184TIP3   OH258042   4.551   1.640  13.218  0.3147  0.0256  0.3252
12184TIP3    H158043   4.590   1.566  13.171  1.0524  0.2278  0.6028
12184TIP3    H258044   4.531   1.605  13.305  0.4708  0.0907  0.3880
12185TIP3   OH258045   2.470   1.520  15.809  0.2628  0.9296 -0.5698
12185TIP3    H158046   2.498   1.448  15.867 -2.3770  0.5081  0.3475
12185TIP3    H258047   2.533   1.590  15.826  0.4374  0.3093  1.7925
12186TIP3   OH258048   2.248   2.118   2.804  0.3177  0.1438 -0.5974
12186TIP3    H158049   2.281   2.122   2.893 -0.8251  2.5063 -0.1960
12186TIP3    H258050   2.154   2.103   2.813  0.2387  0.0847 -1.4121
12187TIP3   OH258051   3.980   4.414  11.701 -0.2589 -0.1159  0.2868
12187TIP3    H158052   4.014   4.347  11.759 -1.9744  0.3258  1.8689
12187TIP3    H258053   3.904   4.375  11.659 -1.0770  0.6955  0.9717
12188TIP3   OH258054   6.421   0.177  15.145 -0.3653 -0.1540 -0.1037
12188TIP3    H158055   6.337   0.223  15.149  0.4394  1.3360  0.4036
12188TIP3    H258056   6.415   0.109  15.212 -1.1370 -0.0087 -0.0201
12189TIP3   OH258057   5.574   0.811   0.694  0.7869 -0.1046  0.0562
12189TIP3    H158058   5.640   0.823   0.625  2.0010  1.1234  1.3510
12189TIP3    H258059   5.625   0.806   0.775 -0.7092  1.6880  1.1994
12190TIP3   OH258060   1.771   4.936   4.863  0.2297 -0.4849 -0.1383
12190TIP3    H158061   1.725   4.883   4.928 -0.6875  0.6285  0.1432
12190TIP3    H258062   1.827   4.994   4.915 -1.5403  1.3954 -0.1853
12191TIP3   OH258063   1.203   5.563  11.494  0.0977  0.5704  0.1230
12191TIP3    H158064   1.219   5.470  11.482  0.2654  0.6608 -0.3820
12191TIP3    H258065   1.229   5.603  11.411 -1.7957  0.8439 -0.3972
12192TIP3   OH258066   2.532   1.582   2.797  0.2954 -0.3559  0.3477
12192TIP3    H158067   2.446   1.563   2.760 -0.0019 -0.8881  1.2746
12192TIP3    H258068   2.515   1.598   2.890  1.3577 -1.8215  0.8242
12193TIP3   OH258069   0.325   2.181   2.006  0.0559  0.0285  0.6702
12193TIP3    H158070   0.367   2.182   1.920  0.3097 -0.4472  0.7858
12193TIP3    H258071   0.398   2.173   2.068 -0.1721 -0.3485  0.8934
12194TIP3   OH258072   1.696   2.825   0.795  0.2027  0.5490 -0.1783
12194TIP3    H158073   1.665   2.735   0.791  0.0790  0.6124 -0.8423
12194TIP3    H258074   1.617   2.877   0.809  0.6138  0.3319  4.5922
12195TIP3   OH258075   2.341   1.473  17.164 -0.1210 -0.1181  0.8480
12195TIP3    H158076   2.376   1.519  17.240 -0.3082  1.3814  0.0598
12195TIP3    H258077   2.418   1.432  17.124 -0.0390 -1.0350  1.8850
12196TIP3   OH258078   2.584   1.881   1.047 -0.1464  0.3067 -0.5729
12196TIP3    H158079   2.615   1.793   1.026 -3.8576 -1.6190  1.0032
12196TIP3    H258080   2.644   1.912   1.115  0.0113 -1.9901  0.4340
12197TIP3   OH258081   0.373   3.427   1.439 -0.2833 -0.2306 -0.7488
12197TIP3    H158082   0.307   3.489   1.470 -0.5657 -0.1012 -1.5641
12197TIP3    H258083   0.333   3.341   1.452 -0.0699 -0.2200 -0.0176
12198TIP3   OH258084   4.429   0.382  12.263  0.4278  0.3865  0.2344
12198TIP3    H158085   4.410   0.353  12.174  0.2119  2.7573 -0.5556
12198TIP3    H258086   4.386   0.316  12.319 -0.5593 -0.4311 -1.4045
12199TIP3   OH258087   2.906   6.269   5.019  0.3057 -0.4915  0.0005
12199TIP3    H158088   2.911   6.273   4.924 -0.7917 -1.9643 -0.1431
12199TIP3    H258089   2.869   6.353   5.045  0.3389 -0.1931 -0.8905
12200TIP3   OH258090   6.182   2.229  14.037  0.1032 -0.4818  0.0397
12200TIP3    H158091   6.215   2.292  14.102 -0.1930  1.3297 -1.4627
12200TIP3    H258092   6.225   2.147  14.059  0.6309  0.2602  2.0217
12201TIP3   OH258093   0.861   0.546   2.925 -0.3813  0.3388  0.0854
12201TIP3    H158094   0.782   0.500   2.953  0.0951 -0.4318  0.1774
12201TIP3    H258095   0.916   0.548   3.003  0.4708 -0.7926 -0.4564
12202TIP3   OH258096   2.917   3.112  11.549 -0.2479 -0.4049 -0.2221
12202TIP3    H158097   2.912   3.160  11.632 -2.4484 -0.5387 -0.2210
12202TIP3    H258098   2.856   3.039  11.560 -0.3489 -0.5910 -1.8436
12203TIP3   OH258099   6.059   1.950  15.260  0.3262  0.3155  0.4386
12203TIP3    H158100   6.063   2.034  15.215 -0.8269 -0.5306 -1.3484
12203TIP3    H258101   6.150   1.920  15.262  0.3385 -0.0700 -2.3534
12204TIP3   OH258102   1.773   0.422  16.041  0.1102  0.1480 -0.2035
12204TIP3    H158103   1.705   0.357  16.022 -1.3632  1.8212 -0.9163
12204TIP3    H258104   1.738   0.504  16.006  2.2775  1.1813 -0.0930
12205TIP3   OH258105   2.119   3.767  10.915 -0.4884  0.0214 -0.0120
12205TIP3    H158106   2.039   3.720  10.890 -0.9861 -0.4143  2.1470
12205TIP3    H258107   2.114   3.850  10.869 -1.0124 -0.9128 -1.7225
12206TIP3   OH258108   1.685   5.945   1.911  1.0350  0.3185  0.1561
12206TIP3    H158109   1.672   5.862   1.957 -0.2537  1.5031  2.0900
12206TIP3    H258110   1.641   5.934   1.827  0.6766 -0.8654  0.4886
12207TIP3   OH258111   4.113   4.036  12.459 -0.1110  0.1069 -0.3136
12207TIP3    H158112   4.025   4.072  12.468 -0.3086 -0.3740 -0.2926
12207TIP3    H258113   4.103   3.943  12.479 -0.1159 -0.5408 -2.9804
12208TIP3   OH258114   0.935   1.926   2.715  0.4230 -0.0763 -0.7693
12208TIP3    H158115   0.994   1.919   2.640  1.2424 -0.1424 -0.1348
12208TIP3    H258116   0.936   2.019   2.737  2.0522 -0.3591  0.5878
12209TIP3   OH258117   2.860   6.213  15.746 -0.4293  0.2350 -0.1382
12209TIP3    H158118   2.920   6.210  15.822  0.9969  4.2371 -0.8696
12209TIP3    H258119   2.918   6.208  15.670 -1.3988  0.6612 -0.9197
12210TIP3   OH258120   2.671   2.328  12.284 -0.1917  0.3658  0.2228
12210TIP3    H158121   2.720   2.367  12.357  2.3325 -0.6408 -0.8540
12210TIP3    H258122   2.589   2.299  12.325 -1.1632  4.2784  1.6066
12211TIP3   OH258123   2.131   1.344   0.046 -0.0946 -0.4528 -0.3872
12211TIP3    H158124   2.219   1.313   0.066  0.6171  1.4839 -0.3042
12211TIP3    H258125   2.112   1.410   0.113 -0.6813  0.7489 -1.6680
12212TIP3   OH258126   6.589   0.206   0.492  0.5985 -0.2795 -0.3042
12212TIP3    H158127   6.627   0.293   0.477 -1.6633  0.7184 -0.7071
12212TIP3    H258128   6.622   0.153   0.419 -1.2250  1.4487 -2.5752
12213TIP3   OH258129   3.866   6.661   4.341  0.4995  0.4456  0.0109
12213TIP3    H158130   3.893   6.671   4.432 -0.8726  0.4921  0.4430
12213TIP3    H258131   3.916   6.727   4.293 -0.3310  1.9103  1.0809
12214TIP3   OH258132   5.412   3.210   3.630 -0.2018 -0.0671  0.7107
12214TIP3    H158133   5.448   3.144   3.690 -1.0876 -0.3508  0.9521
12214TIP3    H258134   5.488   3.247   3.587  0.4019 -0.4197  1.4394
12215TIP3   OH258135   1.200   3.807   4.177  0.0893  0.0656  0.3306
12215TIP3    H158136   1.268   3.800   4.110 -0.8751  0.2357 -0.6860
12215TIP3    H258137   1.221   3.887   4.224  1.1289 -0.3739  0.6571
12216TIP3   OH258138   1.502   4.703  13.440  0.4314 -0.1958  0.6231
12216TIP3    H158139   1.478   4.619  13.479 -0.6384 -0.0604  0.3129
12216TIP3    H258140   1.426   4.759  13.456  0.9898  0.6118  0.5218
12217TIP3   OH258141   1.564   5.147   6.071  0.1922  0.4592  0.1137
12217TIP3    H158142   1.541   5.223   6.124  2.5608  0.0575  1.8365
12217TIP3    H258143   1.539   5.072   6.125 -0.2657 -0.0176 -0.7297
12218TIP3   OH258144   5.529   0.718  13.070 -0.5399  0.4643 -0.4758
12218TIP3    H158145   5.587   0.688  13.000 -0.2164  1.7095 -0.7822
12218TIP3    H258146   5.447   0.737  13.025 -0.2927  1.3867 -0.5700
12219TIP3   OH258147   0.933   3.074   4.399 -0.1750  0.2267 -0.2270
12219TIP3    H158148   0.904   3.013   4.331 -2.0096  0.9361 -0.1331
12219TIP3    H258149   0.946   3.157   4.353  1.0771  0.1179 -0.1233
12220TIP3   OH258150   1.283   5.236   2.595 -0.3466 -0.0598 -0.5022
12220TIP3    H158151   1.248   5.300   2.657  0.2549 -0.5502  0.3706
12220TIP3    H258152   1.211   5.175   2.581 -0.6691  0.3688 -0.7316
12221TIP3   OH258153   1.468   1.998  14.446 -0.2026  0.2768 -0.1862
12221TIP3    H158154   1.523   2.062  14.401 -0.4818  1.7428  1.4860
12221TIP3    H258155   1.421   2.048  14.512 -3.0108 -1.0733 -1.0263
12222TIP3   OH258156   5.838   2.115  15.325 -0.5575  0.3167  0.2107
12222TIP3    H158157   5.755   2.077  15.295 -0.4654  1.6242 -1.8645
12222TIP3    H258158   5.901   2.043  15.316 -1.2135 -0.3446  0.6870
12223TIP3   OH258159   4.077   1.134   4.691  0.3954 -0.2590  0.2809
12223TIP3    H158160   4.115   1.186   4.762 -1.9823 -1.7148  2.8309
12223TIP3    H258161   4.123   1.050   4.697  0.1767 -0.3892  0.1125
12224TIP3   OH258162   6.032   3.211   5.866  0.0610 -0.0282 -0.1739
12224TIP3    H158163   6.083   3.288   5.889  0.0232  1.0062 -3.1236
12224TIP3    H258164   5.950   3.221   5.914 -0.6521  2.7503 -1.7639
12225TIP3   OH258165   6.506   5.074   5.129 -0.6113 -0.5498  0.0481
12225TIP3    H158166   6.435   5.132   5.157 -0.2122  1.1207 -2.1234
12225TIP3    H258167   6.572   5.082   5.198 -1.1609  0.4844  0.4770
12226TIP3   OH258168   3.959   3.374   2.842  0.2591  0.3046  0.4660
12226TIP3    H158169   3.973   3.367   2.936  1.3959  3.9521  0.6992
12226TIP3    H258170   3.900   3.448   2.831  0.4539  0.2061 -1.7287
12227TIP3   OH258171   3.058   5.084  12.914 -0.1827  0.2784 -0.4281
12227TIP3    H158172   3.096   5.157  12.866 -1.2186  0.7551 -0.5386
12227TIP3    H258173   3.016   5.124  12.990  0.1714 -0.3184  0.1014
12228TIP3   OH258174   3.853   3.856   5.746  0.1125  0.5394 -0.4936
12228TIP3    H158175   3.948   3.855   5.764  0.4709  1.0221 -2.2003
12228TIP3    H258176   3.813   3.856   5.833  1.6829  0.7749  0.2789
12229TIP3   OH258177   2.664   5.411   2.272 -0.4682 -0.2391 -0.0709
12229TIP3    H158178   2.685   5.503   2.288 -2.9741  0.7151 -1.7393
12229TIP3    H258179   2.741   5.376   2.226 -0.0746  1.4119 -0.7261
12230TIP3   OH258180   3.487   4.766   3.001  0.1042 -0.2432 -0.4530
12230TIP3    H158181   3.404   4.732   3.037  0.2632  0.2305  0.4115
12230TIP3    H258182   3.461   4.810   2.920 -0.4163 -0.5566 -0.4650
12231TIP3   OH258183   6.612   6.104  13.724 -0.3982  0.3338  0.0813
12231TIP3    H158184   6.657   6.099  13.809 -0.5220 -0.8964  0.1002
12231TIP3    H258185   6.639   6.188  13.688  0.8568  0.2263  0.6864
12232TIP3   OH258186   0.380   3.885  16.744 -0.2470  0.0853  0.0360
12232TIP3    H158187   0.369   3.825  16.817 -0.0086  0.7582  0.6372
12232TIP3    H258188   0.313   3.860  16.681  0.4577 -1.4242 -0.1446
12233TIP3   OH258189   0.483   0.370  12.161 -0.6726  0.2599 -0.0365
12233TIP3    H158190   0.511   0.460  12.180  1.0983 -0.0662 -0.8831
12233TIP3    H258191   0.540   0.343  12.088 -0.0274 -2.0969  1.2612
12234TIP3   OH258192   4.020   0.969  17.205 -0.3159  0.3090 -0.1674
12234TIP3    H158193   4.034   0.889  17.154 -0.9073  0.9487 -1.3858
12234TIP3    H258194   3.930   0.961  17.238 -0.6342  0.7581 -0.8825
12235TIP3   OH258195   4.833   0.497   5.459 -0.0479 -0.4989  0.0245
12235TIP3    H158196   4.906   0.456   5.504 -1.1437 -1.1413  1.2998
12235TIP3    H258197   4.820   0.444   5.381  0.5955 -0.6135 -0.0075
12236TIP3   OH258198   1.467   4.608   3.691  0.1428  0.3223  1.0007
12236TIP3    H158199   1.434   4.530   3.735 -0.1520 -0.2531 -0.1952
12236TIP3    H258200   1.560   4.589   3.674 -0.1850 -0.2515 -0.2615
12237TIP3   OH258201   3.408   5.222   2.773 -0.0773  0.1974 -0.5832
12237TIP3    H158202   3.455   5.158   2.718  0.8836  0.2128  0.1871
12237TIP3    H258203   3.394   5.297   2.715 -0.3578 -0.3348 -1.2164
12238TIP3   OH258204   4.570   2.585   1.045  0.6900  0.1139 -0.4387
12238TIP3    H158205   4.581   2.642   0.969 -1.8678  1.5210  0.1111
12238TIP3    H258206   4.646   2.604   1.101  1.7862  0.2097 -1.9172
12239TIP3   OH258207   2.748   1.462   0.082  0.0275  0.9268 -0.1625
12239TIP3    H158208   2.832   1.494   0.115  0.7263  2.2069 -2.8695
12239TIP3    H258209   2.752   1.367   0.095  1.7494  0.9938  0.1002
12240TIP3   OH258210   5.672   5.620   5.654  0.0495  0.3372  0.7523
12240TIP3    H158211   5.661   5.689   5.589  0.5344 -1.3451 -1.2228
12240TIP3    H258212   5.733   5.656   5.718 -1.1299  2.3703  0.8012
12241TIP3   OH258213   0.718   6.021  14.526  0.2960  0.3955  0.4357
12241TIP3    H158214   0.766   5.994  14.447 -0.3905 -0.2953  0.2480
12241TIP3    H258215   0.782   6.012  14.596  1.3301  2.2843 -0.1907
12242TIP3   OH258216   2.960   0.529  14.122  0.1589  0.0543 -0.2429
12242TIP3    H158217   2.979   0.513  14.030  0.6711 -0.4965 -0.0522
12242TIP3    H258218   3.030   0.587  14.151 -0.2885  0.6346 -0.3238
12243TIP3   OH258219   1.150   0.172  16.892  0.1098  0.8049  0.3198
12243TIP3    H158220   1.108   0.208  16.970 -0.9481 -0.4272  0.3522
12243TIP3    H258221   1.243   0.169  16.914 -0.1662  0.5241  1.5337
12244TIP3   OH258222   1.787   6.623  16.470  0.3955 -0.2283  0.7220
12244TIP3    H158223   1.844   6.623  16.393 -1.0619  1.3720 -0.4160
12244TIP3    H258224   1.798   6.536  16.508  1.0235 -1.1145 -1.3870
12245TIP3   OH258225   2.582   4.964  12.216 -0.2239  0.3621  0.4432
12245TIP3    H158226   2.541   4.943  12.132  2.4267  0.1907 -0.9267
12245TIP3    H258227   2.671   4.991  12.193  0.6790  0.1008  3.2434
12246TIP3   OH258228   0.124   2.146   3.615 -0.3949 -0.2864  0.1904
12246TIP3    H158229   0.191   2.092   3.573 -0.4913 -0.5805  0.4167
12246TIP3    H258230   0.173   2.219   3.653 -0.3866  0.4590 -1.1715
12247TIP3   OH258231   1.422   4.139   1.591  0.2178 -0.4334  0.7487
12247TIP3    H158232   1.463   4.178   1.669  1.0977 -0.3860  0.2673
12247TIP3    H258233   1.328   4.153   1.605  0.1938 -2.1504  2.7436
12248TIP3   OH258234   0.710   1.248  15.144  0.0315  0.1319 -0.7188
12248TIP3    H158235   0.743   1.337  15.127  2.2215 -0.6434 -0.8961
12248TIP3    H258236   0.660   1.226  15.066  0.9190  0.5915 -1.4391
12249TIP3   OH258237   5.857   1.150  11.671  0.0325 -0.1245 -0.1441
12249TIP3    H158238   5.817   1.237  11.677 -0.6829 -0.5197  1.6669
12249TIP3    H258239   5.801   1.102  11.610  0.0833  0.4948 -0.6883
12250TIP3   OH258240   1.030   5.922   5.441  0.0227 -0.4933 -0.3935
12250TIP3    H158241   1.033   5.960   5.529 -0.1754  0.9648 -0.9885
12250TIP3    H258242   1.041   5.828   5.455 -1.6432 -0.4842  1.3262
12251TIP3   OH258243   2.011   5.033  11.547 -0.0364  0.4359  0.6452
12251TIP3    H158244   1.952   5.091  11.497  1.4814  0.8821 -0.7194
12251TIP3    H258245   2.025   5.079  11.629 -0.7267  0.8524  0.5424
12252TIP3   OH258246   5.092   2.361   4.725 -0.0245 -0.1332 -0.6704
12252TIP3    H158247   5.166   2.330   4.673 -0.3214 -0.0985 -1.1169
12252TIP3    H258248   5.132   2.419   4.790  0.1714  1.3524 -2.0483
12253TIP3   OH258249   2.571   0.236   0.364 -0.2606  0.7314  0.4782
12253TIP3    H158250   2.575   0.329   0.383  0.2074  0.5953  1.0706
12253TIP3    H258251   2.478   0.218   0.352 -0.4729  1.0445  1.5552
12254TIP3   OH258252   5.104   2.323  15.796 -0.4663 -0.3104  0.2781
12254TIP3    H158253   5.011   2.339  15.808 -0.5223 -1.0494  0.9677
12254TIP3    H258254   5.133   2.287  15.880  0.3472 -0.4920 -0.0686
12255TIP3   OH258255   4.641   0.378  13.833 -0.4827 -0.2473 -0.1382
12255TIP3    H158256   4.652   0.470  13.808 -0.1535 -0.8478 -2.4460
12255TIP3    H258257   4.730   0.343  13.834 -0.6394 -0.6329  0.3137
12256TIP3   OH258258   6.143   5.023  11.490  0.4474  0.6049 -0.1111
12256TIP3    H158259   6.148   5.116  11.513 -2.4653  0.2697  2.7005
12256TIP3    H258260   6.063   5.017  11.437  0.7470 -0.2542 -0.4673
12257TIP3   OH258261   5.633   6.799  10.325 -0.5348  0.8872  0.5383
12257TIP3    H158262   5.572   6.761  10.388  2.1921 -0.2396  2.7608
12257TIP3    H258263   5.629   6.740  10.249 -1.3390  0.1731  1.1193
12258TIP3   OH258264   5.878   4.622  13.315 -0.4072 -0.3748 -0.0855
12258TIP3    H158265   5.831   4.692  13.361 -0.8120 -0.7324  0.0510
12258TIP3    H258266   5.824   4.604  13.238 -0.0809 -0.2469 -0.3491
12259TIP3   OH258267   5.773   5.718  17.231  0.0266 -0.0457 -0.2401
12259TIP3    H158268   5.747   5.810  17.226 -0.5560 -0.1866  0.0885
12259TIP3    H258269   5.739   5.680  17.150  0.8172  0.1555 -0.6762
12260TIP3   OH258270   1.811   2.368  17.212  0.1056 -0.4650  0.0893
12260TIP3    H158271   1.787   2.276  17.212  1.0891 -0.7432 -0.5923
12260TIP3    H258272   1.907   2.368  17.205 -0.0088  0.6105 -2.4569
12261TIP3   OH258273   4.737   2.787   3.268  0.0610 -0.6044 -0.2412
12261TIP3    H158274   4.708   2.877   3.254  2.6853  0.6017  1.3387
12261TIP3    H258275   4.813   2.777   3.211 -0.6105 -2.1177 -0.9259
12262TIP3   OH258276   6.333   6.250   3.221 -0.2201 -0.4158  0.1773
12262TIP3    H158277   6.397   6.286   3.160 -2.0809 -0.7991 -2.1461
12262TIP3    H258278   6.382   6.188   3.274  1.6564  0.5685 -0.3178
12263TIP3   OH258279   5.802   4.931   3.365 -0.3567  0.0360  0.0042
12263TIP3    H158280   5.751   4.985   3.425  0.3444 -0.7800  1.3610
12263TIP3    H258281   5.791   4.974   3.280 -0.6902  1.7019  0.8421
12264TIP3   OH258282   2.349   0.691  13.254  0.4071  0.8320 -0.2875
12264TIP3    H158283   2.381   0.633  13.185  0.0716  0.4446 -0.1153
12264TIP3    H258284   2.256   0.702  13.235 -0.4774 -1.8917  1.9326
12265TIP3   OH258285   3.897   5.767  16.650 -0.6785 -0.2898 -0.1989
12265TIP3    H158286   3.904   5.860  16.629  1.7447 -0.1699  0.8029
12265TIP3    H258287   3.823   5.762  16.711 -0.4950  1.0773  0.1766
12266TIP3   OH258288   1.079   2.166   4.722 -0.1781 -0.2997  0.5671
12266TIP3    H158289   0.987   2.193   4.722 -0.2255 -0.4038  2.0308
12266TIP3    H258290   1.124   2.231   4.775  0.5187 -0.5366  0.2905
12267TIP3   OH258291   6.475   4.286   3.213  0.0926 -0.0671  0.0783
12267TIP3    H158292   6.547   4.296   3.275  0.0706  0.2945  0.0502
12267TIP3    H258293   6.453   4.376   3.187  0.8736 -0.2480 -1.3453
12268TIP3   OH258294   6.049   4.005   2.002  0.3470 -0.0280 -0.0882
12268TIP3    H158295   5.965   3.996   1.958  0.4595 -0.2505 -0.2585
12268TIP3    H258296   6.110   4.031   1.933  0.5097 -0.3138 -0.0567
12269TIP3   OH258297   6.208   0.766   5.573  0.3708 -0.0559 -0.3176
12269TIP3    H158298   6.224   0.683   5.530  0.2988 -0.4651  0.4222
12269TIP3    H258299   6.113   0.777   5.570  0.3333 -0.2632  0.0513
12270TIP3   OH258300   1.833   1.319  13.612  0.1950  0.7101 -0.3035
12270TIP3    H158301   1.878   1.389  13.659 -0.6535  0.0181  1.6400
12270TIP3    H258302   1.755   1.361  13.575 -1.5264  0.5030  2.7277
12271TIP3   OH258303   5.047   3.847  14.731 -0.1486  0.2409  0.7747
12271TIP3    H158304   4.981   3.804  14.677  0.1337  0.2294  0.4354
12271TIP3    H258305   5.025   3.821  14.821 -1.7361  1.7460  0.8735
12272TIP3   OH258306   3.141   2.540  14.982  0.0554 -0.0767  0.2386
12272TIP3    H158307   3.222   2.590  14.994 -1.5241  2.2784  2.2943
12272TIP3    H258308   3.103   2.575  14.902 -0.0580  0.5944  0.5767
12273TIP3   OH258309   1.929   0.837   4.745 -0.4239 -0.1446 -0.6533
12273TIP3    H158310   1.873   0.762   4.763 -1.8680  0.3286 -2.7506
12273TIP3    H258311   1.877   0.892   4.687  0.2594  2.9189  1.4112
12274TIP3   OH258312   3.917   6.697   5.066  0.0985 -0.2825 -0.4242
12274TIP3    H158313   3.875   6.629   5.118 -1.0777  0.2133 -0.6819
12274TIP3    H258314   3.979   6.650   5.011 -0.7316 -1.1653 -0.6388
12275TIP3   OH258315   6.825   6.610   0.676 -0.6836 -0.6427 -0.1171
12275TIP3    H158316   6.849   6.702   0.673 -0.5448 -0.6990 -0.8413
12275TIP3    H258317   6.900   6.567   0.717 -1.0263 -0.3503  0.8352
12276TIP3   OH258318   3.598   6.589   6.328  0.0205  0.0936 -0.0035
12276TIP3    H158319   3.509   6.576   6.359  0.2171 -0.6386  0.2906
12276TIP3    H258320   3.595   6.669   6.276 -1.4018 -1.3589 -2.2844
12277TIP3   OH258321   2.827   0.540   3.909  0.4034 -0.0758 -0.1424
12277TIP3    H158322   2.846   0.473   3.843 -4.0625 -0.2698 -1.5804
12277TIP3    H258323   2.755   0.503   3.960  0.5775  2.0258  1.7923
12278TIP3   OH258324   0.353   4.866  11.286 -0.0291  0.3851 -0.3974
12278TIP3    H158325   0.335   4.960  11.282  2.0998  0.9273  0.9723
12278TIP3    H258326   0.267   4.825  11.280 -1.1236  2.4634  0.0895
12279TIP3   OH258327   2.907   0.269  16.801 -0.2347  0.8361 -0.4529
12279TIP3    H158328   2.861   0.333  16.855  1.2974  1.7788 -0.1856
12279TIP3    H258329   2.963   0.321  16.744  2.4120 -0.2166  0.9878
12280TIP3   OH258330   2.297   5.629  12.436  0.0413 -0.0400 -0.4948
12280TIP3    H158331   2.253   5.679  12.505  0.5611 -1.0562  0.6270
12280TIP3    H258332   2.390   5.637  12.456  0.2905  0.6830 -1.8432
12281TIP3   OH258333   5.131   5.863  14.310 -0.3424  0.1766 -0.1687
12281TIP3    H158334   5.048   5.910  14.318 -1.2373 -1.5276  1.4497
12281TIP3    H258335   5.144   5.823  14.395  1.3835 -0.8552 -0.8603
12282TIP3   OH258336   6.795   1.750   3.884  0.5885  0.0372 -0.1862
12282TIP3    H158337   6.727   1.785   3.826 -0.9190 -1.3156  0.6797
12282TIP3    H258338   6.848   1.826   3.909 -0.1312  0.9997 -1.4840
12283TIP3   OH258339   2.352   6.534   5.750 -0.6571  0.0391  0.1850
12283TIP3    H158340   2.359   6.569   5.661  0.5997 -2.1889 -0.6742
12283TIP3    H258341   2.381   6.606   5.807 -1.4976  1.5050 -1.1524
12284TIP3   OH258342   4.648   5.267   1.672 -0.8014 -0.1799  0.3754
12284TIP3    H158343   4.648   5.355   1.635 -1.4304 -0.3354 -0.0029
12284TIP3    H258344   4.622   5.279   1.764 -0.3966  0.0789  0.4573
12285TIP3   OH258345   3.165   3.016  15.515  0.2728  0.1491  0.0233
12285TIP3    H158346   3.254   3.011  15.479  1.0618  0.7326  1.7824
12285TIP3    H258347   3.143   2.926  15.538  1.0618  0.1972  1.0259
12286TIP3   OH258348   4.770   0.527  16.067  0.4620  0.6599  0.2264
12286TIP3    H158349   4.787   0.488  15.981  1.3652 -0.4568  0.8823
12286TIP3    H258350   4.811   0.467  16.129 -1.7927  0.3872  1.5942
12287TIP3   OH258351   0.568   0.357   0.808  0.1224 -0.3548  0.6576
12287TIP3    H158352   0.492   0.299   0.819  0.2837 -0.4846  1.0872
12287TIP3    H258353   0.620   0.345   0.888  0.8183 -0.5994  0.1864
12288TIP3   OH258354   5.760   4.749   6.133  0.6038 -0.1164 -0.1746
12288TIP3    H158355   5.815   4.775   6.208 -1.2249 -1.3431  1.6949
12288TIP3    H258356   5.775   4.818   6.068  2.2235  1.0579  1.3292
12289TIP3   OH258357   2.982   1.495   0.221 -0.4186 -0.5072 -0.0598
12289TIP3    H158358   2.910   1.469   0.278 -2.3488  2.6350 -0.7974
12289TIP3    H258359   3.041   1.544   0.278 -0.7589 -0.0204 -0.1142
12290TIP3   OH258360   0.867   0.299  12.164 -0.0910  0.0507  0.1798
12290TIP3    H158361   0.808   0.372  12.181 -0.1632  0.3218 -1.1427
12290TIP3    H258362   0.822   0.245  12.099  1.5571  0.8776 -1.7511
12291TIP3   OH258363   3.775   6.009   2.070  0.3368  0.2445  0.6444
12291TIP3    H158364   3.852   5.980   2.021 -0.1718 -0.1750  0.0904
12291TIP3    H258365   3.754   5.934   2.126 -2.1649 -1.3423 -2.1852
12292TIP3   OH258366   2.731   2.629   6.266  0.2042 -0.0779  0.1854
12292TIP3    H158367   2.754   2.654   6.176  0.9044  1.1573  0.6838
12292TIP3    H258368   2.808   2.653   6.318  0.4942 -2.3325  0.8964
12293TIP3   OH258369   0.308   2.285  14.546 -0.9318 -0.1602 -0.2337
12293TIP3    H158370   0.354   2.368  14.553 -1.9721  0.2821  1.8447
12293TIP3    H258371   0.345   2.244  14.467  0.1329  1.9050 -0.8669
12294TIP3   OH258372   6.360   1.935  15.157 -0.1280  0.3744 -0.2642
12294TIP3    H158373   6.412   1.854  15.153 -0.5435  0.0925 -0.0465
12294TIP3    H258374   6.318   1.941  15.071  0.6192  0.8502 -0.6093
12295TIP3   OH258375   5.388   6.494   2.937  0.2128  0.2662  0.4168
12295TIP3    H158376   5.446   6.474   2.864  1.1393  2.8537  0.3588
12295TIP3    H258377   5.301   6.502   2.898  0.5861  0.9380 -0.2962
12296TIP3   OH258378   0.084   5.309  10.694  0.1234  0.1563 -0.0955
12296TIP3    H158379   0.165   5.275  10.730  0.9525  1.6590 -0.4625
12296TIP3    H258380   0.110   5.352  10.612 -1.4915 -1.9335 -1.8159
12297TIP3   OH258381   1.586   1.578   2.821  0.2361  0.5982 -0.2423
12297TIP3    H158382   1.498   1.545   2.798  0.7358 -0.7154 -0.3846
12297TIP3    H258383   1.641   1.554   2.746  1.0116  0.0631  0.4809
12298TIP3   OH258384   1.702   0.383   1.957  0.1920  0.0544  0.1143
12298TIP3    H158385   1.665   0.345   2.037 -3.4086 -0.9592 -1.7890
12298TIP3    H258386   1.719   0.308   1.901  0.3115  0.8641 -0.9563
12299TIP3   OH258387   4.047   3.667   6.403  0.6325  0.3284 -0.0962
12299TIP3    H158388   4.008   3.745   6.364  0.6252  0.6407  0.5364
12299TIP3    H258389   3.975   3.603   6.406  0.6678  0.2507 -0.7157
12300TIP3   OH258390   2.628   5.372  13.561  0.5571  0.1080  0.9821
12300TIP3    H158391   2.654   5.287  13.527  0.3017  0.1383  0.7052
12300TIP3    H258392   2.569   5.353  13.634  1.3464  0.0394  1.6082
12301TIP3   OH258393   2.631   0.178   1.291 -0.4111  0.4900  0.0676
12301TIP3    H158394   2.694   0.106   1.289 -0.4860  0.3490  1.6442
12301TIP3    H258395   2.558   0.148   1.238  1.3118  1.1675 -2.9385
12302TIP3   OH258396   2.785   0.172   0.535 -0.3787  0.4499 -0.6075
12302TIP3    H158397   2.812   0.248   0.587  0.0834  0.8136 -1.3572
12302TIP3    H258398   2.698   0.195   0.503 -1.3580 -0.4339  1.2474
12303TIP3   OH258399   6.489   2.566  15.963  0.2656 -0.2499  0.3018
12303TIP3    H158400   6.553   2.584  16.031  0.1760  1.3018  0.0316
12303TIP3    H258401   6.422   2.633  15.975  2.2683  2.9833 -3.7556
12304TIP3   OH258402   4.186   0.497   0.433  0.1830 -0.1147  0.4418
12304TIP3    H158403   4.225   0.528   0.514  2.2448  0.0158 -0.5384
12304TIP3    H258404   4.259   0.493   0.371 -0.8499 -2.4635 -0.7721
12305TIP3   OH258405   0.655   4.236   1.781 -0.1360 -0.3247  0.1384
12305TIP3    H158406   0.743   4.263   1.756 -0.3320  1.0887  0.9103
12305TIP3    H258407   0.597   4.302   1.742 -1.2549 -3.0443 -3.3649
12306TIP3   OH258408   5.210   1.961  15.838  0.0340 -0.2898  0.1183
12306TIP3    H158409   5.290   1.923  15.802 -0.3477 -0.1204 -0.9345
12306TIP3    H258410   5.239   2.004  15.919  1.0437 -0.0846 -0.3297
12307TIP3   OH258411   3.698   6.269   2.623  0.1999  0.5446 -0.5315
12307TIP3    H158412   3.623   6.310   2.581 -0.1805  0.7347  0.3054
12307TIP3    H258413   3.747   6.229   2.552 -0.7760  0.2994 -1.0804
12308TIP3   OH258414   1.826   5.194   2.337  0.4389  0.1800  0.2153
12308TIP3    H158415   1.750   5.164   2.288 -1.0412  2.4786  0.9703
12308TIP3    H258416   1.822   5.146   2.419  0.6134 -0.6971 -0.2743
12309TIP3   OH258417   4.673   4.328   0.401 -0.2873  0.2989 -0.7140
12309TIP3    H158418   4.768   4.334   0.395 -0.4073  1.4839 -1.9344
12309TIP3    H258419   4.656   4.301   0.491  1.1269  2.0417  0.1264
12310TIP3   OH258420   3.193   0.148   1.247  0.0076 -0.3135  0.4092
12310TIP3    H158421   3.107   0.169   1.284 -0.5372 -1.1395 -0.3524
12310TIP3    H258422   3.205   0.212   1.178  1.5988  2.0758  2.7118
12311TIP3   OH258423   3.595   6.626  12.730 -0.1960 -0.0408 -0.4551
12311TIP3    H158424   3.684   6.660  12.734 -0.1211 -0.0727 -1.6250
12311TIP3    H258425   3.546   6.681  12.791  0.8773 -0.8912  1.2542
12312TIP3   OH258426   3.535   4.224  15.287  0.1270  0.3429  0.6332
12312TIP3    H158427   3.533   4.132  15.313  2.1145 -0.8226 -2.6547
12312TIP3    H258428   3.465   4.266  15.338 -1.3401 -3.1023  1.7025
12313TIP3   OH258429   3.389   4.277   0.162  0.1974  0.2797 -0.1447
12313TIP3    H158430   3.380   4.313   0.074  2.7625  1.2162 -0.1221
12313TIP3    H258431   3.380   4.182   0.150  4.1636 -0.0443 -2.1858
12314TIP3   OH258432   6.381   3.500  13.064  0.3623 -0.1134  0.1207
12314TIP3    H158433   6.318   3.475  12.997  1.0429 -2.5606  0.3167
12314TIP3    H258434   6.464   3.508  13.017  0.1967  1.8513  0.0840
12315TIP3   OH258435   2.505   4.470   2.182 -0.1635 -0.0914 -0.4814
12315TIP3    H158436   2.503   4.554   2.136  0.7923  0.5094  0.5353
12315TIP3    H258437   2.495   4.493   2.275 -0.6822 -1.1695 -0.2522
12316TIP3   OH258438   1.941   6.464  16.064  0.5681 -0.0736 -0.0151
12316TIP3    H158439   2.001   6.410  16.117  0.2255  0.2287  0.6888
12316TIP3    H258440   1.938   6.548  16.110  1.7422  0.8483 -1.5528
12317TIP3   OH258441   5.257   1.940   3.665  0.2696 -0.0952  0.0574
12317TIP3    H158442   5.271   2.035   3.671 -1.8904  0.2282  1.0026
12317TIP3    H258443   5.223   1.916   3.751 -1.5670 -1.2787 -0.9469
12318TIP3   OH258444   2.241   5.749   1.696  0.3264  0.0207  0.2855
12318TIP3    H158445   2.217   5.841   1.683 -0.0905 -0.0723  0.3618
12318TIP3    H258446   2.164   5.711   1.739  0.2210 -0.5215 -0.3616
12319TIP3   OH258447   1.184   2.762  11.217  0.0682 -0.3615  0.1378
12319TIP3    H158448   1.101   2.765  11.169 -0.1999  0.4522  0.6343
12319TIP3    H258449   1.179   2.836  11.277  1.6388  0.3903 -0.6088
12320TIP3   OH258450   5.136   0.222  16.238  0.6728  0.1614 -0.1769
12320TIP3    H158451   5.220   0.213  16.193 -0.1191 -0.1595 -1.6305
12320TIP3    H258452   5.145   0.170  16.317  2.7557  2.2205  1.0722
12321TIP3   OH258453   4.166   0.911  15.041 -0.1007  0.4319 -0.9462
12321TIP3    H158454   4.238   0.923  14.979  0.9804 -1.0503 -0.0565
12321TIP3    H258455   4.093   0.960  15.004  1.6160  2.7652 -1.4212
12322TIP3   OH258456   5.688   5.852   2.279  0.0113  0.0816 -0.0603
12322TIP3    H158457   5.615   5.906   2.248 -1.8977 -2.0802  0.3484
12322TIP3    H258458   5.715   5.802   2.202 -0.2396 -0.4655  0.1978
12323TIP3   OH258459   4.282   4.714   4.967 -0.1099  0.3116  0.1113
12323TIP3    H158460   4.238   4.730   5.050 -0.2019  0.3157  0.0618
12323TIP3    H258461   4.227   4.759   4.902  1.7385  3.2613  0.4253
12324TIP3   OH258462   1.448   0.404  15.568  0.3296 -0.2092  0.4420
12324TIP3    H158463   1.438   0.312  15.592  1.4804 -0.0645  1.5541
12324TIP3    H258464   1.444   0.404  15.472 -0.2129 -1.3328  0.4471
12325TIP3   OH258465   4.704   2.982   2.029  0.1675  0.0950 -0.0856
12325TIP3    H158466   4.643   3.009   2.097  0.4177 -1.5278  0.8370
12325TIP3    H258467   4.649   2.959   1.954 -0.4757 -2.0288  0.9661
12326TIP3   OH258468   2.971   2.083  13.814  0.6107 -0.3594  0.1421
12326TIP3    H158469   2.906   2.133  13.864  0.9001 -0.1862  0.3498
12326TIP3    H258470   2.923   2.006  13.783  0.8638 -1.4555  2.2756
12327TIP3   OH258471   4.833   6.297   4.185 -0.1919  0.3999 -0.4233
12327TIP3    H158472   4.918   6.260   4.161  0.0956  1.3811 -0.9768
12327TIP3    H258473   4.797   6.329   4.102 -0.3288  1.5425  0.0645
12328TIP3   OH258474   2.927   4.749  16.420  0.3971  0.2402  0.4370
12328TIP3    H158475   2.946   4.706  16.336  0.0058  0.7823  0.0604
12328TIP3    H258476   2.871   4.823  16.396  0.3932  0.4773  1.1668
12329TIP3   OH258477   4.070   4.734  10.619  0.5414 -0.2559  0.1730
12329TIP3    H158478   4.138   4.720  10.553 -1.7254 -2.8002 -1.8442
12329TIP3    H258479   4.021   4.809  10.588  1.0720  0.2224  0.4646
12330TIP3   OH258480   2.406   3.551  16.294  0.4221  0.3989 -0.2261
12330TIP3    H158481   2.315   3.575  16.278 -0.6312 -2.8891  0.0986
12330TIP3    H258482   2.449   3.559  16.209 -0.9243 -0.6838 -1.0619
12331TIP3   OH258483   1.562   4.822  16.023 -0.2302 -0.3290 -0.4944
12331TIP3    H158484   1.655   4.829  16.003 -0.2541 -0.4830 -0.6632
12331TIP3    H258485   1.526   4.770  15.951 -0.8483  1.6440 -1.6869
12332TIP3   OH258486   4.691   4.949   3.821  0.0317  0.3533 -0.2903
12332TIP3    H158487   4.685   4.971   3.914 -0.8178 -0.5318 -0.1141
12332TIP3    H258488   4.724   4.859   3.820 -1.5219 -0.2500 -0.7437
12333TIP3   OH258489   1.269   2.290   2.445  0.0776 -0.0076 -0.1945
12333TIP3    H158490   1.339   2.348   2.475 -0.4594  0.6350 -0.1665
12333TIP3    H258491   1.280   2.211   2.497  0.5402  0.2396  0.0935
12334TIP3   OH258492   0.623   1.847  13.664 -0.1587 -0.1504 -0.0167
12334TIP3    H158493   0.570   1.881  13.735 -0.1673 -0.4189  0.1056
12334TIP3    H258494   0.712   1.876  13.684 -0.3109  0.6178 -0.4168
12335TIP3   OH258495   6.560   4.431  17.264 -0.0789  0.0558 -0.0094
12335TIP3    H158496   6.503   4.355  17.276  1.5938 -1.8091 -2.6465
12335TIP3    H258497   6.639   4.409  17.314  0.4132  0.0027 -0.7914
12336TIP3   OH258498   4.309   4.719   1.548 -0.4375 -0.3071 -0.2395
12336TIP3    H158499   4.339   4.798   1.591  2.1662 -1.0371 -0.5612
12336TIP3    H258500   4.292   4.746   1.457  0.2848 -0.0886 -0.3106
12337TIP3   OH258501   4.907   3.834   5.095  0.7653  0.6211  0.0322
12337TIP3    H158502   4.898   3.739   5.108  1.2091  0.6287  0.3761
12337TIP3    H258503   4.869   3.873   5.174  1.1013  0.7197  0.1436
12338TIP3   OH258504   4.023   1.836  14.981  0.3817 -0.2902  0.4161
12338TIP3    H158505   4.077   1.896  14.930  0.8427 -1.2084 -0.2098
12338TIP3    H258506   4.083   1.767  15.008  0.7299  1.2924  4.2937
12339TIP3   OH258507   1.669   5.452   0.548 -0.1455 -0.0931 -0.1469
12339TIP3    H158508   1.701   5.471   0.460  0.2704  0.8864  0.1945
12339TIP3    H258509   1.595   5.393   0.535 -0.5716  0.6542 -1.2073
12340TIP3   OH258510   0.702   3.497   0.679  0.6461  0.1290 -0.1899
12340TIP3    H158511   0.770   3.556   0.710  1.1884  0.2717 -1.6050
12340TIP3    H258512   0.645   3.551   0.625  0.0610 -0.2493  0.0322
12341TIP3   OH258513   2.682   1.230  15.283  0.4776 -0.4161 -0.1702
12341TIP3    H158514   2.721   1.142  15.282  0.6835 -0.3465  0.5877
12341TIP3    H258515   2.717   1.270  15.363 -0.7189 -0.1628  0.2488
12342TIP3   OH258516   3.050   0.404   2.114  0.2138  0.2546 -0.0727
12342TIP3    H158517   3.072   0.498   2.111 -0.1464  0.3982  1.3053
12342TIP3    H258518   2.973   0.399   2.170  1.8495 -1.1229  2.2329
12343TIP3   OH258519   5.891   5.076  10.736  0.5341 -0.2426  0.4205
12343TIP3    H158520   5.831   5.006  10.712 -0.1108  0.4242  0.0396
12343TIP3    H258521   5.844   5.157  10.715  2.5231  0.3382 -2.4503
12344TIP3   OH258522   4.380   6.087   0.572 -0.6647  0.1125 -0.3468
12344TIP3    H158523   4.328   6.010   0.592  0.2726 -0.7436 -1.0775
12344TIP3    H258524   4.428   6.105   0.653 -0.1755 -0.6634 -0.4513
12345TIP3   OH258525   0.106   4.456   6.777  0.2703 -0.1757 -0.7155
12345TIP3    H158526   0.174   4.507   6.822  0.0344  0.8676 -1.4916
12345TIP3    H258527   0.152   4.381   6.740  0.9683  0.4021 -1.0486
12346TIP3   OH258528   1.838   4.844   2.590 -0.2490  0.1717 -0.0825
12346TIP3    H158529   1.791   4.908   2.643  1.6505  1.7798 -0.1973
12346TIP3    H258530   1.815   4.866   2.500  0.0410  0.4189 -0.0998
12347TIP3   OH258531   5.375   4.889  10.495 -0.7872 -0.2027  0.2257
12347TIP3    H158532   5.342   4.939  10.420 -1.3526 -0.9060 -0.0030
12347TIP3    H258533   5.300   4.836  10.523 -0.1562 -1.0364  0.3723
12348TIP3   OH258534   2.912   0.719  13.197 -0.0107 -0.1921  0.2916
12348TIP3    H158535   2.885   0.633  13.229 -1.2350 -0.0393 -0.3223
12348TIP3    H258536   3.007   0.710  13.183 -0.0745 -1.3381  0.5068
12349TIP3   OH258537   2.372   6.563  13.147  0.5132  0.2801  0.6205
12349TIP3    H158538   2.384   6.534  13.056 -1.7536  1.9105 -0.2623
12349TIP3    H258539   2.427   6.641  13.154  1.5300 -0.4407  1.0376
12350TIP3   OH258540   1.585   5.895   5.211 -0.1116 -0.4952 -0.0259
12350TIP3    H158541   1.594   5.877   5.304  1.2916 -0.2712 -0.0881
12350TIP3    H258542   1.491   5.889   5.193 -0.7176  1.7619  1.8700
12351TIP3   OH258543   2.424   0.364  16.223 -0.0619  0.3964 -0.3121
12351TIP3    H158544   2.359   0.392  16.159 -1.0917 -0.2957  0.3971
12351TIP3    H258545   2.499   0.335  16.171 -0.2286  1.4172 -1.1314
12352TIP3   OH258546   3.957   0.085  16.469 -0.0287  0.3526 -0.1792
12352TIP3    H158547   3.938   0.159  16.526 -0.3519 -0.1372  0.3593
12352TIP3    H258548   4.033   0.043  16.508 -0.2016  0.0627 -0.1496
12353TIP3   OH258549   4.660   4.644   5.759 -0.4299  0.4005 -0.1827
12353TIP3    H158550   4.680   4.553   5.737 -1.2981 -0.1702  1.2680
12353TIP3    H258551   4.742   4.678   5.794 -0.1113  0.1828 -0.6997
12354TIP3   OH258552   1.280   3.867   1.291 -0.8714 -0.5490  0.3344
12354TIP3    H158553   1.321   3.953   1.288 -0.9858 -0.4427  1.3997
12354TIP3    H258554   1.348   3.806   1.261  0.2519 -0.4265  2.4628
12355TIP3   OH258555   5.805   3.926  12.761 -0.5783 -0.3895  0.0442
12355TIP3    H158556   5.807   4.009  12.809 -2.4227 -1.3015  1.8416
12355TIP3    H258557   5.826   3.950  12.671  0.2451  1.8176  0.7580
12356TIP3   OH258558   5.673   6.423  14.668  0.3152 -0.1422 -0.2734
12356TIP3    H158559   5.742   6.399  14.731 -0.2251  0.7540  0.6928
12356TIP3    H258560   5.622   6.343  14.657 -0.4007  0.0175  1.5205
12357TIP3   OH258561   5.273   6.815   4.389 -0.1112 -0.0062 -0.1057
12357TIP3    H158562   5.259   6.909   4.377  0.8711 -0.0080 -1.4894
12357TIP3    H258563   5.328   6.789   4.315  0.0598 -1.5804  0.5324
12358TIP3   OH258564   4.924   0.278  14.861 -0.0535  0.4439 -0.3794
12358TIP3    H158565   4.958   0.323  14.939 -0.7839  2.4106 -1.1180
12358TIP3    H258566   4.923   0.186  14.885 -0.3769  0.9979  1.9932
12359TIP3   OH258567   4.973   4.362   0.273 -0.7981 -0.4660  0.2761
12359TIP3    H158568   4.976   4.283   0.327 -0.1905 -1.1257 -0.6876
12359TIP3    H258569   5.063   4.374   0.244 -1.1300 -0.1590 -0.6422
12360TIP3   OH258570   4.259   2.529   1.050  0.2363 -0.0328  0.2033
12360TIP3    H158571   4.196   2.573   0.994 -0.0405 -1.8876 -1.0047
12360TIP3    H258572   4.335   2.588   1.052  0.5749 -0.2181 -2.7782
12361TIP3   OH258573   5.746   3.310  16.477 -0.2524 -0.0510  0.6580
12361TIP3    H158574   5.726   3.305  16.570  0.3501 -0.7894  0.7574
12361TIP3    H258575   5.786   3.397  16.466 -0.7452  0.2232  0.9952
12362TIP3   OH258576   5.415   6.094   3.526  0.6105 -0.4872 -0.0917
12362TIP3    H158577   5.330   6.072   3.564  0.2059  1.0102 -0.0581
12362TIP3    H258578   5.406   6.072   3.433 -0.7510  1.9549 -0.6239
12363TIP3   OH258579   0.680   1.785  10.797  0.2900  0.1438  0.2672
12363TIP3    H158580   0.634   1.748  10.872  1.7205 -2.1700  0.0938
12363TIP3    H258581   0.616   1.783  10.726 -0.0954 -0.7082  0.6254
12364TIP3   OH258582   3.840   5.995   4.601 -0.2908  0.1448  0.1359
12364TIP3    H158583   3.820   6.060   4.534 -1.8347 -0.5641 -0.1180
12364TIP3    H258584   3.760   5.988   4.652 -0.2888 -1.8210 -0.0728
12365TIP3   OH258585   2.802   2.144   4.137  0.3323 -0.1037  0.7101
12365TIP3    H158586   2.821   2.233   4.166 -0.1379  0.8499 -1.6451
12365TIP3    H258587   2.887   2.104   4.123  0.6167  0.9297 -0.7686
12366TIP3   OH258588   3.377   5.447   6.366 -0.6764  0.5730 -0.2208
12366TIP3    H158589   3.350   5.534   6.396 -0.6265  0.6851 -0.4946
12366TIP3    H258590   3.332   5.386   6.425 -1.0240  0.7750 -0.2724
12367TIP3   OH258591   4.159   6.171   0.441  0.1589  0.6175 -0.1029
12367TIP3    H158592   4.211   6.135   0.370  0.4314  0.7294  0.0380
12367TIP3    H258593   4.216   6.165   0.518 -1.1775 -2.2920  0.7791
12368TIP3   OH258594   5.022   4.768  13.212  0.2128  0.3367 -0.2047
12368TIP3    H158595   5.036   4.689  13.264 -2.8681  0.1223  0.5244
12368TIP3    H258596   4.938   4.752  13.168  0.0750  2.7286 -0.9169
12369TIP3   OH258597   2.163   5.815  14.835  0.0698 -0.4718 -0.5176
12369TIP3    H158598   2.233   5.856  14.784 -0.1350 -0.2713 -0.6342
12369TIP3    H258599   2.149   5.730  14.793 -1.0817  0.2670 -1.6614
12370TIP3   OH258600   5.574   2.369   2.366 -0.2925 -0.7531  0.4165
12370TIP3    H158601   5.582   2.285   2.320 -1.2293 -0.8971  0.5061
12370TIP3    H258602   5.555   2.344   2.457  2.0979 -0.4876  1.0616
12371TIP3   OH258603   3.967   2.565  12.280  0.3819  0.0822 -0.1506
12371TIP3    H158604   3.872   2.552  12.286  0.3996  0.2558  0.5331
12371TIP3    H258605   3.985   2.562  12.186 -0.5556  1.8207 -0.4268
12372TIP3   OH258606   0.616   5.375   6.791  0.2434 -0.1718  0.1996
12372TIP3    H158607   0.564   5.295   6.799 -2.4058  1.2353 -1.5572
12372TIP3    H258608   0.605   5.403   6.700  1.2375  2.0902  0.6854
12373TIP3   OH258609   0.024   4.135   5.077 -0.7208 -0.2964 -0.0653
12373TIP3    H158610   0.118   4.119   5.085 -0.8060 -0.2321  1.3201
12373TIP3    H258611  -0.015   4.048   5.083 -0.6713 -0.7470 -3.7040
12374TIP3   OH258612   1.631   3.659   2.274  0.4642  0.0420 -0.4198
12374TIP3    H158613   1.602   3.570   2.295  1.5763 -0.3961 -0.6810
12374TIP3    H258614   1.555   3.700   2.232  0.1700 -1.0257 -0.9563
12375TIP3   OH258615   3.237   3.682   1.315  0.4479  0.3020 -0.1519
12375TIP3    H158616   3.275   3.675   1.228  0.1948 -0.9622 -0.1763
12375TIP3    H258617   3.309   3.660   1.374 -0.2115 -2.4539 -0.2098
12376TIP3   OH258618   5.313   4.252  15.941 -0.1759 -0.3876  0.0886
12376TIP3    H158619   5.266   4.323  15.984  0.1309 -0.6065  0.7908
12376TIP3    H258620   5.249   4.181  15.935 -0.7015  0.1773 -1.2574
12377TIP3   OH258621   4.845   0.331  11.638 -0.1636 -0.2329  0.4753
12377TIP3    H158622   4.799   0.284  11.708  0.1663 -1.3974 -0.0791
12377TIP3    H258623   4.786   0.328  11.563  0.5872 -1.3283 -0.0985
12378TIP3   OH258624   4.151   5.471   2.291 -0.8936 -0.6141 -0.3305
12378TIP3    H158625   4.099   5.393   2.272 -4.1509  1.1042  0.8079
12378TIP3    H258626   4.152   5.477   2.387 -0.3672  0.5241 -0.3895
12379TIP3   OH258627   0.410   4.667   4.192 -0.1370  0.2294 -0.2183
12379TIP3    H158628   0.332   4.619   4.220  0.7561 -0.6274  0.9237
12379TIP3    H258629   0.377   4.740   4.140 -1.6881 -0.0534  0.3350
12380TIP3   OH258630   5.493   2.363   3.211 -0.1903  0.0405  0.1866
12380TIP3    H158631   5.500   2.435   3.273 -1.0326  0.2713  0.0234
12380TIP3    H258632   5.572   2.370   3.157  0.3246  0.1071  0.9303
12381TIP3   OH258633   2.017   6.551  11.730 -0.0056 -0.3288 -0.2311
12381TIP3    H158634   1.990   6.459  11.735 -3.9581  0.7430  2.3877
12381TIP3    H258635   2.106   6.551  11.766  0.6734 -3.1901 -1.5860
12382TIP3   OH258636   0.185   1.498  16.657  0.0612 -0.5346 -0.4848
12382TIP3    H158637   0.195   1.474  16.565 -2.8023  0.3663 -1.1491
12382TIP3    H258638   0.274   1.496  16.693  1.7686  1.8565 -3.9848
12383TIP3   OH258639   0.971   4.454  16.728 -0.1574  0.5510  0.1459
12383TIP3    H158640   1.002   4.401  16.802 -0.3669  0.8109  0.4189
12383TIP3    H258641   1.036   4.438  16.659  1.1998  1.9010  1.0432
12384TIP3   OH258642   1.929   1.620  13.044  0.9340 -0.3558  0.3414
12384TIP3    H158643   1.885   1.542  13.079  3.0245 -1.0320  1.6914
12384TIP3    H258644   1.862   1.687  13.041 -0.8158 -2.0521 -0.3468
12385TIP3   OH258645   1.080   3.531   2.783  0.5544 -0.1442  0.0230
12385TIP3    H158646   1.164   3.557   2.819  0.4806  2.0776 -1.2315
12385TIP3    H258647   1.062   3.595   2.714 -2.4993 -0.0663  0.7293
12386TIP3   OH258648   4.993   5.660  13.974  0.1383 -0.7623 -0.3802
12386TIP3    H158649   5.013   5.748  13.942 -0.3619 -0.6398 -0.3700
12386TIP3    H258650   5.051   5.603  13.926  1.6580 -0.2809  0.7922
12387TIP3   OH258651   5.798   4.957   5.955  0.3320  0.0008 -1.4690
12387TIP3    H158652   5.720   4.920   5.914 -0.1412 -0.5174 -0.1402
12387TIP3    H258653   5.772   5.045   5.983 -0.3551 -0.7880  0.5190
12388TIP3   OH258654   6.807   3.411   4.269 -0.4044  0.0224 -0.3572
12388TIP3    H158655   6.892   3.441   4.238 -1.2994  1.5674 -1.3956
12388TIP3    H258656   6.787   3.335   4.215 -1.6100  2.2372 -3.2753
12389TIP3   OH258657   0.659   1.817   4.613 -0.1616 -0.3191  0.1396
12389TIP3    H158658   0.658   1.848   4.703  0.3255 -1.4059  0.5389
12389TIP3    H258659   0.570   1.831   4.581  0.3189  2.6159 -0.1385
12390TIP3   OH258660   5.264   3.413  15.818 -0.4670 -0.4730  0.1054
12390TIP3    H158661   5.335   3.475  15.799 -0.0685 -0.9860 -0.1253
12390TIP3    H258662   5.283   3.381  15.906 -1.4078  0.6998  0.7448
12391TIP3   OH258663   5.564   1.337   5.328 -0.6830  0.0613 -0.5050
12391TIP3    H158664   5.540   1.263   5.272  1.7757 -0.5550 -0.8802
12391TIP3    H258665   5.638   1.304   5.380 -0.9621  1.5795  0.9228
12392TIP3   OH258666   2.649   6.458   1.629  0.1685 -1.0748  0.1147
12392TIP3    H158667   2.659   6.551   1.647 -1.0689 -0.9780  0.3866
12392TIP3    H258668   2.732   6.433   1.587  0.9650 -0.1150  1.0525
12393TIP3   OH258669   2.222   2.720  15.315  0.1297 -0.4325  0.6436
12393TIP3    H158670   2.258   2.778  15.382  0.3848  1.7608 -1.2604
12393TIP3    H258671   2.290   2.655  15.300  2.8477  2.5869 -1.6349
12394TIP3   OH258672   5.801   4.310  14.607  0.0618  1.1264  0.0290
12394TIP3    H158673   5.769   4.376  14.546  1.3411  1.4646 -0.3216
12394TIP3    H258674   5.896   4.326  14.611  0.2818 -0.2056  0.5249
12395TIP3   OH258675   4.724   4.757   5.189  0.0260 -0.0886 -0.5742
12395TIP3    H158676   4.690   4.738   5.102 -1.9026  0.2473  0.0700
12395TIP3    H258677   4.756   4.673   5.222 -0.8094 -0.5538 -0.9372
12396TIP3   OH258678   5.755   3.510  13.867  0.3072 -0.3783  0.4395
12396TIP3    H158679   5.825   3.449  13.843 -0.0141 -0.8634  0.7053
12396TIP3    H258680   5.702   3.461  13.930 -0.4772 -0.1514 -0.0324
12397TIP3   OH258681   3.261   4.724   5.719  0.3487 -0.1861 -0.0631
12397TIP3    H158682   3.229   4.651   5.771  1.4779 -0.9543 -0.4201
12397TIP3    H258683   3.260   4.799   5.779 -1.2660 -0.3579  0.1667
12398TIP3   OH258684   2.903   5.791  12.093 -0.3142 -0.3528  0.1962
12398TIP3    H158685   2.812   5.787  12.062  0.2329 -1.6298 -1.4010
12398TIP3    H258686   2.956   5.775  12.015  1.3940  1.9507  0.7598
12399TIP3   OH258687   4.832   4.510   5.269 -0.0457 -0.2905 -0.2529
12399TIP3    H158688   4.849   4.466   5.186 -0.5741  2.0824 -1.7305
12399TIP3    H258689   4.915   4.552   5.292 -0.5038  1.0400 -0.9098
12400TIP3   OH258690   0.174   0.525   4.420 -0.7094  0.9104  0.2481
12400TIP3    H158691   0.091   0.507   4.374 -0.0222 -0.7009 -0.4168
12400TIP3    H258692   0.162   0.614   4.454 -2.2076  1.2368 -0.9515
12401TIP3   OH258693   4.251   3.659  14.610 -0.2824 -0.5593 -0.5130
12401TIP3    H158694   4.208   3.651  14.695  1.3975 -4.5582  0.1662
12401TIP3    H258695   4.179   3.670  14.548 -1.5071  3.8711  1.3019
12402TIP3   OH258696   5.283   4.792  13.093 -0.3958 -0.0314 -0.0777
12402TIP3    H158697   5.196   4.792  13.131 -1.2496 -0.3947 -1.9193
12402TIP3    H258698   5.342   4.776  13.167 -1.7266  1.7070  1.4649
12403TIP3   OH258699   0.417   0.456  12.500 -0.0793 -0.3595  0.4322
12403TIP3    H158700   0.368   0.468  12.419 -1.0693  1.0050  1.1837
12403TIP3    H258701   0.396   0.367  12.528 -0.4715 -0.5143 -0.3195
12404TIP3   OH258702   2.477   1.582   0.068  0.0093  0.0185 -0.5585
12404TIP3    H158703   2.570   1.562   0.081  0.1051 -1.2611 -2.7676
12404TIP3    H258704   2.452   1.629   0.147  2.4088 -0.0329  0.3227
12405TIP3   OH258705   2.245   5.071   1.117  0.5479 -0.3632  0.4202
12405TIP3    H158706   2.309   5.001   1.106 -0.0495 -0.6913 -1.2966
12405TIP3    H258707   2.268   5.135   1.049 -1.1722 -0.7066 -0.5423
12406TIP3   OH258708   0.492   3.609  14.121  0.0323  0.5253 -0.3258
12406TIP3    H158709   0.571   3.613  14.176  0.5044  0.2385 -0.9629
12406TIP3    H258710   0.523   3.573  14.038 -0.4219  2.0503 -1.2113
12407TIP3   OH258711   2.193   3.343  13.072 -0.1550 -0.5075  0.4334
12407TIP3    H158712   2.242   3.381  13.000 -0.2841  0.7357  0.9776
12407TIP3    H258713   2.259   3.315  13.135 -0.0676 -1.0216  0.1174
12408TIP3   OH258714   1.979   1.032   2.417 -0.2452  0.0911  0.3710
12408TIP3    H158715   1.977   1.103   2.353 -1.1499 -0.0458  0.2328
12408TIP3    H258716   2.067   0.996   2.411 -0.2416  0.2450 -0.6209
12409TIP3   OH258717   2.761   2.428   4.709 -0.2761 -0.2051 -0.4341
12409TIP3    H158718   2.847   2.399   4.679 -0.1504 -0.8120  0.4822
12409TIP3    H258719   2.756   2.520   4.683  1.1199  0.1604  0.4972
12410TIP3   OH258720   3.516   1.335  14.301  0.0456 -0.1595 -0.3239
12410TIP3    H158721   3.601   1.291  14.293 -0.8931 -1.8187 -1.8540
12410TIP3    H258722   3.536   1.428  14.285  1.4435 -0.6547 -1.7686
12411TIP3   OH258723   4.785   1.541  14.844 -0.1128  0.5737  0.6528
12411TIP3    H158724   4.749   1.524  14.931  2.1695  0.4988  1.6567
12411TIP3    H258725   4.766   1.462  14.794  2.1769 -1.2535  2.4202
12412TIP3   OH258726   1.519   6.727   4.328 -0.1395  0.2115 -0.2087
12412TIP3    H158727   1.479   6.756   4.410 -0.2878  0.6991 -0.4498
12412TIP3    H258728   1.582   6.660   4.354 -1.6187 -1.1290  0.1262
12413TIP3   OH258729   1.525   2.600  11.371  0.6147  0.3376  0.0079
12413TIP3    H158730   1.518   2.659  11.446  1.6765  0.9790 -0.3688
12413TIP3    H258731   1.579   2.527  11.402  0.8153  0.4620 -0.0469
12414TIP3   OH258732   5.430   4.280  12.712 -0.3069 -0.4455  0.0684
12414TIP3    H158733   5.371   4.206  12.725 -1.5690  0.8379  2.2436
12414TIP3    H258734   5.469   4.296  12.798 -1.4982  2.5020  0.1755
12415TIP3   OH258735   6.350   1.961  10.977 -0.1760  0.3642 -0.1626
12415TIP3    H158736   6.318   1.897  10.914  1.5273  0.9500 -1.7239
12415TIP3    H258737   6.293   2.037  10.966  0.0575  0.4305 -0.9536
12416TIP3   OH258738   1.429   5.998  16.011 -0.3986  0.2295  0.4700
12416TIP3    H158739   1.482   5.974  16.087 -2.1817 -0.9100  1.4483
12416TIP3    H258740   1.452   6.089  15.993  0.8176  0.1989  1.7351
12417TIP3   OH258741   5.380   6.413   5.784  0.0844  0.1126  0.0106
12417TIP3    H158742   5.310   6.478   5.791 -0.9278 -1.0335  1.3494
12417TIP3    H258743   5.379   6.386   5.692 -2.4045 -1.0263  0.2813
12418TIP3   OH258744   6.729   6.036   2.991 -0.3822 -0.8747 -0.5661
12418TIP3    H158745   6.655   5.982   2.965 -1.1449  0.0269 -0.3037
12418TIP3    H258746   6.691   6.120   3.015  0.6230 -0.6798  0.4515
12419TIP3   OH258747   3.907   3.220  17.002  0.0504 -0.6153 -0.4891
12419TIP3    H158748   3.900   3.141  16.948  0.9254 -1.0277 -0.0014
12419TIP3    H258749   3.861   3.198  17.083 -0.6828 -0.2244 -0.7878
12420TIP3   OH258750   5.785   2.818   1.932 -0.1483 -0.0371 -0.4204
12420TIP3    H158751   5.769   2.840   2.024 -2.4671  0.2582 -0.8224
12420TIP3    H258752   5.765   2.724   1.926  1.1054 -0.3163 -0.4271
12421TIP3   OH258753   5.233   1.189  12.496  0.1158 -0.3205 -0.3756
12421TIP3    H158754   5.259   1.116  12.552 -0.5375 -0.3211 -0.0684
12421TIP3    H258755   5.155   1.158  12.450 -0.9940  0.6414  0.7722
12422TIP3   OH258756   5.312   6.776  13.280  0.0915  0.2790  0.1407
12422TIP3    H158757   5.328   6.683  13.266 -2.5427 -0.2426  0.1118
12422TIP3    H258758   5.353   6.820  13.205  2.2325 -0.6791  0.6556
12423TIP3   OH258759   0.467   3.220  16.222 -0.0503 -0.5310  0.6512
12423TIP3    H158760   0.517   3.273  16.160  0.0978  0.2147  1.3876
12423TIP3    H258761   0.437   3.282  16.288 -1.7439 -1.0175  0.3686
12424TIP3   OH258762   2.833   5.702  12.378  0.6765 -0.3179  0.5048
12424TIP3    H158763   2.869   5.699  12.289 -1.6629  1.1633 -0.5914
12424TIP3    H258764   2.909   5.709  12.435  2.1768  0.8572 -1.5308
12425TIP3   OH258765   2.588   1.708  10.652  0.0393 -0.0079  0.1514
12425TIP3    H158766   2.613   1.756  10.731 -0.3151 -0.4513  0.5372
12425TIP3    H258767   2.626   1.759  10.581  1.4735 -0.2837  0.6748
12426TIP3   OH258768   2.416   3.723  15.450 -0.1456 -0.1657  0.0124
12426TIP3    H158769   2.367   3.648  15.418 -0.3139  0.1033 -0.3665
12426TIP3    H258770   2.360   3.798  15.431  0.0429  0.0625  0.3427
12427TIP3   OH258771   0.368   5.791  11.311 -0.1602 -0.5437  0.2973
12427TIP3    H158772   0.294   5.843  11.342 -0.3067 -1.2223  1.1328
12427TIP3    H258773   0.443   5.822  11.361  0.0325 -0.1856 -0.2054
12428TIP3   OH258774   4.474   1.102   1.703 -0.3138  0.1686 -0.6827
12428TIP3    H158775   4.439   1.179   1.748 -0.1124 -0.3506  0.3803
12428TIP3    H258776   4.436   1.027   1.748  1.5367 -0.3996  0.0248
12429TIP3   OH258777   4.049   2.816  16.689 -0.2721 -0.2309  0.6575
12429TIP3    H158778   4.045   2.726  16.721 -1.4932 -0.1419  0.7787
12429TIP3    H258779   4.137   2.846  16.713  0.4252 -1.6198 -0.0458
12430TIP3   OH258780   3.253   6.025   2.570  0.3021 -0.1562  0.1363
12430TIP3    H158781   3.340   6.051   2.539  0.3479 -1.8120 -1.2918
12430TIP3    H258782   3.256   6.038   2.665  1.4885  1.4523 -0.0743
12431TIP3   OH258783   4.768   5.570   4.485 -0.0745  0.4993 -0.2339
12431TIP3    H158784   4.799   5.480   4.477  1.8663  1.0845  0.1852
12431TIP3    H258785   4.679   5.568   4.449 -0.2699 -1.6637  0.2345
12432TIP3   OH258786   2.838   0.235  11.525  0.5264 -0.0930 -0.0861
12432TIP3    H158787   2.755   0.274  11.553  0.4729 -0.6319  0.5398
12432TIP3    H258788   2.905   0.284  11.574  0.3503 -2.0610  2.3335
12433TIP3   OH258789   1.192   3.448  14.838 -0.5164  0.3895 -0.1498
12433TIP3    H158790   1.158   3.538  14.835 -0.1924  0.5421  0.6199
12433TIP3    H258791   1.287   3.459  14.848 -0.4287 -0.0387 -0.5187
12434TIP3   OH258792   0.158   2.128  16.455 -0.0188  0.1973 -0.3785
12434TIP3    H158793   0.219   2.056  16.463 -1.2613 -1.2256 -2.6432
12434TIP3    H258794   0.079   2.098  16.502 -0.8670 -0.3956 -2.1010
12435TIP3   OH258795   0.117   3.209   4.981  0.2926 -0.0358 -0.0139
12435TIP3    H158796   0.041   3.159   4.954  1.4099 -1.5587 -0.4691
12435TIP3    H258797   0.082   3.296   5.003 -1.6395 -0.8757  0.4300
12436TIP3   OH258798   1.839   1.724  14.381 -0.1124 -0.4057  0.3046
12436TIP3    H158799   1.779   1.771  14.440 -1.0767 -2.3166  0.9196
12436TIP3    H258800   1.782   1.685  14.315  0.9848  2.0942 -2.3252
12437TIP3   OH258801   2.411   0.472  11.070  0.3466  0.2170 -0.3213
12437TIP3    H158802   2.450   0.408  11.011  0.7578  0.2836 -0.1313
12437TIP3    H258803   2.327   0.435  11.094  0.5545 -0.2215 -0.2654
12438TIP3   OH258804   6.401   4.842  15.641 -0.0383  0.3557 -0.0051
12438TIP3    H158805   6.348   4.796  15.576  0.1253 -0.3066  0.3221
12438TIP3    H258806   6.486   4.854  15.599  0.7112 -1.8015  0.7349
12439TIP3   OH258807   4.895   3.685  13.184  0.2417 -0.1467 -0.3466
12439TIP3    H158808   4.961   3.733  13.233 -0.5612  1.0927 -0.4201
12439TIP3    H258809   4.847   3.635  13.251  1.2396 -1.0857 -0.3007
12440TIP3   OH258810   4.459   2.959  13.679  0.3891  0.1693 -0.3019
12440TIP3    H158811   4.367   2.941  13.660 -0.4011  1.2646  2.0747
12440TIP3    H258812   4.489   2.883  13.728  0.5842  0.0718 -0.5716
12441TIP3   OH258813   4.721   6.599   4.144  0.1081 -0.1436 -0.0074
12441TIP3    H158814   4.706   6.603   4.238  1.2598  0.3952  0.1731
12441TIP3    H258815   4.643   6.555   4.109  0.1763 -1.4018  1.3161
12442TIP3   OH258816   4.042   1.816   3.211 -0.3668 -0.3007 -0.4324
12442TIP3    H158817   4.060   1.910   3.217 -1.9674  0.0022  0.1105
12442TIP3    H258818   4.045   1.797   3.117  0.2352  0.2288 -0.5286
12443TIP3   OH258819   2.327   5.092   0.280 -0.0505  0.1062  0.6277
12443TIP3    H158820   2.302   5.104   0.371 -1.9995  0.3993  0.0995
12443TIP3    H258821   2.310   4.999   0.263 -3.3068  0.7260 -0.3423
12444TIP3   OH258822   4.157   5.854  15.139 -0.3287 -0.0711  0.3988
12444TIP3    H158823   4.110   5.799  15.075  0.9769 -0.9564  0.1670
12444TIP3    H258824   4.136   5.943  15.113 -2.0700 -0.4137  0.4485
12445TIP3   OH258825   1.323   0.454  11.505 -0.0429  0.4997  0.4365
12445TIP3    H158826   1.324   0.527  11.567 -0.4053 -0.2959  1.4059
12445TIP3    H258827   1.233   0.423  11.505 -0.0523  0.4796 -0.5093
12446TIP3   OH258828   5.665   0.588  15.359 -0.3529 -0.6182 -0.0564
12446TIP3    H158829   5.623   0.524  15.416  0.3444 -1.0012  0.0388
12446TIP3    H258830   5.730   0.631  15.414 -0.6827  0.0471 -0.1727
12447TIP3   OH258831   5.769   1.902  16.192  0.4656 -0.5027  0.2040
12447TIP3    H158832   5.776   1.842  16.117  0.1138 -3.4141  2.3203
12447TIP3    H258833   5.736   1.847  16.263  0.6268  2.1574  2.4833
12448TIP3   OH258834   6.614   5.728  10.939  0.5969 -0.2027 -0.5606
12448TIP3    H158835   6.595   5.759  10.850  0.4755  0.4431 -0.3105
12448TIP3    H258836   6.678   5.790  10.973 -1.6328  1.4708  0.9261
12449TIP3   OH258837   0.919   1.628   0.030 -0.1699 -0.0126  0.0898
12449TIP3    H158838   0.889   1.577  -0.045  2.5052 -0.8855 -0.4963
12449TIP3    H258839   0.886   1.580   0.106 -0.2113 -0.9538 -0.5010
12450TIP3   OH258840   0.934   0.677  13.498 -0.4417 -0.1803 -0.9304
12450TIP3    H158841   0.912   0.610  13.564  0.2603  1.9102  1.5867
12450TIP3    H258842   0.851   0.694  13.453 -1.0267 -1.4535 -0.4006
12451TIP3   OH258843   0.764   3.268   2.095  0.5085 -0.4952  0.2400
12451TIP3    H158844   0.699   3.278   2.164  0.6806 -0.6041  0.4208
12451TIP3    H258845   0.718   3.291   2.015  0.1936 -0.7681  0.3407
12452TIP3   OH258846   4.452   4.825   1.326 -0.7761  0.1392 -0.6804
12452TIP3    H158847   4.403   4.891   1.277  0.7511  0.6164 -1.6418
12452TIP3    H258848   4.449   4.747   1.271  0.3831  0.4798 -1.2588
12453TIP3   OH258849   0.326   6.034   0.265  0.4425  0.2682  0.1049
12453TIP3    H158850   0.408   6.083   0.268 -0.1304  1.2405  0.4902
12453TIP3    H258851   0.269   6.086   0.207 -0.5467  0.6922  1.3981
12454TIP3   OH258852   5.178   6.000   2.917  0.6569  0.6794  0.2736
12454TIP3    H158853   5.210   6.090   2.923  1.4290  0.4522 -0.2118
12454TIP3    H258854   5.135   5.995   2.832  0.2669  0.6914  0.4677
12455TIP3   OH258855   3.395   6.371  10.587 -0.1105 -0.3824 -0.2094
12455TIP3    H158856   3.349   6.307  10.642  0.7733 -1.2371 -0.4379
12455TIP3    H258857   3.380   6.455  10.630 -0.5678 -0.8603  0.5861
12456TIP3   OH258858   2.079   0.731  14.139  0.1363 -0.1862 -0.4099
12456TIP3    H158859   2.020   0.805  14.153  1.7021  1.2363 -1.0284
12456TIP3    H258860   2.119   0.715  14.225  1.5915  1.3317 -0.7584
12457TIP3   OH258861   0.586   4.231  13.956  0.4392  0.4368  0.3673
12457TIP3    H158862   0.588   4.166  13.885  0.9476  1.1680 -0.2960
12457TIP3    H258863   0.576   4.178  14.036  1.0735 -0.4714 -0.1407
12458TIP3   OH258864   0.045   0.345  11.858  0.3513 -0.0313  0.4630
12458TIP3    H158865   0.054   0.439  11.870 -1.5207  0.4703 -1.3556
12458TIP3    H258866  -0.003   0.315  11.935 -1.5841  1.0760 -0.2276
12459TIP3   OH258867   1.109   1.443   0.752 -0.0970 -0.3387 -0.4806
12459TIP3    H158868   1.026   1.477   0.718 -0.8315 -0.9340  0.6256
12459TIP3    H258869   1.156   1.521   0.783 -1.3540 -0.1686  1.1779
12460TIP3   OH258870   5.809   6.159   0.241 -0.3193 -0.3833 -0.0827
12460TIP3    H158871   5.749   6.117   0.179 -0.1337 -1.4883  0.4595
12460TIP3    H258872   5.861   6.219   0.188  1.6619 -3.2118 -1.5267
12461TIP3   OH258873   0.104   4.125  12.686  0.5048  0.2274 -0.7621
12461TIP3    H158874   0.138   4.201  12.733 -0.5629 -0.4695  1.2892
12461TIP3    H258875   0.022   4.104  12.731  0.5829 -1.8915 -1.4967
12462TIP3   OH258876   4.755   0.942   0.512  0.0185  0.1736 -0.4470
12462TIP3    H158877   4.724   0.857   0.542  0.0193 -0.1582 -1.3605
12462TIP3    H258878   4.678   0.999   0.519 -0.4357 -0.3003 -1.3553
12463TIP3   OH258879   1.288   1.959   2.085  0.5177 -0.3649 -0.3912
12463TIP3    H158880   1.260   1.980   1.996 -0.0562  1.9329  0.2557
12463TIP3    H258881   1.374   2.000   2.094  0.6931 -0.8128  0.0293
12464TIP3   OH258882   0.534   2.081  10.844  0.0896 -0.1050 -0.0814
12464TIP3    H158883   0.536   2.177  10.849 -1.3968 -0.0861  0.8479
12464TIP3    H258884   0.612   2.058  10.793  1.5498  1.4914  1.2920
12465TIP3   OH258885   5.529   2.809  12.394 -0.2244 -0.1782  0.2704
12465TIP3    H158886   5.519   2.865  12.316  1.4292  0.2664  0.3554
12465TIP3    H258887   5.606   2.843  12.439  0.0366 -1.7068  1.0452
12466TIP3   OH258888   2.261   1.150  17.047  0.1315  0.1491  0.7795
12466TIP3    H158889   2.214   1.205  17.109  0.7160  0.3401  1.0599
12466TIP3    H258890   2.323   1.101  17.100  0.2886 -0.0632  0.4076
12467TIP3   OH258891   2.221   5.094   4.401 -0.0356 -0.4450 -0.1597
12467TIP3    H158892   2.305   5.064   4.435  0.5204  0.4845 -0.6872
12467TIP3    H258893   2.156   5.056   4.461  0.8276  0.0134  1.1170
12468TIP3   OH258894   2.245   0.421  11.941  0.0208 -0.2152 -0.2684
12468TIP3    H158895   2.283   0.337  11.914 -0.2975 -1.0819  1.8074
12468TIP3    H258896   2.303   0.453  12.009 -0.5445  0.6597 -0.1882
12469TIP3   OH258897   2.615   6.563   3.106  0.3384 -0.1563 -0.2111
12469TIP3    H158898   2.598   6.516   3.188 -1.3337 -0.1734 -0.5377
12469TIP3    H258899   2.664   6.641   3.132 -0.3781 -0.0434  0.8361
12470TIP3   OH258900   5.596   3.187  12.490  0.0786 -0.6108 -0.6821
12470TIP3    H158901   5.650   3.177  12.569 -1.1004  2.1917  0.6396
12470TIP3    H258902   5.658   3.187  12.418  1.8489  1.7038  0.7053
12471TIP3   OH258903   6.724   0.538   1.102  0.0949 -0.1365 -0.2388
12471TIP3    H158904   6.696   0.529   1.011 -0.7739  0.9951 -0.1117
12471TIP3    H258905   6.811   0.497   1.105 -1.0063 -2.6800 -0.9193
12472TIP3   OH258906   5.761   2.296  12.921  0.6254 -0.0255  0.4171
12472TIP3    H158907   5.827   2.231  12.943 -0.2632 -0.7110  1.1725
12472TIP3    H258908   5.747   2.285  12.827  0.3948 -1.0444  0.5515
12473TIP3   OH258909   4.360   2.412  15.245 -0.0062  0.3418  0.6511
12473TIP3    H158910   4.450   2.431  15.219 -0.7030  0.8183 -1.6476
12473TIP3    H258911   4.307   2.465  15.187 -1.7958  0.3325  2.1933
12474TIP3   OH258912   2.579   4.308  16.443  0.6814  0.1455  0.2454
12474TIP3    H158913   2.590   4.371  16.372  0.4574 -1.6119 -1.4200
12474TIP3    H258914   2.668   4.292  16.476  1.1581 -1.0088 -1.4778
12475TIP3   OH258915   2.306   0.203   0.271 -0.5661 -0.4381  0.2575
12475TIP3    H158916   2.239   0.150   0.227 -0.2888 -0.2885 -0.3512
12475TIP3    H258917   2.314   0.281   0.216 -1.7133  0.7537  1.6789
12476TIP3   OH258918   6.168   2.479   6.315  0.0265 -0.5214 -0.1123
12476TIP3    H158919   6.152   2.393   6.278 -0.8938 -0.9757  1.2615
12476TIP3    H258920   6.199   2.532   6.241 -0.9741 -1.5720 -1.3203
12477TIP3   OH258921   5.856   4.136   0.531 -0.2845  0.6863 -0.1536
12477TIP3    H158922   5.860   4.110   0.623 -1.0399  3.8260  0.8875
12477TIP3    H258923   5.832   4.056   0.484 -1.1084 -0.7457  2.5148
12478TIP3   OH258924   6.289   0.199   4.338  0.0106  0.2449  0.0200
12478TIP3    H158925   6.234   0.166   4.408  1.2406 -0.8126  0.5252
12478TIP3    H258926   6.275   0.294   4.338 -0.6124  0.1594  1.1547
12479TIP3   OH258927   0.267   5.806   0.413 -0.2454  0.3168  0.2879
12479TIP3    H158928   0.218   5.859   0.476  1.6945  1.2564  1.0882
12479TIP3    H258929   0.278   5.864   0.337 -0.0218  0.2739  0.2848
12480TIP3   OH258930   3.574   1.435   0.011 -0.7140 -0.3365 -0.2809
12480TIP3    H158931   3.639   1.365   0.012  0.8143  0.9265 -2.6227
12480TIP3    H258932   3.574   1.469   0.101  1.5906 -0.6343 -0.1167
12481TIP3   OH258933   4.712   3.225   4.299  0.1687 -0.4055 -1.1160
12481TIP3    H158934   4.784   3.267   4.251  0.7090 -0.7917 -0.6590
12481TIP3    H258935   4.650   3.295   4.316  2.0859  0.7930  1.6391
12482TIP3   OH258936   3.336   5.538   4.155  0.9005 -0.0487 -0.1559
12482TIP3    H158937   3.316   5.449   4.185  0.6635 -0.1062 -0.4709
12482TIP3    H258938   3.317   5.594   4.230 -1.8148  0.0596 -0.8236
12483TIP3   OH258939   4.078   2.691  17.240 -0.6096  0.4769 -0.4986
12483TIP3    H158940   4.113   2.777  17.215 -1.5696  0.6539 -1.3226
12483TIP3    H258941   3.983   2.704  17.240 -0.7704 -0.6313 -0.8365
12484TIP3   OH258942   4.646   6.289   3.457  0.0257  0.2823  0.1744
12484TIP3    H158943   4.572   6.251   3.505  0.3171 -0.8721 -0.2764
12484TIP3    H258944   4.638   6.383   3.473  0.2679 -0.0697  2.6893
12485TIP3   OH258945   0.305   1.094   3.457 -0.0273 -0.5839  0.6528
12485TIP3    H158946   0.295   1.030   3.387 -0.1540 -0.1006  0.2244
12485TIP3    H258947   0.326   1.176   3.413  0.8572 -0.4788  1.2403
12486TIP3   OH258948   3.315   3.340  10.902  0.0981 -0.4582  0.0721
12486TIP3    H158949   3.383   3.375  10.844 -0.4425 -0.6450 -0.6891
12486TIP3    H258950   3.341   3.370  10.989  0.5444  0.4379 -0.3463
12487TIP3   OH258951   2.153   1.304   3.802  0.1522 -0.1135 -0.5331
12487TIP3    H158952   2.082   1.364   3.824  0.2124 -0.0693 -0.4580
12487TIP3    H258953   2.109   1.220   3.785  0.2663 -0.8506  2.2430
12488TIP3   OH258954   5.684   4.312  13.482 -0.3060  0.3075  0.1999
12488TIP3    H158955   5.655   4.401  13.458 -0.5962  0.9104  2.5137
12488TIP3    H258956   5.605   4.259  13.474 -0.0468  0.1273 -1.5670
12489TIP3   OH258957   5.865   6.485  12.531  0.4079  0.3987  0.3462
12489TIP3    H158958   5.809   6.516  12.602  0.1432 -3.2020  1.9137
12489TIP3    H258959   5.941   6.446  12.574  1.3824  0.1577 -1.4763
12490TIP3   OH258960   4.728   5.094  14.340  0.0173 -0.3926  0.5071
12490TIP3    H158961   4.657   5.092  14.404 -0.0594  3.3861  0.7807
12490TIP3    H258962   4.806   5.116  14.392  0.3068  0.8154 -0.3884
12491TIP3   OH258963   1.013   1.136  13.101  0.0145  0.0680 -0.1319
12491TIP3    H158964   0.929   1.177  13.120 -0.2629 -0.1908 -0.8020
12491TIP3    H258965   1.029   1.078  13.177 -0.2522  0.3596  0.1471
12492TIP3   OH258966   4.074   2.385   5.189 -0.1627 -0.4014 -0.5232
12492TIP3    H158967   4.005   2.348   5.134 -0.4024 -1.2963  0.3570
12492TIP3    H258968   4.150   2.330   5.172 -0.2786 -0.7722  0.1418
12493TIP3   OH258969   0.513   5.257   5.784  0.3824 -0.3677  0.3232
12493TIP3    H158970   0.501   5.317   5.857  1.4603  0.0698  0.1586
12493TIP3    H258971   0.534   5.173   5.825  2.3190  0.1778  0.5324
12494TIP3   OH258972   2.184   6.183   4.454  0.0845 -0.1395  0.5123
12494TIP3    H158973   2.213   6.115   4.392  0.4524  1.0470 -0.6663
12494TIP3    H258974   2.089   6.170   4.460 -0.1352  0.4189 -1.2132
12495TIP3   OH258975   0.972   0.034  15.955 -0.3635 -0.3422  0.3308
12495TIP3    H158976   1.024  -0.034  15.911 -0.5039 -0.2074 -0.0475
12495TIP3    H258977   1.035   0.103  15.975 -0.6693  0.5695 -1.6419
12496TIP3   OH258978   0.526   3.543  15.672  0.2302 -0.5565 -0.3597
12496TIP3    H158979   0.578   3.622  15.686 -1.4647  0.2214  2.1697
12496TIP3    H258980   0.480   3.559  15.589 -2.0718  2.4097  1.3174
12497TIP3   OH258981   5.278   0.257  14.974 -0.0784  0.5963  0.6734
12497TIP3    H158982   5.268   0.204  14.895  1.1255 -0.7143  1.3532
12497TIP3    H258983   5.358   0.308  14.960 -0.1883  0.8087  0.8065
12498TIP3   OH258984   1.439   0.018  12.001  0.6664  0.3797  0.7517
12498TIP3    H158985   1.429   0.035  11.907  0.0449  3.0370  1.1945
12498TIP3    H258986   1.425  -0.076  12.011 -1.5509  0.3566 -1.5592
12499TIP3   OH258987   2.385   1.109   3.800  1.3278 -0.5481  0.0864
12499TIP3    H158988   2.346   1.196   3.802  2.3748 -0.0434 -0.2296
12499TIP3    H258989   2.395   1.085   3.892 -1.9503 -1.7764  0.2139
12500TIP3   OH258990   2.546   0.285  10.400  0.4318 -0.5203 -0.2195
12500TIP3    H158991   2.527   0.379  10.407  0.5872 -0.5774  1.4167
12500TIP3    H258992   2.459   0.244  10.394  0.2518 -0.3727  1.0153
12501TIP3   OH258993   1.449   3.542   0.901 -0.0529 -0.1074 -0.1508
12501TIP3    H158994   1.519   3.480   0.919  2.1461  2.4843  0.9755
12501TIP3    H258995   1.379   3.518   0.962  2.0357  0.4218  2.6440
12502TIP3   OH258996   6.341   1.480   3.098 -0.4124  0.8633 -0.5290
12502TIP3    H158997   6.331   1.385   3.085 -2.7873  0.9701  0.0273
12502TIP3    H258998   6.359   1.489   3.192 -0.1131  0.9691 -0.5958
12503TIP3   OH258999   3.337   2.453  13.925 -0.4515  0.2711 -0.2805
12503TIP3    H159000   3.274   2.495  13.983 -0.8628 -0.2642 -0.3370
12503TIP3    H259001   3.285   2.424  13.850 -0.3231 -1.0842  0.1366
12504TIP3   OH259002   4.878   1.827  14.819  0.6290 -0.0424  0.3207
12504TIP3    H159003   4.839   1.880  14.749  0.1056  1.1371  1.4500
12504TIP3    H259004   4.827   1.746  14.819 -2.9094  1.8973  2.5324
12505TIP3   OH259005   2.365   2.887   4.366  0.5364 -0.6394  0.1133
12505TIP3    H159006   2.347   2.975   4.399 -0.3061 -0.6800 -0.1950
12505TIP3    H259007   2.336   2.829   4.436 -0.8459 -0.7135 -0.4859
12506TIP3   OH259008   1.723   4.203  16.727  0.3809  0.0956 -0.1846
12506TIP3    H159009   1.761   4.164  16.649  0.3549  0.0865 -0.1931
12506TIP3    H259010   1.798   4.226  16.782  0.4237  0.5228 -0.4133
12507TIP3   OH259011   2.871   1.960   3.612 -0.5110 -0.3226  0.6288
12507TIP3    H159012   2.892   2.052   3.629 -1.5601  0.0339  0.0601
12507TIP3    H259013   2.896   1.947   3.520  0.0323 -0.7329  0.8296
12508TIP3   OH259014   4.163   2.560  10.681  0.2245 -0.3186  0.0575
12508TIP3    H159015   4.123   2.600  10.603 -0.4633 -1.4773 -0.2020
12508TIP3    H259016   4.171   2.468  10.659  4.3341 -0.0133 -0.4196
12509TIP3   OH259017   0.036   1.393  13.340  0.2782  0.2292  0.0934
12509TIP3    H159018  -0.053   1.396  13.375  0.0141 -1.8372 -0.2554
12509TIP3    H259019   0.090   1.432  13.409 -0.7838  0.6790  0.7035
12510TIP3   OH259020   5.686   6.692  17.077  0.0880  0.4940 -0.1966
12510TIP3    H159021   5.695   6.627  17.007  0.3497  1.1802 -0.8159
12510TIP3    H259022   5.774   6.728  17.087  0.1574  0.0797  0.8236
12511TIP3   OH259023   0.478   6.804   5.812  0.3084 -0.1550 -0.7481
12511TIP3    H159024   0.500   6.742   5.882  0.5013 -1.0626 -1.6023
12511TIP3    H259025   0.562   6.826   5.772  0.2433  0.6808 -0.4431
12512TIP3   OH259026   1.149   4.517  15.762  0.1021 -0.4737  0.1405
12512TIP3    H159027   1.085   4.454  15.727 -0.9328  0.3008  0.5940
12512TIP3    H259028   1.116   4.602  15.734  0.9957 -0.0636  0.3124
12513TIP3   OH259029   1.085   6.205  13.558 -0.4083 -0.4207  0.0358
12513TIP3    H159030   1.122   6.259  13.628 -1.8615  1.2891 -0.4320
12513TIP3    H259031   1.134   6.231  13.479 -0.9434  0.0598 -0.1451
12514TIP3   OH259032   6.661   3.819   2.217  0.0979 -0.0835 -0.1810
12514TIP3    H159033   6.708   3.767   2.151 -0.5162  0.4513 -1.0556
12514TIP3    H259034   6.713   3.808   2.297  0.9386 -0.6284 -0.7810
12515TIP3   OH259035   5.317   5.471   5.507 -0.8267 -0.0662  0.5011
12515TIP3    H159036   5.389   5.446   5.565  2.2442  2.2594 -2.0083
12515TIP3    H259037   5.273   5.542   5.554 -0.0905 -0.0082  1.1228
12516TIP3   OH259038   4.656   6.161   5.005  0.3861 -0.3166 -0.2881
12516TIP3    H159039   4.583   6.121   4.957  0.9033 -0.9737 -0.5515
12516TIP3    H259040   4.732   6.146   4.948  0.4573  1.9165 -0.8567
12517TIP3   OH259041   1.502   4.321  16.413  0.2760  0.2913  0.2065
12517TIP3    H159042   1.435   4.258  16.441  2.1899 -1.4494  1.0984
12517TIP3    H259043   1.453   4.386  16.363 -2.1951 -0.5056  1.3887
12518TIP3   OH259044   6.135   1.651   0.105 -0.1306  0.3699 -0.0942
12518TIP3    H159045   6.208   1.606   0.148  0.0982  0.5272 -0.3116
12518TIP3    H259046   6.175   1.729   0.067 -0.5361  0.7977  0.3383
12519TIP3   OH259047   4.825   5.550   1.836 -0.1623  0.0860 -0.1007
12519TIP3    H159048   4.841   5.483   1.769  2.7070  0.8478 -0.2952
12519TIP3    H259049   4.804   5.629   1.787  2.9224  0.9079 -0.3287
12520TIP3   OH259050   0.814   5.674  16.204 -0.0460 -0.0380  0.6068
12520TIP3    H159051   0.766   5.678  16.121  0.8075 -1.7556 -0.0139
12520TIP3    H259052   0.859   5.590  16.202  1.6042  0.7576  1.9463
12521TIP3   OH259053   5.460   2.921  15.123 -0.0030 -0.0180  0.0245
12521TIP3    H159054   5.395   2.982  15.088 -1.8467 -2.5983 -1.3135
12521TIP3    H259055   5.490   2.871  15.048  0.4633 -1.6536  1.2400
12522TIP3   OH259056   6.126   4.878   4.872 -0.1133  0.0819 -0.4924
12522TIP3    H159057   6.084   4.964   4.862 -1.5803 -0.5856 -0.3230
12522TIP3    H259058   6.109   4.854   4.963  1.2691  0.0837 -0.2112
12523TIP3   OH259059   5.783   0.440  11.694 -0.4506 -0.3447  0.0821
12523TIP3    H159060   5.787   0.347  11.717 -0.0001 -0.2743  0.2953
12523TIP3    H259061   5.870   0.474  11.716 -0.9015  0.3312  0.8837
12524TIP3   OH259062   3.062   0.069  15.321 -0.0513 -0.2492 -0.1387
12524TIP3    H159063   3.118   0.088  15.397 -0.5326 -0.4007  0.2537
12524TIP3    H259064   3.098  -0.012  15.284  2.0095  1.2890 -1.8086
12525TIP3   OH259065   1.224   4.194  12.464  0.1339 -0.5038 -0.3687
12525TIP3    H159066   1.285   4.133  12.505  2.9738  1.2765 -1.6355
12525TIP3    H259067   1.199   4.151  12.382  1.1528 -0.5251 -0.6856
12526TIP3   OH259068   5.793   4.834  15.497  0.1193  0.5283  0.2282
12526TIP3    H159069   5.778   4.817  15.404 -3.3681  0.2298  0.7089
12526TIP3    H259070   5.830   4.922  15.500  1.3480  0.1123 -1.4652
12527TIP3   OH259071   1.719   3.871  13.398  0.1211 -0.4134  0.1566
12527TIP3    H159072   1.704   3.846  13.489 -1.8827 -0.8482 -0.2470
12527TIP3    H259073   1.686   3.797  13.347 -0.2987  0.5012 -0.9447
12528TIP3   OH259074   3.338   6.765  12.447  0.2349  0.2021 -0.5686
12528TIP3    H159075   3.375   6.757  12.359 -2.1943 -0.9243 -1.5856
12528TIP3    H259076   3.335   6.675  12.479 -0.7475  0.3600 -0.1803
12529TIP3   OH259077   1.864   5.677  14.971  0.2830  0.1725 -0.1553
12529TIP3    H159078   1.775   5.650  14.997  0.0901  1.1398  0.2399
12529TIP3    H259079   1.899   5.601  14.925 -0.8483 -0.1378 -0.5526
12530TIP3   OH259080   1.277   4.620  17.068 -0.2384  0.0797 -0.2958
12530TIP3    H159081   1.339   4.601  16.997 -0.9924 -1.7103 -0.5471
12530TIP3    H259082   1.247   4.533  17.097 -0.7674  0.8143  1.4919
12531TIP3   OH259083   2.282   1.508  12.653 -0.1083  0.2827  0.4947
12531TIP3    H159084   2.203   1.459  12.628  0.9954 -1.2589 -0.1368
12531TIP3    H259085   2.329   1.520  12.570 -0.7450  3.3299  0.4389
12532TIP3   OH259086   4.306   4.764  10.511  0.3650 -0.3842  0.5082
12532TIP3    H159087   4.385   4.813  10.487  0.8042 -1.3822 -0.1472
12532TIP3    H259088   4.323   4.734  10.600  0.7597 -0.6280  0.3578
12533TIP3   OH259089   3.540   2.113  14.085 -0.0784  0.0937  0.1196
12533TIP3    H159090   3.604   2.144  14.149  0.0062 -1.8973  1.0853
12533TIP3    H259091   3.590   2.095  14.006  0.1546  0.7158  0.1240
12534TIP3   OH259092   1.343   0.530   1.251  0.3645 -0.3950 -0.0532
12534TIP3    H159093   1.330   0.601   1.314  0.8833 -0.4535  0.1287
12534TIP3    H259094   1.263   0.478   1.256 -0.5756  0.8872 -1.1240
12535TIP3   OH259095   2.216   5.805   2.912 -0.0770 -0.3713 -0.3012
12535TIP3    H159096   2.193   5.719   2.947 -2.6377 -0.8398 -2.7197
12535TIP3    H259097   2.215   5.793   2.817  0.1689  2.1929 -0.7015
12536TIP3   OH259098   2.770   2.833   2.226 -0.2112 -0.2730  0.7653
12536TIP3    H159099   2.762   2.926   2.247 -1.4811 -0.3444  0.6755
12536TIP3    H259100   2.857   2.809   2.258  0.6047  1.1991 -0.2323
12537TIP3   OH259101   6.174   5.611  17.177 -0.8168  0.2627  0.2934
12537TIP3    H159102   6.198   5.703  17.165 -3.2623  0.7810 -1.2787
12537TIP3    H259103   6.147   5.581  17.090 -1.0561 -1.6374  0.9705
12538TIP3   OH259104   3.993   1.164  15.198  0.0144 -0.0925  0.1460
12538TIP3    H159105   4.070   1.115  15.171 -0.2719  0.1111 -1.0806
12538TIP3    H259106   3.986   1.236  15.135 -1.1780 -0.1049  0.2346
12539TIP3   OH259107   0.977   3.214  16.452  0.2977  0.0859 -0.1014
12539TIP3    H159108   0.978   3.140  16.512 -2.6989 -1.0272 -1.2760
12539TIP3    H259109   1.070   3.231  16.433  1.1139 -2.4096  1.2893
12540TIP3   OH259110   6.544   0.367  14.269 -0.0220  0.4532  0.1121
12540TIP3    H159111   6.483   0.359  14.342 -1.5179  2.9107 -0.7429
12540TIP3    H259112   6.561   0.461  14.262  1.3103  0.1346 -1.7486
12541TIP3   OH259113   6.337   5.660  12.277 -0.3281  0.2766 -0.1642
12541TIP3    H159114   6.414   5.714  12.258  0.8900 -1.0479  0.7792
12541TIP3    H259115   6.310   5.688  12.365  0.8471 -1.1710  0.7082
12542TIP3   OH259116   0.788   3.613  11.897 -0.1103 -0.7322  0.0779
12542TIP3    H159117   0.777   3.531  11.849  0.6583  0.5029 -2.3825
12542TIP3    H259118   0.880   3.615  11.923 -0.6299 -1.6248  2.1930
12543TIP3   OH259119   5.503   5.716   4.292  0.7730  0.4753 -0.6717
12543TIP3    H159120   5.572   5.770   4.252  0.6373  1.2784  0.1365
12543TIP3    H259121   5.430   5.777   4.306  0.7362  0.1827  0.5684
12544TIP3   OH259122   5.119   5.361   3.013  0.2834 -0.7879  0.0191
12544TIP3    H159123   5.199   5.414   3.011  0.3892 -0.9654 -0.7034
12544TIP3    H259124   5.142   5.280   2.967 -0.2843 -0.8815 -0.1095
12545TIP3   OH259125   2.531   1.897   3.093  0.7728  0.1462 -0.1791
12545TIP3    H159126   2.499   1.985   3.112  2.2403  0.6981 -0.1477
12545TIP3    H259127   2.455   1.851   3.056  0.8415  2.5110 -3.7349
12546TIP3   OH259128   6.036   1.771  16.539 -0.3485 -0.0166  0.1519
12546TIP3    H159129   6.063   1.774  16.631  1.4284 -0.6566 -0.3082
12546TIP3    H259130   6.116   1.787  16.490 -1.0342 -0.8283 -1.3000
12547TIP3   OH259131   1.842   2.660  11.489  0.0884  0.2612  0.2360
12547TIP3    H159132   1.890   2.635  11.568 -0.9354 -0.0657  0.7618
12547TIP3    H259133   1.783   2.587  11.472 -1.1022  1.1841  0.3100
12548TIP3   OH259134   4.440   2.369   2.432 -0.0260 -0.1700 -0.0952
12548TIP3    H159135   4.403   2.301   2.487  0.0604  0.7586  1.1416
12548TIP3    H259136   4.503   2.415   2.488 -1.1476  1.8858 -0.3920
12549TIP3   OH259137   3.722   1.657  13.936 -0.0544 -0.0531  0.2414
12549TIP3    H159138   3.639   1.703  13.944 -0.3118 -0.2894 -0.8101
12549TIP3    H259139   3.719   1.619  13.848  1.1389 -0.1102  0.2080
12550TIP3   OH259140   4.345   4.308   3.409  0.2009 -0.1193 -0.2421
12550TIP3    H159141   4.265   4.277   3.366  0.6389 -1.4418 -0.1417
12550TIP3    H259142   4.416   4.273   3.356  0.7476  1.7259 -0.7985
12551TIP3   OH259143   6.271   4.321   3.993  0.1677 -0.2402 -0.4799
12551TIP3    H159144   6.216   4.318   4.072  1.4817  1.2375  0.5487
12551TIP3    H259145   6.301   4.231   3.982  0.9796 -0.2692  1.4976
12552TIP3   OH259146   4.797   2.012   2.173  0.3642 -0.1155  0.3801
12552TIP3    H159147   4.742   1.959   2.116  1.6519 -0.9351 -0.1371
12552TIP3    H259148   4.752   2.097   2.178  0.0156 -0.1547 -1.5170
12553TIP3   OH259149   4.211   0.837   2.598 -0.4921  0.1873  0.4334
12553TIP3    H159150   4.253   0.921   2.579  0.4476 -0.6132 -1.2096
12553TIP3    H259151   4.237   0.816   2.688 -1.0999  1.8263  1.0359
12554TIP3   OH259152   4.618   2.093  16.571 -0.0063 -0.1696 -0.2167
12554TIP3    H159153   4.686   2.026  16.561 -0.7633 -0.8214 -1.1918
12554TIP3    H259154   4.563   2.063  16.643 -0.4990 -0.7445 -0.8250
12555TIP3   OH259155   6.403   2.902   1.741 -0.0960  0.0752 -0.7058
12555TIP3    H159156   6.406   2.822   1.689  1.4694 -0.6634  0.4060
12555TIP3    H259157   6.481   2.952   1.714  1.3156 -0.7686  1.4619
12556TIP3   OH259158   6.161   6.437  15.391  0.3191  0.0250  0.5202
12556TIP3    H159159   6.141   6.396  15.475 -1.2432  1.9526  1.1461
12556TIP3    H259160   6.120   6.523  15.395  1.2565  0.6636 -1.7569
12557TIP3   OH259161   4.832   1.802  12.916  0.5264 -0.1859 -0.0992
12557TIP3    H159162   4.764   1.750  12.874 -3.2073  1.0388  3.6997
12557TIP3    H259163   4.856   1.752  12.994 -1.4312  2.3862  2.3763
12558TIP3   OH259164   6.096   3.334   1.906 -0.0956 -0.2830 -0.6724
12558TIP3    H159165   6.121   3.244   1.924 -0.1978 -0.1597  0.1112
12558TIP3    H259166   6.049   3.329   1.823  1.3496 -0.6954 -1.5005
12559TIP3   OH259167   2.599   6.454  15.064  0.0534  0.0657 -0.3329
12559TIP3    H159168   2.541   6.405  15.005 -0.3965  0.3379 -0.1198
12559TIP3    H259169   2.541   6.516  15.108  0.2027 -0.7449  1.0685
12560TIP3   OH259170   5.485   5.327   6.321  0.1385  0.7272  0.1441
12560TIP3    H159171   5.516   5.285   6.401 -0.8140  0.0443  0.1761
12560TIP3    H259172   5.512   5.418   6.329 -0.4240  0.7963  1.5133
12561TIP3   OH259173   5.142   0.960   2.164 -0.0671  0.3968  0.3629
12561TIP3    H159174   5.068   0.945   2.106  0.8059  0.5025 -0.8179
12561TIP3    H259175   5.148   1.055   2.172  1.0973  0.4769 -1.1295
12562TIP3   OH259176   4.599   1.184   2.769 -0.8908 -0.6678 -0.5571
12562TIP3    H159177   4.541   1.261   2.763 -1.0802 -0.8208 -0.7124
12562TIP3    H259178   4.654   1.189   2.691  0.4704  0.4023  0.4254
12563TIP3   OH259179   6.774   4.813  13.648  0.0596  0.5782  0.4810
12563TIP3    H159180   6.679   4.802  13.635  0.0102  0.6517  0.7758
12563TIP3    H259181   6.810   4.814  13.559 -0.0621 -0.7066  0.3944
12564TIP3   OH259182   2.224   4.863   1.810  0.1132 -0.2498  0.1347
12564TIP3    H159183   2.264   4.921   1.875  1.7611  1.7496 -2.5062
12564TIP3    H259184   2.296   4.836   1.754 -1.6269  0.6084 -2.6948
12565TIP3   OH259185   4.057   1.090  16.038 -0.0596  0.2251 -0.5011
12565TIP3    H159186   4.136   1.045  16.068  0.2155  0.3064 -1.1035
12565TIP3    H259187   4.081   1.128  15.954 -0.4168  1.1500 -0.1945
12566TIP3   OH259188   1.378   0.982   2.200 -0.3921 -0.3728 -0.4033
12566TIP3    H159189   1.431   0.941   2.268 -1.0388 -1.1661 -0.3635
12566TIP3    H259190   1.289   0.952   2.217 -0.6982  0.1033 -1.0931
12567TIP3   OH259191   5.945   0.524  16.460  0.4593 -0.6669  0.2020
12567TIP3    H159192   6.033   0.542  16.426  0.3397  1.9055  0.9850
12567TIP3    H259193   5.898   0.484  16.387  1.6274  0.0939 -1.0036
12568TIP3   OH259194   1.542   5.381  11.474 -0.7645 -0.1237 -0.4164
12568TIP3    H159195   1.528   5.443  11.402 -1.3475 -0.0195 -0.2185
12568TIP3    H259196   1.457   5.340  11.487 -0.5922 -0.3425  0.0341
12569TIP3   OH259197   5.834   4.236  10.831  0.1779  0.1203  0.4197
12569TIP3    H159198   5.854   4.144  10.816  2.5251  0.4718  1.1191
12569TIP3    H259199   5.773   4.235  10.906 -1.8770 -0.9249 -1.1544
12570TIP3   OH259200   2.109   3.530   4.510  0.4185  0.2931  0.0098
12570TIP3    H159201   2.078   3.609   4.465  0.8728  0.6672  0.3423
12570TIP3    H259202   2.079   3.458   4.455  1.2441  0.7570 -1.0722
12571TIP3   OH259203   3.961   4.629  14.511 -0.4788 -0.2610  0.3154
12571TIP3    H159204   3.888   4.576  14.545  0.0850  0.1469  2.3142
12571TIP3    H259205   3.920   4.687  14.447 -1.5420 -1.4172 -0.1037
12572TIP3   OH259206   1.879   4.203   1.562  0.2361  0.3319  0.1602
12572TIP3    H159207   1.792   4.218   1.600 -0.1094 -0.7368 -0.1736
12572TIP3    H259208   1.938   4.199   1.637 -0.1889 -0.1090  0.4772
12573TIP3   OH259209   5.362   2.616  15.019  0.4904 -0.2356  0.2628
12573TIP3    H159210   5.404   2.625  14.933  1.4951 -2.0234  0.5195
12573TIP3    H259211   5.433   2.590  15.078 -0.4114 -0.2229  1.3881
12574TIP3   OH259212   3.166   3.905  15.367  0.0624  0.2766  0.6476
12574TIP3    H159213   3.095   3.956  15.407 -0.3089 -0.7241  1.3110
12574TIP3    H259214   3.239   3.915  15.427  0.0850  0.2862  0.6176
12575TIP3   OH259215   5.248   3.167  16.344 -0.3285 -0.9091 -1.0689
12575TIP3    H159216   5.221   3.086  16.388 -2.1523  0.1543 -0.1521
12575TIP3    H259217   5.342   3.155  16.330  0.0242 -2.0585  1.5816
12576TIP3   OH259218   1.148   4.781  13.922 -0.4331 -1.0268 -0.4357
12576TIP3    H159219   1.089   4.706  13.916 -2.2189  0.3977 -2.2361
12576TIP3    H259220   1.110   4.836  13.990 -0.0819 -0.9822 -0.2752
12577TIP3   OH259221   2.665   6.284   2.227  0.5920 -0.4357 -0.9602
12577TIP3    H159222   2.600   6.220   2.253  0.9303 -0.9075 -1.2558
12577TIP3    H259223   2.622   6.337   2.160 -0.4607  1.1089  0.8375
12578TIP3   OH259224   2.066   4.890  14.571  0.2274 -0.1430 -0.0839
12578TIP3    H159225   1.974   4.865  14.563 -0.1553  1.2633 -0.3012
12578TIP3    H259226   2.073   4.930  14.658  0.9198 -1.2984  0.4199
12579TIP3   OH259227   4.778   5.170  12.172 -0.5263 -0.1396  0.2606
12579TIP3    H159228   4.751   5.256  12.140 -0.3934  0.8780  2.6715
12579TIP3    H259229   4.698   5.118  12.172 -0.8623  0.3655 -0.0198
12580TIP3   OH259230   0.694   3.184   2.825  0.1729 -0.3059  0.0534
12580TIP3    H159231   0.633   3.113   2.806  0.9413 -0.6528 -1.2060
12580TIP3    H259232   0.721   3.168   2.916 -1.0591 -0.5336  0.4039
12581TIP3   OH259233   3.854   4.445   2.129 -0.1870 -0.0565  0.2835
12581TIP3    H159234   3.830   4.461   2.037 -2.6098  1.4184  1.0903
12581TIP3    H259235   3.928   4.504   2.144  1.9224 -2.1131 -1.3056
12582TIP3   OH259236   1.175   3.858  14.069 -0.0889  0.5188  0.4795
12582TIP3    H159237   1.220   3.775  14.086  1.0161  0.8229 -0.7909
12582TIP3    H259238   1.245   3.918  14.044 -1.2056  0.8573 -2.1630
12583TIP3   OH259239   3.388   0.512   1.826 -0.3149  0.1910  0.1037
12583TIP3    H159240   3.408   0.606   1.820 -2.6779  0.7195 -0.8363
12583TIP3    H259241   3.435   0.473   1.752  0.2352  0.7175  0.1608
12584TIP3   OH259242   5.474   2.109  16.794 -0.7838  0.4115  0.7129
12584TIP3    H159243   5.388   2.083  16.827 -0.0326 -1.2181  1.4987
12584TIP3    H259244   5.519   2.142  16.871  0.7061 -2.6636  1.3097
12585TIP3   OH259245   2.864   1.409  13.505  0.2723  1.0524  0.2858
12585TIP3    H159246   2.870   1.352  13.428  0.6444  1.5020 -0.0293
12585TIP3    H259247   2.954   1.411  13.539 -0.1699 -0.3565  1.6418
12586TIP3   OH259248   2.270   1.449  13.534 -0.2934  0.0247 -0.5029
12586TIP3    H159249   2.259   1.451  13.629  1.4406  0.8854 -0.2856
12586TIP3    H259250   2.254   1.539  13.506 -0.2257 -0.1015 -0.9509
12587TIP3   OH259251   5.385   1.414   4.367 -0.0382  0.2053  0.4347
12587TIP3    H159252   5.418   1.490   4.318  4.5141  0.7960  3.7730
12587TIP3    H259253   5.335   1.452   4.439  0.6355 -0.0365  1.0412
12588TIP3   OH259254   4.763   6.818   0.852 -0.2654  0.1356  0.5863
12588TIP3    H159255   4.845   6.788   0.892 -0.8145 -1.8751  0.3253
12588TIP3    H259256   4.699   6.813   0.922 -1.0550 -2.6142 -0.2028
12589TIP3   OH259257   6.286   3.026  17.054  0.3503  0.0975  0.7951
12589TIP3    H159258   6.310   3.113  17.088 -0.4271  0.2262  1.0351
12589TIP3    H259259   6.191   3.022  17.064  0.4621 -1.1214  1.6007
12590TIP3   OH259260   3.017   6.198  11.197 -0.5100 -0.2388  0.6449
12590TIP3    H159261   3.029   6.250  11.118  0.3182  1.3803  1.7904
12590TIP3    H259262   3.104   6.191  11.236 -0.9954 -0.4963  1.7369
12591TIP3   OH259263   2.825   5.550  11.526 -0.5067  0.1953  0.2753
12591TIP3    H159264   2.859   5.528  11.612 -1.7456  1.2253  1.0566
12591TIP3    H259265   2.790   5.468  11.492 -1.6227  0.1396  1.5126
12592TIP3   OH259266   5.871   4.986  14.966 -0.5269 -0.0788 -0.3411
12592TIP3    H159267   5.812   4.953  14.898 -0.0242  0.0813 -0.8632
12592TIP3    H259268   5.933   4.914  14.981  2.1914  1.4016 -3.3342
12593TIP3   OH259269   4.932   1.447  12.846 -0.5182 -0.5314 -0.0156
12593TIP3    H159270   5.019   1.487  12.842 -0.6365 -0.2157  0.5079
12593TIP3    H259271   4.891   1.469  12.762 -0.2502 -0.3165 -0.0899
12594TIP3   OH259272   0.754   0.496  14.848 -0.2914 -0.2700  0.1000
12594TIP3    H159273   0.721   0.580  14.880  1.0303  0.4599 -0.3954
12594TIP3    H259274   0.830   0.518  14.795  0.0155 -1.7787 -0.1392
12595TIP3   OH259275   1.814   4.385  13.140 -0.0619  0.2870  0.0876
12595TIP3    H159276   1.741   4.443  13.164 -0.7952 -1.1034  1.3835
12595TIP3    H259277   1.847   4.421  13.058 -1.6023  1.5071 -0.0490
12596TIP3   OH259278   2.291   0.514   5.346 -0.6332 -0.0349 -0.0641
12596TIP3    H159279   2.386   0.509   5.331 -0.5469 -0.7851  0.6569
12596TIP3    H259280   2.252   0.493   5.261 -0.1591 -1.8531  0.1332
12597TIP3   OH259281   1.005   6.002  14.079 -0.5660  0.3222  0.1132
12597TIP3    H159282   1.067   5.933  14.054  0.7546  1.6559 -0.4594
12597TIP3    H259283   0.993   6.054  14.000 -0.3223  1.6272  0.9007
12598TIP3   OH259284   0.114   5.015   6.493  0.6665 -0.6682  0.0175
12598TIP3    H159285   0.139   5.034   6.403  0.3178 -1.2328 -0.2067
12598TIP3    H259286   0.147   5.089   6.544 -0.3420  0.3446 -0.7578
12599TIP3   OH259287   0.139   4.532   5.842 -0.3395  0.6447  0.0711
12599TIP3    H159288   0.188   4.489   5.911 -1.9881 -0.2845  0.7347
12599TIP3    H259289   0.205   4.574   5.788  1.1507 -0.4574  0.9551
12600TIP3   OH259290   5.807   4.932   3.784  0.6176 -0.2138 -0.1414
12600TIP3    H159291   5.722   4.946   3.825  0.1815 -0.5525 -0.8970
12600TIP3    H259292   5.830   5.018   3.747  0.4397 -0.2012 -0.2253
12601TIP3   OH259293   0.844   5.170   4.321  0.1751 -0.2406  0.5227
12601TIP3    H159294   0.917   5.174   4.383 -1.3392  0.7819  2.3734
12601TIP3    H259295   0.795   5.092   4.347  0.2333 -0.5466 -0.2696
12602TIP3   OH259296   1.560   5.617   5.642 -0.3758 -0.0194 -0.2862
12602TIP3    H159297   1.482   5.602   5.696  0.1299  0.9630  0.7733
12602TIP3    H259298   1.575   5.534   5.598 -1.2182 -0.6544  0.5736
12603TIP3   OH259299   4.875   5.167  16.100 -0.3846 -0.5426  0.5976
12603TIP3    H159300   4.880   5.145  16.007 -0.3390  0.1367  0.4340
12603TIP3    H259301   4.920   5.096  16.144 -1.0161 -1.2297  0.1571
12604TIP3   OH259302   6.745   3.109  12.308 -0.5653  0.2273 -0.0178
12604TIP3    H159303   6.805   3.038  12.331 -1.3739 -0.2945  0.5396
12604TIP3    H259304   6.800   3.187  12.304  0.2183 -0.3107  0.0618
12605TIP3   OH259305   4.516   6.795   1.000  0.2046  0.3140 -0.0324
12605TIP3    H159306   4.468   6.743   0.935 -0.4893  0.5002  0.3269
12605TIP3    H259307   4.538   6.732   1.069  0.6595  0.1872 -0.2835
12606TIP3   OH259308   5.017   4.645   5.406  0.0972 -0.1206  0.4862
12606TIP3    H159309   5.041   4.607   5.491 -0.2660  2.0895  1.6541
12606TIP3    H259310   5.088   4.707   5.387  0.2290 -0.6647 -0.9153
12607TIP3   OH259311   5.690   0.091  13.643  0.2492 -0.4787  0.0844
12607TIP3    H159312   5.602   0.108  13.611  0.5577  0.3232 -0.3843
12607TIP3    H259313   5.713   0.005  13.605  0.0629 -0.2038 -0.6793
12608TIP3   OH259314   6.700   2.777  16.466 -0.2236  0.2980  0.2808
12608TIP3    H159315   6.659   2.716  16.404 -0.8712  0.3536  0.6491
12608TIP3    H259316   6.691   2.863  16.425  2.1573  0.0124 -1.0300
12609TIP3   OH259317   3.222   3.840   1.878  0.4307 -0.4810 -0.5762
12609TIP3    H159318   3.191   3.789   1.954  0.7459 -0.3547 -0.3603
12609TIP3    H259319   3.142   3.864   1.832  0.2689 -1.0656 -0.6115
12610TIP3   OH259320   4.777   1.388  10.954  0.2980  1.0935 -0.1150
12610TIP3    H159321   4.822   1.373  10.871  0.7859 -0.3503  0.3875
12610TIP3    H259322   4.687   1.409  10.929 -0.0141 -1.0344 -0.9885
12611TIP3   OH259323   4.111   3.870   2.644 -0.4215  0.8653 -0.1152
12611TIP3    H159324   4.179   3.857   2.710 -0.8680  2.0057  0.6096
12611TIP3    H259325   4.139   3.817   2.570  1.2989  1.3848  0.1230
12612TIP3   OH259326   2.527   2.491   1.371  0.1434  0.6728  0.2946
12612TIP3    H159327   2.522   2.453   1.284 -1.1276  1.2278  0.0970
12612TIP3    H259328   2.537   2.416   1.430 -0.3976  0.1797 -0.2329
12613TIP3   OH259329   5.740   1.568  16.670 -0.4242 -0.8757 -0.3464
12613TIP3    H159330   5.804   1.573  16.741 -0.1195 -2.6005 -0.4560
12613TIP3    H259331   5.757   1.484  16.628 -0.7276  0.0151 -2.3683
12614TIP3   OH259332   1.974   4.471   1.926 -0.0789  0.3251 -0.2067
12614TIP3    H159333   2.059   4.496   1.962  0.2013  0.1129 -0.7087
12614TIP3    H259334   1.923   4.441   2.002  0.7755 -0.8768 -0.0821
12615TIP3   OH259335   2.188   4.238   3.197  0.4200 -0.1183 -0.0093
12615TIP3    H159336   2.282   4.228   3.182  0.1271 -1.0030 -1.4300
12615TIP3    H259337   2.166   4.321   3.155  0.7037  0.5444  1.1132
12616TIP3   OH259338   2.805   4.543  15.122 -0.6006  0.6678 -0.6961
12616TIP3    H159339   2.747   4.562  15.196 -0.5147  0.6944 -0.6349
12616TIP3    H259340   2.883   4.505  15.162 -0.3428  1.1541 -0.7274
12617TIP3   OH259341   6.805   0.766  15.718 -0.0706 -0.7526  0.4338
12617TIP3    H159342   6.898   0.748  15.701 -0.4312 -1.9457 -0.4373
12617TIP3    H259343   6.805   0.851  15.760  1.2850  0.3723 -1.6445
12618TIP3   OH259344   1.993   1.306   2.492 -0.1592  0.3405  0.1760
12618TIP3    H159345   1.936   1.239   2.530  0.1106 -0.7480 -1.2532
12618TIP3    H259346   1.971   1.307   2.399  0.1690  1.9374  0.0824
12619TIP3   OH259347   2.682   2.989   4.873 -0.8422 -0.4115 -0.3219
12619TIP3    H159348   2.765   2.947   4.894  0.0863  1.0523 -0.8913
12619TIP3    H259349   2.647   2.939   4.799  1.1464  0.8112 -2.2269
12620TIP3   OH259350   2.422   5.679  15.150 -0.1383 -0.7422 -0.3016
12620TIP3    H159351   2.372   5.693  15.231 -2.2066  0.5581 -1.6934
12620TIP3    H259352   2.455   5.590  15.157 -1.5643 -1.2031  1.2890
12621TIP3   OH259353   0.260   4.348  12.976 -0.1287 -0.1510 -0.1586
12621TIP3    H159354   0.349   4.314  12.981 -0.3915 -0.7546  0.8707
12621TIP3    H259355   0.259   4.422  13.036 -0.3444 -0.2156 -0.0803
12622TIP3   OH259356   6.408   4.205   0.020  0.4147  0.5690 -0.0110
12622TIP3    H159357   6.436   4.174   0.106  1.7123 -1.4198 -1.0728
12622TIP3    H259358   6.319   4.238   0.035 -0.4940 -2.2129  1.6442
12623TIP3   OH259359   2.599   3.088  13.119 -0.4755  0.6676 -0.0446
12623TIP3    H159360   2.627   2.997  13.131  2.6121  1.6898  1.6845
12623TIP3    H259361   2.658   3.122  13.052 -0.2770  1.8617  0.7076
12624TIP3   OH259362   3.510   3.039   0.850  0.3440 -0.4258 -0.9436
12624TIP3    H159363   3.450   3.011   0.919 -0.4277  1.3404 -0.8236
12624TIP3    H259364   3.594   3.049   0.893 -0.6537  3.2070  0.5192
12625TIP3   OH259365   1.680   5.614  16.633 -0.1444  0.2943 -0.3519
12625TIP3    H159366   1.716   5.703  16.627 -1.3517  0.9191  0.9693
12625TIP3    H259367   1.737   5.569  16.695  1.2193 -0.3052 -1.9477
12626TIP3   OH259368   0.423   6.529  11.997 -0.0977 -0.5314  0.0776
12626TIP3    H159369   0.503   6.563  12.038  0.6643 -0.9939 -0.9701
12626TIP3    H259370   0.415   6.440  12.030  0.1877 -0.7036 -0.3073
12627TIP3   OH259371   0.667   6.068  11.681 -0.4263 -0.0221  0.0550
12627TIP3    H159372   0.588   6.015  11.672 -0.5992  0.3254 -0.5290
12627TIP3    H259373   0.640   6.147  11.726 -0.5718  0.4150 -0.7712
12628TIP3   OH259374   0.048   5.074  15.022  0.3098 -0.1054  0.5217
12628TIP3    H159375   0.060   5.161  14.983 -0.2093 -0.2977 -0.0703
12628TIP3    H259376   0.131   5.057  15.067 -0.5886  1.9673  3.1956
12629TIP3   OH259377   0.902   0.250   2.173  0.5372 -0.2311  0.4339
12629TIP3    H159378   0.863   0.338   2.177 -1.2509 -0.7935 -1.9074
12629TIP3    H259379   0.959   0.253   2.096  2.7344 -0.3740  1.9807
12630TIP3   OH259380   0.113   4.862  15.639 -0.2706  0.0985  0.1303
12630TIP3    H159381   0.192   4.827  15.597  0.1342  0.7887  0.3031
12630TIP3    H259382   0.041   4.812  15.600  0.2393 -0.4787 -0.0944
12631TIP3   OH259383   0.271   1.339  15.948  0.6977 -0.6021 -0.6114
12631TIP3    H159384   0.188   1.333  15.901  0.2220  1.4181 -0.0870
12631TIP3    H259385   0.336   1.350  15.878  0.0802  1.5825 -0.9111
12632TIP3   OH259386   0.145   6.287  13.113  0.4859 -0.7849  0.5176
12632TIP3    H159387   0.074   6.348  13.094  1.4971  0.3631  0.3457
12632TIP3    H259388   0.132   6.215  13.051 -2.2728 -2.1365  2.4335
12633TIP3   OH259389   1.437   3.111  16.324  0.3660 -0.0803 -0.0617
12633TIP3    H159390   1.385   3.031  16.316  1.8081 -1.0097 -0.4646
12633TIP3    H259391   1.489   3.098  16.403  0.7472  0.3815 -0.2305
12634TIP3   OH259392   1.828   2.034  12.435  0.0185  0.3031 -0.5672
12634TIP3    H159393   1.755   2.085  12.401  0.0991  0.4400 -0.5344
12634TIP3    H259394   1.809   1.944  12.408 -1.6705 -0.1834  1.8676
12635TIP3   OH259395   4.722   4.875  14.174 -0.0730  0.0686 -0.3219
12635TIP3    H159396   4.732   4.953  14.229 -0.2255 -0.7814  0.9737
12635TIP3    H259397   4.726   4.908  14.085  0.1880  1.5174  0.1884
12636TIP3   OH259398   3.298   0.326  16.316 -0.3719  0.2850  0.2699
12636TIP3    H159399   3.358   0.334  16.241  0.6652 -0.6258  0.9542
12636TIP3    H259400   3.317   0.403  16.370 -0.3484  0.3876  0.1169
12637TIP3   OH259401   5.741   1.640   1.004  0.4732 -0.5264 -0.4406
12637TIP3    H159402   5.824   1.675   1.036 -0.5463  0.8020  0.9255
12637TIP3    H259403   5.766   1.565   0.950  2.4731 -1.1516  1.2040
12638TIP3   OH259404   0.528   4.132   5.424  0.4306 -0.1254  0.1197
12638TIP3    H159405   0.578   4.208   5.396 -0.7349  0.2343 -1.0852
12638TIP3    H259406   0.529   4.136   5.520 -0.0436  1.6880  0.0701
12639TIP3   OH259407   5.369   4.977  14.509  0.1771  0.3538  0.3683
12639TIP3    H159408   5.278   4.948  14.505  1.0444 -2.5866 -1.9012
12639TIP3    H259409   5.415   4.908  14.557  1.0347  2.8556  3.5317
12640TIP3   OH259410   1.962   2.903   4.779  0.1660  0.0278 -0.3727
12640TIP3    H159411   1.882   2.901   4.831  0.0173  3.8568 -0.1331
12640TIP3    H259412   1.937   2.862   4.696 -1.1960 -1.2529  0.6150
12641TIP3   OH259413   4.534   1.543   0.228 -0.2165 -0.4905  0.3879
12641TIP3    H159414   4.613   1.554   0.280 -0.4928 -0.6183  0.8491
12641TIP3    H259415   4.491   1.466   0.266 -0.7847 -0.1532  0.4422
12642TIP3   OH259416   1.477   4.831  11.148 -0.0411 -0.1811  0.8669
12642TIP3    H159417   1.488   4.890  11.074 -1.2032  0.0575  0.8689
12642TIP3    H259418   1.494   4.744  11.113 -1.7754 -0.2050  0.0123
12643TIP3   OH259419   0.368   1.796   4.017 -0.2626 -0.2153 -0.1847
12643TIP3    H159420   0.296   1.855   3.995  0.0928  0.2492 -0.1217
12643TIP3    H259421   0.400   1.764   3.932  0.0988  0.3570 -0.2694
12644TIP3   OH259422   1.336   6.239   1.978 -0.5008  0.3866  0.1898
12644TIP3    H159423   1.351   6.328   2.011 -0.3144  1.4703 -2.5038
12644TIP3    H259424   1.423   6.209   1.953 -0.2539 -1.4301  2.8158
12645TIP3   OH259425   4.831   4.511   2.314  0.1617 -0.5247  0.6226
12645TIP3    H159426   4.897   4.560   2.265 -0.9792  0.1839 -0.2687
12645TIP3    H259427   4.781   4.577   2.362 -1.5517 -0.7189 -0.7797
12646TIP3   OH259428   3.858   3.281   6.403 -0.1284  0.6925 -0.2218
12646TIP3    H159429   3.936   3.292   6.458 -0.0873  0.4342 -0.2301
12646TIP3    H259430   3.840   3.369   6.370 -0.6466  1.0193  0.8734
12647TIP3   OH259431   6.682   1.720  12.525 -0.0989 -0.1618  0.0218
12647TIP3    H159432   6.593   1.741  12.552 -0.2051  0.1292 -0.5476
12647TIP3    H259433   6.682   1.732  12.430 -0.0888 -2.4006 -0.3334
12648TIP3   OH259434   3.552   2.809  13.327 -0.3141 -0.0658  0.5428
12648TIP3    H159435   3.470   2.766  13.349 -0.2336 -0.6487 -0.2691
12648TIP3    H259436   3.603   2.807  13.408 -0.7852 -0.4109  0.8339
12649TIP3   OH259437   2.785   4.311  13.654 -0.2470  0.6102  0.7479
12649TIP3    H159438   2.834   4.233  13.629  1.9691  2.1357  0.0509
12649TIP3    H259439   2.763   4.354  13.571 -0.6842  1.1764  1.1467
12650TIP3   OH259440   0.664   1.873  11.911  0.8771 -0.0644 -0.3869
12650TIP3    H159441   0.661   1.836  11.999  1.7670  0.4644 -0.1193
12650TIP3    H259442   0.703   1.804  11.857  1.9763  0.2358 -0.0081
12651TIP3   OH259443   5.417   3.726  13.961  0.1885 -0.5715 -0.0352
12651TIP3    H159444   5.489   3.762  14.012 -0.7197  0.4341  0.5902
12651TIP3    H259445   5.437   3.633  13.952  0.4163 -0.7832  2.1133
12652TIP3   OH259446   4.744   0.294  12.971 -0.5881  0.1790  0.2614
12652TIP3    H159447   4.826   0.344  12.970 -0.8930  0.6900 -0.3659
12652TIP3    H259448   4.746   0.243  12.889 -0.3466 -0.7365  0.8263
12653TIP3   OH259449   2.523   2.949  11.258 -0.0980 -0.2722 -0.3301
12653TIP3    H159450   2.531   3.039  11.290 -1.0302 -0.0747 -0.5953
12653TIP3    H259451   2.540   2.956  11.164 -2.1699  0.0152 -0.7426
12654TIP3   OH259452   6.638   4.879  12.139  0.1130  0.2523  0.4442
12654TIP3    H159453   6.671   4.796  12.104 -0.6017  0.3110 -0.4206
12654TIP3    H259454   6.676   4.886  12.226  1.2834 -0.3283  0.0081
12655TIP3   OH259455   0.823   5.893  14.307  0.1875  0.1632 -0.3433
12655TIP3    H159456   0.892   5.871  14.370  1.0907 -0.7614 -1.6230
12655TIP3    H259457   0.869   5.930  14.232 -0.8526  0.9779 -0.5974
12656TIP3   OH259458   0.840   4.139   0.521 -0.0050 -0.1134 -0.1644
12656TIP3    H159459   0.816   4.189   0.443  0.0942  2.4099  1.3173
12656TIP3    H259460   0.757   4.107   0.556 -0.1119 -0.6764 -0.9101
12657TIP3   OH259461   0.354   4.241  13.695  0.2295 -0.4724  0.3479
12657TIP3    H159462   0.275   4.200  13.729  0.8969 -1.1729  1.0933
12657TIP3    H259463   0.416   4.169  13.684  0.6353  0.0099 -0.6150
12658TIP3   OH259464   3.850   2.468  16.474 -0.0827 -0.3122  0.7855
12658TIP3    H159465   3.815   2.501  16.391 -0.4778  0.2549  1.1760
12658TIP3    H259466   3.831   2.374  16.472  1.2395 -0.5986 -0.4251
12659TIP3   OH259467   2.818   3.793   1.112 -0.2039 -0.2781  0.0080
12659TIP3    H159468   2.881   3.855   1.149 -0.7770  0.9832 -1.0571
12659TIP3    H259469   2.749   3.785   1.178  0.2959 -0.4650  0.5130
12660TIP3   OH259470   0.680   3.857  11.416  0.3414 -0.2586  0.4412
12660TIP3    H159471   0.744   3.928  11.412 -0.4685  0.4328 -1.4429
12660TIP3    H259472   0.687   3.813  11.331  0.7094 -2.3808  1.5132
12661TIP3   OH259473   6.537   6.097  15.918  0.3307  0.4192  0.0245
12661TIP3    H159474   6.585   6.023  15.954  0.4886  0.2556 -0.5119
12661TIP3    H259475   6.577   6.174  15.957 -0.7240  0.1896  1.6660
12662TIP3   OH259476   1.587   0.837  16.846  0.0575  0.5103  0.0700
12662TIP3    H159477   1.651   0.907  16.852 -0.2330  0.8989 -1.2241
12662TIP3    H259478   1.508   0.873  16.886 -0.0947  0.9342 -0.6015
12663TIP3   OH259479   0.966   3.892   0.569 -0.0620  0.9257 -0.1774
12663TIP3    H159480   0.898   3.948   0.531 -0.2065  0.3092 -0.8556
12663TIP3    H259481   1.031   3.953   0.603 -1.4921  1.5588  1.5375
12664TIP3   OH259482   3.512   3.965  15.423  0.1974 -0.3249  0.0820
12664TIP3    H159483   3.597   3.995  15.456  0.1176  2.2551 -1.8231
12664TIP3    H259484   3.454   3.971  15.499  1.3153 -0.5181  0.9884
12665TIP3   OH259485   0.557   1.847  15.438 -0.5441  0.1057  0.4940
12665TIP3    H159486   0.631   1.874  15.384 -0.4331 -0.5856  0.2784
12665TIP3    H259487   0.503   1.794  15.379 -2.6009  2.7003 -0.1141
12666TIP3   OH259488   2.049   4.197  17.192  0.3146  0.0497 -0.0653
12666TIP3    H159489   2.107   4.249  17.247  0.1322 -0.4225  0.5950
12666TIP3    H259490   2.005   4.138  17.254  0.6955 -1.0495 -0.8093
12667TIP3   OH259491   3.506   2.342  16.532  0.1124 -0.1449 -0.0961
12667TIP3    H159492   3.525   2.295  16.450 -1.7323  2.4599 -2.2121
12667TIP3    H259493   3.463   2.277  16.587 -2.6777 -1.0367 -2.9959
12668TIP3   OH259494   5.310   3.651   3.220 -0.2612 -0.5680 -0.2493
12668TIP3    H159495   5.330   3.744   3.233 -1.5754  0.1434 -2.7200
12668TIP3    H259496   5.396   3.610   3.206  0.2472  0.4702 -0.2748
12669TIP3   OH259497   1.146   5.552   0.480  0.3022  0.4062  0.4556
12669TIP3    H159498   1.225   5.581   0.434  0.3366  0.8649  0.8008
12669TIP3    H259499   1.178   5.493   0.548  0.2776 -0.0258  0.0973
12670TIP3   OH259500   1.120   2.471  13.302 -0.1377  0.2761 -0.4596
12670TIP3    H159501   1.105   2.564  13.288  0.1955  0.5488  0.8569
12670TIP3    H259502   1.033   2.432  13.303 -0.2593  0.4939 -1.4058
12671TIP3   OH259503   5.406   1.669  12.588 -0.3036 -0.1262 -0.0176
12671TIP3    H159504   5.417   1.687  12.494 -0.3046  0.7213  0.1402
12671TIP3    H259505   5.390   1.575  12.592  0.3641 -0.2882 -0.8145
12672TIP3   OH259506   3.942   6.313  13.170  0.1939  0.0380  0.8689
12672TIP3    H159507   3.983   6.314  13.257 -1.0093  3.3242  1.5568
12672TIP3    H259508   3.899   6.398  13.164  0.4283  0.0342 -3.0857
12673TIP3   OH259509   6.683   6.476   0.493  0.2391 -0.1129 -0.1337
12673TIP3    H159510   6.746   6.536   0.531 -0.9028  0.2652  1.2369
12673TIP3    H259511   6.715   6.461   0.404  1.0346  1.7923 -0.2057
12674TIP3   OH259512   6.663   1.442  11.997  0.3606 -0.2207  0.1229
12674TIP3    H159513   6.602   1.449  12.071 -0.4481 -2.3660 -0.2807
12674TIP3    H259514   6.629   1.503  11.932  0.0253  0.3409  0.8161
12675TIP3   OH259515   6.336   3.557  16.946  0.3093 -1.0034 -0.3040
12675TIP3    H159516   6.422   3.518  16.960  0.7287  0.6916  2.8057
12675TIP3    H259517   6.277   3.483  16.935  1.9989 -2.2204 -1.6706
12676TIP3   OH259518   5.020   4.051   4.133 -0.2268 -0.0833  0.2462
12676TIP3    H159519   5.102   4.096   4.114 -1.4628  1.5690 -1.5386
12676TIP3    H259520   4.978   4.040   4.048 -2.2750 -0.0506  1.1917
12677TIP3   OH259521   4.154   4.525  16.645 -0.1997 -0.1230 -0.3551
12677TIP3    H159522   4.109   4.591  16.592  0.3216 -1.9022 -3.2575
12677TIP3    H259523   4.246   4.549  16.639 -0.1352 -0.3559 -0.3019
12678TIP3   OH259524   3.099   1.885   4.747  0.0320  0.0089  0.4664
12678TIP3    H159525   3.063   1.805   4.709 -1.1831  1.4078 -1.5043
12678TIP3    H259526   3.072   1.882   4.838 -1.4018 -1.0541  0.0384
12679TIP3   OH259527   2.454   3.048   2.676 -0.4038 -0.9569 -0.0666
12679TIP3    H159528   2.536   3.044   2.627  0.7911  2.6676  1.3053
12679TIP3    H259529   2.396   3.102   2.622  0.1029  1.0619  1.3100
12680TIP3   OH259530   5.895   3.579   1.256  0.4546 -0.7163  0.6047
12680TIP3    H159531   5.874   3.673   1.260 -0.4629 -0.9070  0.5018
12680TIP3    H259532   5.958   3.572   1.184 -0.7704 -0.3857 -0.5467
12681TIP3   OH259533   6.046   0.451   5.964 -0.4392 -0.4801 -0.4160
12681TIP3    H159534   5.950   0.448   5.963 -0.5120 -0.6509  1.7033
12681TIP3    H259535   6.068   0.463   6.057  1.5815  0.2301 -0.9451
12682TIP3   OH259536   3.784   1.766   0.148  0.4978 -0.0306 -0.3148
12682TIP3    H159537   3.815   1.856   0.151 -0.1129  0.2074 -0.7952
12682TIP3    H259538   3.805   1.730   0.234 -0.5949  1.0347  0.4376
12683TIP3   OH259539   2.430   4.138   3.348 -0.1191 -0.0600  0.1171
12683TIP3    H159540   2.411   4.104   3.261  0.3833  0.9170 -0.3756
12683TIP3    H259541   2.406   4.066   3.407  0.5095 -1.1143 -0.8785
12684TIP3   OH259542   2.807   0.672   5.302  0.7972 -0.2591 -0.4344
12684TIP3    H159543   2.793   0.766   5.308 -1.0109 -0.2958 -2.5995
12684TIP3    H259544   2.902   0.661   5.305  1.1835  1.8585 -2.2880
12685TIP3   OH259545   2.647   5.723   6.285  0.6399 -0.7638 -0.3466
12685TIP3    H159546   2.709   5.787   6.320 -1.6947  1.5381 -0.0565
12685TIP3    H259547   2.685   5.694   6.202  1.4278  1.6948 -0.9226
12686TIP3   OH259548   2.919   4.683   5.613 -0.5398 -0.3841 -0.1134
12686TIP3    H159549   2.890   4.695   5.703 -0.3059 -2.3814  0.2654
12686TIP3    H259550   2.933   4.589   5.604  0.4051 -0.1176 -1.9514
12687TIP3   OH259551   6.211   2.449  15.147 -0.2455  0.3914  0.7668
12687TIP3    H159552   6.230   2.538  15.115 -2.5211  0.4125 -0.7479
12687TIP3    H259553   6.297   2.415  15.174  1.0071  2.3531 -0.4270
12688TIP3   OH259554   4.891   2.198  17.136 -0.5583 -0.2629  0.0447
12688TIP3    H159555   4.858   2.212  17.225  0.2261 -0.8653  0.4411
12688TIP3    H259556   4.813   2.180  17.083 -1.1831  1.3890  0.3310
12689TIP3   OH259557   1.355   4.210  14.713 -0.4357 -0.1532  0.4046
12689TIP3    H159558   1.403   4.143  14.762  0.5355  1.2152  1.4137
12689TIP3    H259559   1.415   4.234  14.642 -1.5011 -1.5398 -1.0413
12690TIP3   OH259560   0.634   3.804   5.870 -0.5505  0.4009  0.1940
12690TIP3    H159561   0.593   3.826   5.954 -0.1903  1.5946  0.0781
12690TIP3    H259562   0.692   3.730   5.890  1.4633  2.2346  1.5942
12691TIP3   OH259563   0.693   3.041  16.213  0.1832  0.0755  0.3834
12691TIP3    H159564   0.621   3.100  16.235 -0.7494 -0.6953 -0.5099
12691TIP3    H259565   0.757   3.097  16.170 -0.7421  0.4568 -0.5653
12692TIP3   OH259566   4.893   2.979  12.650 -0.1938  0.2763  0.0830
12692TIP3    H159567   4.860   2.890  12.642  1.1478 -0.1114 -1.8591
12692TIP3    H259568   4.988   2.971  12.639 -0.0661  1.9420 -0.3922
12693TIP3   OH259569   5.305   4.610  13.981 -0.4548  0.1700 -0.1537
12693TIP3    H159570   5.320   4.547  13.910 -0.7696 -0.2638  0.1598
12693TIP3    H259571   5.393   4.639  14.006 -0.3943  1.5983 -1.8353
12694TIP3   OH259572   5.149   2.102  11.044 -0.4423  0.1065  0.1585
12694TIP3    H159573   5.222   2.072  11.099  0.2892 -2.7892 -2.0945
12694TIP3    H259574   5.073   2.053  11.076 -0.6168  0.4349  0.2520
12695TIP3   OH259575   3.028   6.310   5.512  0.3611 -0.6730  0.1304
12695TIP3    H159576   3.025   6.405   5.499  3.9407 -0.5212 -0.4868
12695TIP3    H259577   2.946   6.278   5.473 -0.6142  2.0590 -0.2651
12696TIP3   OH259578   2.813   5.980  13.753  0.4900 -0.1026  0.0720
12696TIP3    H159579   2.833   6.061  13.800 -0.3037  0.5490 -0.6767
12696TIP3    H259580   2.761   5.929  13.815  0.1712  0.3775  0.2086
12697TIP3   OH259581   4.484   2.377  11.553  0.3740 -0.0700  0.1224
12697TIP3    H159582   4.531   2.449  11.595 -2.1071  1.7186  0.0504
12697TIP3    H259583   4.404   2.417  11.519 -0.6058 -2.6796 -0.8957
12698TIP3   OH259584   5.426   3.965  16.450 -0.0210  1.0190  0.6185
12698TIP3    H159585   5.404   4.009  16.531 -2.4196 -2.9185  2.4053
12698TIP3    H259586   5.350   3.977  16.393 -1.0182 -1.1627  1.3983
12699TIP3   OH259587   1.082   3.136   1.950  0.1056  0.0932 -0.2519
12699TIP3    H159588   1.156   3.075   1.953 -1.0801 -1.4429 -0.4929
12699TIP3    H259589   1.074   3.169   2.039 -0.5081 -1.8144  0.4684
12700TIP3   OH259590   1.837   2.632   2.543  0.2564  0.3653 -0.4429
12700TIP3    H159591   1.862   2.564   2.481 -0.5684  1.9576 -2.6859
12700TIP3    H259592   1.745   2.650   2.522 -0.3926  0.2366  2.0411
12701TIP3   OH259593   4.031   3.595  12.650  0.2297  0.0641 -0.6466
12701TIP3    H159594   4.014   3.520  12.708 -0.8177  0.4276 -0.4519
12701TIP3    H259595   4.124   3.590  12.630  0.9703  0.7151  2.1981
12702TIP3   OH259596   2.621   3.642  12.762 -0.0616  0.4369 -0.1907
12702TIP3    H159597   2.691   3.587  12.726 -0.6455 -0.3079 -0.2134
12702TIP3    H259598   2.575   3.677  12.686 -0.6974 -0.3646 -0.1918
12703TIP3   OH259599   4.272   3.905  13.871 -0.0602  0.0512 -0.1269
12703TIP3    H159600   4.264   3.852  13.950  0.6791  0.6680  0.3746
12703TIP3    H259601   4.247   3.846  13.800 -2.4701 -0.0202  0.6831
12704TIP3   OH259602   4.493   3.198   5.341 -0.2674 -1.3463  0.4254
12704TIP3    H159603   4.454   3.183   5.427 -2.7240 -1.5244 -0.6335
12704TIP3    H259604   4.432   3.157   5.280  0.8430 -0.2876 -1.4768
12705TIP3   OH259605   2.641   2.141  17.235 -0.7694  0.2481 -0.2208
12705TIP3    H159606   2.637   2.095  17.151  0.1671 -0.2072 -0.0259
12705TIP3    H259607   2.718   2.106  17.278 -1.4413  0.2201  1.0008
12706TIP3   OH259608   3.361   0.489   5.873  0.1424  0.1181 -0.0301
12706TIP3    H159609   3.347   0.576   5.909 -2.0356 -0.2521  0.1313
12706TIP3    H259610   3.428   0.450   5.929 -0.4587  0.9082  1.2655
12707TIP3   OH259611   3.132   1.048   2.237 -0.7374 -0.1078  0.4588
12707TIP3    H159612   3.187   1.078   2.164 -1.1720 -1.1263 -0.3231
12707TIP3    H259613   3.136   1.119   2.301 -0.8608  1.1322 -0.8367
12708TIP3   OH259614   1.636   0.041  15.356 -0.1858  0.3144 -0.0021
12708TIP3    H159615   1.636   0.124  15.308  0.0857  0.3508  0.0598
12708TIP3    H259616   1.544   0.024  15.374 -0.3290  0.1140 -0.8588
12709TIP3   OH259617   2.320   1.095   6.316  0.0756 -0.5232  0.5419
12709TIP3    H159618   2.344   1.084   6.408  0.4590  1.5233  0.7249
12709TIP3    H259619   2.340   1.010   6.277  4.2619 -0.1884  1.4239
12710TIP3   OH259620   5.438   1.745   5.560  0.6310  0.0531  0.4136
12710TIP3    H159621   5.373   1.796   5.609  0.4950 -0.7944  1.1384
12710TIP3    H259622   5.441   1.787   5.474 -0.6824  0.2801  0.4579
12711TIP3   OH259623   0.668   6.237   0.531  0.5073  0.1620  0.1742
12711TIP3    H159624   0.617   6.250   0.611  1.5518 -0.5395  0.9841
12711TIP3    H259625   0.748   6.194   0.560  0.5882 -0.8182 -1.3517
12712TIP3   OH259626   4.901   1.133  13.108  0.6448 -0.5583  0.0777
12712TIP3    H159627   4.986   1.136  13.151  1.2554  0.5007 -1.1375
12712TIP3    H259628   4.845   1.191  13.160  0.7492 -0.9835  0.6736
12713TIP3   OH259629   1.734   1.537   0.994  0.1749 -0.2123  0.5308
12713TIP3    H159630   1.654   1.568   0.951  1.0459 -0.9517 -1.7582
12713TIP3    H259631   1.733   1.579   1.080 -2.7026 -0.2714  0.6115
12714TIP3   OH259632   1.329   6.657   3.872 -0.1086 -0.4108  0.0749
12714TIP3    H159633   1.242   6.696   3.870 -0.0969 -0.2940  1.2959
12714TIP3    H259634   1.331   6.606   3.953  0.8349 -0.7107 -0.1273
12715TIP3   OH259635   0.044   6.649  15.997 -0.5744 -0.2422 -0.3074
12715TIP3    H159636   0.040   6.728  16.052  1.6131  0.5638 -1.1679
12715TIP3    H259637  -0.019   6.589  16.036  0.5054  0.4602  2.8308
12716TIP3   OH259638   0.456   3.914   3.029 -0.6664 -0.3271  0.2821
12716TIP3    H159639   0.401   3.984   2.994  0.0374 -0.5057 -1.2782
12716TIP3    H259640   0.527   3.906   2.966 -0.7456 -2.4612  0.3900
12717TIP3   OH259641   4.625   1.568   2.746 -0.2127  0.3458  0.1117
12717TIP3    H159642   4.579   1.541   2.825  0.5106  0.4605  0.5783
12717TIP3    H259643   4.564   1.548   2.675 -0.5174 -0.5943  0.6198
12718TIP3   OH259644   5.838   1.671   5.369 -0.5494  0.3487  0.2544
12718TIP3    H159645   5.846   1.766   5.378  0.6833  0.1180  2.1147
12718TIP3    H259646   5.785   1.644   5.443 -0.0718 -0.5133  0.2954
12719TIP3   OH259647   4.195   2.909  15.488  0.3645  0.1371 -0.2869
12719TIP3    H159648   4.262   2.978  15.483  0.7205 -0.2246 -0.5807
12719TIP3    H259649   4.219   2.848  15.418 -1.3833  0.9810 -1.7015
12720TIP3   OH259650   2.308   5.928   0.712 -0.2140 -0.0531 -0.2279
12720TIP3    H159651   2.353   5.968   0.787  0.5515 -0.1006 -0.6529
12720TIP3    H259652   2.283   5.841   0.743 -1.2912  0.4928  0.4843
12721TIP3   OH259653   2.566   5.961  12.343 -0.3852 -0.6363  0.4416
12721TIP3    H159654   2.603   5.879  12.374 -0.6701  0.2855  3.5425
12721TIP3    H259655   2.495   5.935  12.284  0.7924 -2.5232 -0.2101
12722TIP3   OH259656   3.049   3.551   4.799 -0.0505  0.8160 -0.4343
12722TIP3    H159657   3.026   3.484   4.735  1.7996 -1.1835  0.8559
12722TIP3    H259658   2.967   3.574   4.841 -0.6003 -1.6361 -0.0370
12723TIP3   OH259659   5.053   6.034   5.305  0.4293  0.7101  0.0956
12723TIP3    H159660   5.087   6.092   5.373  0.8587  1.0673 -0.4203
12723TIP3    H259661   4.968   6.072   5.282  0.3250  0.6423  0.3591
12724TIP3   OH259662   6.821   3.787   5.421 -0.6112  0.2517 -0.4754
12724TIP3    H159663   6.742   3.838   5.404 -1.5406 -0.1099  2.3073
12724TIP3    H259664   6.889   3.852   5.438 -0.3559  0.5561 -2.4334
12725TIP3   OH259665   1.014   4.035  13.479 -0.1380  0.4780 -0.2661
12725TIP3    H159666   0.942   4.097  13.496 -0.5826  0.0290 -0.4737
12725TIP3    H259667   1.093   4.086  13.492 -0.4810  0.7785  0.7994
12726TIP3   OH259668   1.769   5.456  11.214  0.3798 -0.2262  0.3179
12726TIP3    H159669   1.724   5.529  11.257  0.1029 -1.2864  1.9372
12726TIP3    H259670   1.700   5.393  11.194  0.7609 -0.5482 -0.0016
12727TIP3   OH259671   2.216   1.008   1.208  0.3619  0.1807  0.8838
12727TIP3    H159672   2.231   1.042   1.296  1.1635 -1.0165  1.2322
12727TIP3    H259673   2.220   0.913   1.218  0.2216  0.0232 -0.4019
12728TIP3   OH259674   2.767   2.933   4.003 -0.0194  0.1475  0.0038
12728TIP3    H159675   2.827   2.909   3.932  0.5468  0.6675  0.2919
12728TIP3    H259676   2.783   2.867   4.071 -1.1928 -0.8756 -0.6722
12729TIP3   OH259677   2.146   4.985  14.085  0.2970 -0.1716  0.4063
12729TIP3    H159678   2.170   4.924  14.016  0.0134 -0.1509  0.2843
12729TIP3    H259679   2.050   4.987  14.082  0.3019  0.2353  0.4418
12730TIP3   OH259680   0.359   2.597  14.990  0.4793  0.2968  0.4765
12730TIP3    H159681   0.301   2.600  14.914 -0.6539  0.7430  1.3238
12730TIP3    H259682   0.400   2.510  14.986 -2.0029 -1.0013  1.0728
12731TIP3   OH259683   5.138   1.231  13.231 -0.5050  0.2329 -0.1155
12731TIP3    H159684   5.107   1.240  13.321  0.1980  1.1635  0.0451
12731TIP3    H259685   5.231   1.253  13.235  0.1455 -2.1162 -0.6497
12732TIP3   OH259686   3.212   1.322  12.505 -0.9407 -0.1397  0.5460
12732TIP3    H159687   3.123   1.354  12.490 -0.8099 -0.0035  0.0611
12732TIP3    H259688   3.215   1.238  12.460 -0.5001  0.3428 -0.3356
12733TIP3   OH259689   1.177   2.102   3.602 -0.5695  0.3798  0.3168
12733TIP3    H159690   1.208   2.118   3.513 -1.3237  0.2538  0.0227
12733TIP3    H259691   1.236   2.153   3.657 -1.3088  2.1311 -0.4133
12734TIP3   OH259692   4.436   2.800  16.118 -0.0961  0.0799  0.0364
12734TIP3    H159693   4.422   2.798  16.213  0.1174  0.4199  0.0769
12734TIP3    H259694   4.524   2.763  16.107 -1.3336 -3.0761 -0.2869
12735TIP3   OH259695   0.214   3.927  14.651  0.2145 -0.1732  0.2819
12735TIP3    H159696   0.145   3.961  14.593  1.4653  1.3002 -0.4394
12735TIP3    H259697   0.168   3.895  14.728 -1.3868 -0.7360 -0.8529
12736TIP3   OH259698   0.451   1.706  16.940  0.1299 -0.2629 -0.5293
12736TIP3    H159699   0.394   1.629  16.942 -0.6093  0.2116 -1.6894
12736TIP3    H259700   0.390   1.780  16.943  0.7781  0.2633 -0.2944
12737TIP3   OH259701   4.506   0.017   2.658 -0.2047 -0.1462  0.6142
12737TIP3    H159702   4.459  -0.065   2.644 -1.4285  0.4557  1.0929
12737TIP3    H259703   4.495   0.035   2.751 -0.4532  0.8519  0.3995
12738TIP3   OH259704   3.591   2.211   3.257  0.5215 -0.3029 -0.0998
12738TIP3    H159705   3.601   2.284   3.196 -0.9358  1.2857  1.4540
12738TIP3    H259706   3.562   2.138   3.203  1.0156  0.5270 -1.5463
12739TIP3   OH259707   2.814   6.752  14.477 -0.0998  0.4898  0.1741
12739TIP3    H159708   2.874   6.769  14.549  0.9756  1.0332 -0.8194
12739TIP3    H259709   2.841   6.666  14.443 -1.4730 -0.4134  1.2188
12740TIP3   OH259710   4.847   1.945  16.592 -0.0979  0.2153 -0.5337
12740TIP3    H159711   4.854   1.880  16.662 -0.7746  1.8181  1.1030
12740TIP3    H259712   4.918   2.007  16.610 -0.1383  0.5324 -1.4091
12741TIP3   OH259713   6.756   2.221   2.792  0.0830  0.1089 -0.3155
12741TIP3    H159714   6.741   2.131   2.762 -0.6886  0.2624 -0.4009
12741TIP3    H259715   6.673   2.265   2.778  0.7795  1.1527 -1.3437
12742TIP3   OH259716   4.761   6.303   5.915 -0.5120  0.0439  0.3474
12742TIP3    H159717   4.720   6.314   6.001  0.5243  0.8437  0.7726
12742TIP3    H259718   4.819   6.228   5.925 -1.9053 -1.1570 -0.2862
12743TIP3   OH259719   2.666   0.457   0.511  0.0146  0.0934  0.0766
12743TIP3    H159720   2.600   0.471   0.579  1.1273 -0.1646  1.2391
12743TIP3    H259721   2.740   0.417   0.557  0.5634 -0.6550 -1.4064
12744TIP3   OH259722   2.674   6.582  16.444 -0.7171  0.3667 -0.0966
12744TIP3    H159723   2.701   6.551  16.531  1.4156  0.5518 -0.6455
12744TIP3    H259724   2.747   6.637  16.415 -0.4962 -1.1900 -2.7711
12745TIP3   OH259725   3.952   3.595  15.155 -0.2550  0.0569 -0.0292
12745TIP3    H159726   3.969   3.687  15.133 -1.0224 -0.0953 -1.3682
12745TIP3    H259727   4.012   3.546  15.099  0.5113 -0.2785  1.0437
12746TIP3   OH259728   1.774   5.981   3.383 -0.3057  0.4643  0.3969
12746TIP3    H159729   1.808   6.026   3.460 -1.8319  1.2579  0.6531
12746TIP3    H259730   1.751   5.894   3.414 -1.8179  1.0834  1.1358
12747TIP3   OH259731   0.035   0.890   3.315  0.0093 -0.5887  0.0195
12747TIP3    H159732   0.119   0.893   3.270  0.8017 -0.2882  1.4539
12747TIP3    H259733  -0.026   0.853   3.251  1.1815 -0.6140 -1.1111
12748TIP3   OH259734   3.147   4.792  15.218 -0.2889 -0.8718  0.0716
12748TIP3    H159735   3.096   4.843  15.155 -0.7519 -0.1899  0.9691
12748TIP3    H259736   3.194   4.729  15.165  2.7692  2.3977 -1.5335
12749TIP3   OH259737   1.297   1.152   5.213  0.3046  0.3456 -0.5943
12749TIP3    H159738   1.311   1.139   5.306  0.3806  0.5578 -0.5741
12749TIP3    H259739   1.283   1.247   5.204 -1.1049  0.1485 -0.6171
12750TIP3   OH259740   6.114   1.293   3.835  0.0227  0.0431  0.1367
12750TIP3    H159741   6.121   1.216   3.778 -0.0702 -0.3717  0.6754
12750TIP3    H259742   6.035   1.338   3.805  1.6624  1.6377 -2.2032
12751TIP3   OH259743   3.799   1.422   2.620  0.3069  0.0387  0.2210
12751TIP3    H159744   3.833   1.361   2.554 -0.0994 -0.9191  0.8803
12751TIP3    H259745   3.815   1.508   2.582  1.0006 -0.4626 -0.6842
12752TIP3   OH259746   4.716   0.631  13.722  0.1600  0.1409  0.7893
12752TIP3    H159747   4.705   0.702  13.786 -2.9495 -0.4301  1.0214
12752TIP3    H259748   4.709   0.675  13.637  1.3586  0.4960  0.8567
12753TIP3   OH259749   6.354   1.061   5.855  0.1910 -0.1779 -0.5108
12753TIP3    H159750   6.352   1.109   5.772 -2.9993  0.0156 -0.4228
12753TIP3    H259751   6.293   0.989   5.843  1.3955 -1.5020  0.9476
12754TIP3   OH259752   4.005   5.609  16.287 -0.0406  1.2682 -0.3424
12754TIP3    H159753   4.077   5.624  16.348  0.0650  0.5207 -0.2704
12754TIP3    H259754   3.974   5.696  16.263  1.3563  1.6368 -0.9141
12755TIP3   OH259755   4.714   2.229   0.700  0.2235 -0.1601 -0.0709
12755TIP3    H159756   4.774   2.175   0.648 -0.4838 -1.4610  0.4253
12755TIP3    H259757   4.767   2.261   0.773  1.7075  3.0608 -2.3077
12756TIP3   OH259758   2.029   5.043  14.806 -0.0427  0.1163 -0.4418
12756TIP3    H159759   2.050   5.123  14.855 -1.0626 -0.2612  0.6539
12756TIP3    H259760   1.957   5.068  14.749  0.4620  0.2805 -1.0286
12757TIP3   OH259761   0.910   5.949  15.237 -0.3457  0.0805 -0.3100
12757TIP3    H159762   0.988   6.002  15.217  0.1442  0.1561  1.6003
12757TIP3    H259763   0.882   5.979  15.324 -0.6841 -2.0564  0.3790
12758TIP3   OH259764   0.962   5.792   1.926 -0.8545 -0.1437  0.4967
12758TIP3    H159765   0.947   5.791   2.021 -1.0477 -0.7432  0.4595
12758TIP3    H259766   0.888   5.745   1.889  0.0433 -1.3254  0.1604
12759TIP3   OH259767   1.160   3.234  15.178  0.7465 -0.1712 -0.1520
12759TIP3    H159768   1.221   3.172  15.138 -0.1478 -1.0602 -0.1627
12759TIP3    H259769   1.168   3.217  15.272  2.4776  1.5756  0.0997
12760TIP3   OH259770   2.635   1.066  11.110  0.1360  0.4848  0.9255
12760TIP3    H159771   2.546   1.099  11.106  0.1222  0.3180 -0.8135
12760TIP3    H259772   2.627   0.977  11.145 -0.1830  1.0360  2.3151
12761TIP3   OH259773   1.422   0.144  15.630  0.2491  0.0013  0.2398
12761TIP3    H159774   1.385   0.076  15.574 -1.6812  0.6050  0.7223
12761TIP3    H259775   1.423   0.107  15.717 -2.4264  1.0541  0.8330
12762TIP3   OH259776   0.236   3.263   5.484 -0.1413  0.1549 -0.7139
12762TIP3    H159777   0.194   3.201   5.424 -0.3881  0.2812 -0.6700
12762TIP3    H259778   0.164   3.300   5.535  0.2691 -2.0511  1.7025
12763TIP3   OH259779   5.634   4.926  12.770 -0.1737 -0.6203  0.0764
12763TIP3    H159780   5.576   5.001  12.760  0.9652  0.1553 -1.0890
12763TIP3    H259781   5.710   4.948  12.716  1.7952 -1.0101  2.5393
12764TIP3   OH259782   1.458   4.556  15.504  0.4079  0.2292  0.1202
12764TIP3    H159783   1.372   4.528  15.474 -0.0661 -0.1103  1.7115
12764TIP3    H259784   1.500   4.476  15.537  0.2437  0.8097  1.8551
12765TIP3   OH259785   4.967   6.358   3.875 -0.0552 -0.3076  0.3830
12765TIP3    H159786   4.977   6.298   3.801  0.7076 -1.3207  1.2553
12765TIP3    H259787   4.877   6.388   3.870  0.0740 -0.1066 -1.1224
12766TIP3   OH259788   3.494   2.733  16.735 -0.0385  0.0440  0.1638
12766TIP3    H159789   3.415   2.680  16.747 -0.1438 -0.5448 -2.4441
12766TIP3    H259790   3.565   2.669  16.728  0.0649  0.2754 -1.3496
12767TIP3   OH259791   1.029   4.511   0.833  0.5724  0.2612  0.4139
12767TIP3    H159792   0.989   4.432   0.795  0.8676  0.1394  0.3579
12767TIP3    H259793   1.103   4.478   0.884 -1.5792  0.0268  3.7469
12768TIP3   OH259794   0.518   3.979  14.084  0.1927 -0.3075 -0.2723
12768TIP3    H159795   0.475   3.935  14.157  0.3853  2.0980  1.4033
12768TIP3    H259796   0.464   3.958  14.008 -0.9825 -1.5351  0.8542
12769TIP3   OH259797   0.962   1.074   0.996  0.1338  0.2821 -0.0535
12769TIP3    H159798   1.026   1.145   1.003  2.1087 -1.4585  0.8032
12769TIP3    H259799   1.011   1.002   0.955 -1.1999 -1.2021  0.8426
12770TIP3   OH259800   2.793   2.696  13.887  0.3793 -0.4137 -0.2922
12770TIP3    H159801   2.716   2.667  13.935 -0.0347  2.1727  0.7794
12770TIP3    H259802   2.810   2.627  13.823 -1.1690 -2.3141  1.2511
12771TIP3   OH259803   1.352   1.790   6.007  0.5908 -0.6404  0.5437
12771TIP3    H159804   1.304   1.798   5.925  1.6642 -1.5193 -0.1931
12771TIP3    H259805   1.346   1.877   6.047 -0.7944 -0.4830  0.0304
12772TIP3   OH259806   4.582   3.122  14.919  0.0985  0.0778  0.2993
12772TIP3    H159807   4.564   3.216  14.926 -2.9037 -0.3407 -0.2532
12772TIP3    H259808   4.630   3.112  14.837  1.9883  1.2277  1.1975
12773TIP3   OH259809   1.772   2.560   4.000  0.6023 -0.1082  0.0988
12773TIP3    H159810   1.703   2.501   4.032 -0.4488  1.6554  1.2567
12773TIP3    H259811   1.847   2.542   4.057  0.8850 -1.4684 -0.6474
12774TIP3   OH259812   6.099   4.785  13.016  0.0529 -0.0677  1.6381
12774TIP3    H159813   6.180   4.833  13.033 -0.2955  1.1682  0.1184
12774TIP3    H259814   6.030   4.841  13.051 -0.2234 -0.5852  1.9380
12775TIP3   OH259815   5.079   6.144  14.449  0.1608 -0.2032 -0.0151
12775TIP3    H159816   5.165   6.130  14.409  1.0763  1.1082  1.3527
12775TIP3    H259817   5.097   6.151  14.543 -1.2164  1.4684  0.1929
12776TIP3   OH259818   2.464   2.238  15.868 -0.2088  0.3369  0.0709
12776TIP3    H159819   2.406   2.256  15.794 -0.7746 -0.4661  0.3062
12776TIP3    H259820   2.404   2.215  15.940  0.3092  1.3932  0.8729
12777TIP3   OH259821   3.032   3.732   3.867 -0.7147  0.1546 -0.4603
12777TIP3    H159822   3.077   3.703   3.788  0.0174 -1.2732  0.4303
12777TIP3    H259823   3.085   3.806   3.899  0.5382 -0.9533  0.0999
12778TIP3   OH259824   2.225   0.357  12.488  0.1444  0.7875  0.1577
12778TIP3    H159825   2.182   0.273  12.500 -0.0727  0.9604  0.6542
12778TIP3    H259826   2.154   0.421  12.490  0.2545  0.9464 -0.7291
12779TIP3   OH259827   3.619   5.673  12.479  0.3388  0.3771  0.4284
12779TIP3    H159828   3.543   5.680  12.536 -0.2491 -0.8347 -0.1726
12779TIP3    H259829   3.689   5.642  12.537 -0.0080  0.0653  0.6799
12780TIP3   OH259830   5.236   0.861   2.449 -0.3346 -0.5670  0.3133
12780TIP3    H159831   5.275   0.897   2.369 -0.3813 -1.3888 -0.0904
12780TIP3    H259832   5.304   0.871   2.515  0.7660 -2.2914 -0.4619
12781TIP3   OH259833   3.699   5.091  13.033  0.5409 -0.2917  0.0173
12781TIP3    H159834   3.635   5.151  13.073  0.4727 -0.0948 -0.3868
12781TIP3    H259835   3.782   5.138  13.039  0.9696 -1.1988  2.0049
12782TIP3   OH259836   1.922   3.147  13.184  1.3435  0.8284  0.4796
12782TIP3    H159837   1.974   3.067  13.176 -0.7647 -0.6859  0.6984
12782TIP3    H259838   1.867   3.132  13.262 -2.0970  0.5112 -1.7679
12783TIP3   OH259839   1.701   1.731   6.001 -0.5937 -0.4779 -0.0417
12783TIP3    H159840   1.725   1.756   6.090  0.3966 -1.6806  0.0532
12783TIP3    H259841   1.733   1.641   5.991  0.6070  0.1011 -2.0764
12784TIP3   OH259842   5.163   5.583  14.280  0.2077 -0.2839  0.1552
12784TIP3    H159843   5.128   5.672  14.283  0.8502 -0.0144 -0.3286
12784TIP3    H259844   5.249   5.589  14.322  0.6644 -0.4816 -0.7299
12785TIP3   OH259845   3.768   2.085   4.930  0.2007 -0.2358 -0.3666
12785TIP3    H159846   3.673   2.095   4.931  0.1476 -0.2331 -2.2122
12785TIP3    H259847   3.783   1.992   4.915  0.4775 -0.1092 -0.8935
12786TIP3   OH259848   2.182   1.665   3.859 -0.2994  0.1947 -0.1564
12786TIP3    H159849   2.196   1.596   3.923  0.4269  1.8352  1.5566
12786TIP3    H259850   2.269   1.687   3.827 -0.7078 -1.1546 -2.4289
12787TIP3   OH259851   3.208   5.694  17.228  0.1228 -0.1264  0.4603
12787TIP3    H159852   3.114   5.685  17.212  0.0793  0.1635  0.5571
12787TIP3    H259853   3.230   5.780  17.195  0.4186 -0.3194  0.1516
12788TIP3   OH259854   0.830   3.413   1.333  0.3012 -0.5699 -0.1724
12788TIP3    H159855   0.814   3.402   1.240 -0.2290  0.5447 -0.2308
12788TIP3    H259856   0.924   3.427   1.341  0.3176 -0.4585 -0.5656
12789TIP3   OH259857   1.537   2.354  15.243  0.3501 -0.2688 -0.0077
12789TIP3    H159858   1.519   2.303  15.321  1.1095 -1.6820 -0.7082
12789TIP3    H259859   1.611   2.309  15.201 -0.0605  0.4042 -1.5558
12790TIP3   OH259860   4.266   1.891  13.154 -0.7194 -0.1976 -0.2636
12790TIP3    H159861   4.222   1.972  13.126 -1.7639 -0.9587 -0.8824
12790TIP3    H259862   4.359   1.915  13.158 -1.0083  1.0366 -0.4265
12791TIP3   OH259863   2.435   3.377   5.938  0.1244  0.2771 -0.1617
12791TIP3    H159864   2.418   3.440   6.008  0.6043 -0.3262  0.5122
12791TIP3    H259865   2.444   3.293   5.982 -2.2730 -0.6251 -1.2069
12792TIP3   OH259866   2.410   6.755  13.810  0.0644  0.7314 -0.0886
12792TIP3    H159867   2.470   6.826  13.832  1.2213 -0.2041 -0.1275
12792TIP3    H259868   2.425   6.689  13.877  1.8113 -1.0914 -2.1220
12793TIP3   OH259869   1.619   0.823   2.546 -0.6757  0.2504 -0.4503
12793TIP3    H159870   1.655   0.872   2.472 -1.5390 -0.0182 -1.0679
12793TIP3    H259871   1.526   0.812   2.524 -0.8040 -0.3948  0.3724
12794TIP3   OH259872   6.026   1.955  16.146  0.5030  0.2831  0.0372
12794TIP3    H159873   5.932   1.942  16.160  0.5822  0.3737  0.7063
12794TIP3    H259874   6.067   1.884  16.195  0.8313  1.2162  1.1620
12795TIP3   OH259875   5.807   5.791  11.790 -0.0990 -0.1636 -0.7401
12795TIP3    H159876   5.855   5.816  11.869  1.0075 -0.0122 -1.4441
12795TIP3    H259877   5.749   5.866  11.774  1.0502  0.6753 -1.1384
12796TIP3   OH259878   3.641   5.311   3.234  0.2160  0.1391 -0.4308
12796TIP3    H159879   3.561   5.319   3.287  0.7292  0.2585  0.3483
12796TIP3    H259880   3.684   5.233   3.268  0.2623 -0.1249 -1.0877
12797TIP3   OH259881   5.764   5.550   0.777  0.9782  0.6353 -0.0383
12797TIP3    H159882   5.768   5.590   0.864  0.4397  1.4645 -0.3811
12797TIP3    H259883   5.671   5.540   0.758  1.0747 -1.9441  0.5212
12798TIP3   OH259884   4.900   6.821   3.545  0.5035  0.7115  0.3569
12798TIP3    H159885   4.855   6.904   3.564 -0.6032  0.2845 -0.3390
12798TIP3    H259886   4.918   6.824   3.451 -1.1579 -0.5857 -0.0443
12799TIP3   OH259887   0.520   0.058  13.998 -0.3454 -0.6223 -0.1123
12799TIP3    H159888   0.576   0.121  13.954  1.3985 -3.6454 -2.6794
12799TIP3    H259889   0.434   0.070  13.959 -0.9283  2.0672  1.7117
12800TIP3   OH259890   6.079   5.735  12.565 -0.0397 -0.7371 -0.2355
12800TIP3    H159891   6.035   5.741  12.650  0.6016 -0.1457  0.0663
12800TIP3    H259892   6.171   5.751  12.586 -0.0826  1.0513 -1.2674
12801TIP3   OH259893   2.528   1.661   5.428  0.2495  0.1105  0.6241
12801TIP3    H159894   2.554   1.589   5.370  0.3970  0.1919  0.5874
12801TIP3    H259895   2.504   1.618   5.510 -1.6845 -0.1631 -0.0385
12802TIP3   OH259896   5.573   3.337   2.600 -0.2814 -0.3140  0.1267
12802TIP3    H159897   5.630   3.275   2.555 -1.5594 -1.7432  0.4040
12802TIP3    H259898   5.633   3.388   2.655  1.0423  0.0657 -1.5583
12803TIP3   OH259899   4.933   5.118  15.816 -0.1654  0.0181  0.2779
12803TIP3    H159900   4.962   5.204  15.785  0.1130 -0.5288 -1.0329
12803TIP3    H259901   4.903   5.073  15.737  1.1972 -1.6702  0.6829
12804TIP3   OH259902   1.789   5.732   3.520  0.3558 -0.2519 -0.0506
12804TIP3    H159903   1.823   5.760   3.605 -2.5344  0.1156  1.1011
12804TIP3    H259904   1.731   5.659   3.541 -1.4836  0.7110 -1.4737
12805TIP3   OH259905   1.348   4.018  12.649  0.4163  0.0683  0.3577
12805TIP3    H159906   1.378   3.943  12.597 -1.6458  0.4424 -1.5686
12805TIP3    H259907   1.261   3.993  12.680  1.3842  0.0650  3.3862
12806TIP3   OH259908   4.455   4.301   4.087  0.4174  0.5337 -0.1613
12806TIP3    H159909   4.409   4.219   4.070  0.5834 -0.1539  2.4032
12806TIP3    H259910   4.546   4.276   4.103  0.4884  1.2135  0.5728
12807TIP3   OH259911   5.118   0.679   2.015 -0.2590  0.1073  0.7901
12807TIP3    H159912   5.036   0.726   2.026 -1.7623 -1.9400 -0.9338
12807TIP3    H259913   5.124   0.621   2.091 -1.4830 -1.1623 -0.0363
12808TIP3   OH259914   5.366   2.941  16.110 -0.6870  0.6213 -0.1910
12808TIP3    H159915   5.408   3.012  16.158 -3.2938  1.0268  1.6942
12808TIP3    H259916   5.293   2.982  16.064 -1.6843 -0.6699  0.1701
12809TIP3   OH259917   2.671   4.519  14.592 -0.7544  0.0601  0.9047
12809TIP3    H159918   2.710   4.595  14.636  0.7619  0.0111 -0.2831
12809TIP3    H259919   2.591   4.501  14.642 -0.2238  1.3332  2.2844
12810TIP3   OH259920   5.603   2.766   3.876 -0.1199 -0.1543  0.1847
12810TIP3    H159921   5.548   2.689   3.867  0.5507 -0.8855  1.9883
12810TIP3    H259922   5.688   2.733   3.905  0.3576  1.2039  0.4387
12811TIP3   OH259923   3.953   3.913   1.498 -0.6675  0.2932  0.3820
12811TIP3    H159924   4.002   3.934   1.578 -0.0517  3.3364 -0.6318
12811TIP3    H259925   4.021   3.894   1.433 -1.0119  0.7182 -0.1071
12812TIP3   OH259926   0.424   4.299   2.073  0.2598  0.0189 -0.0047
12812TIP3    H159927   0.462   4.214   2.093 -1.2150 -1.0554 -1.4487
12812TIP3    H259928   0.393   4.331   2.157  1.2501 -0.6483  0.6377
12813TIP3   OH259929   5.208   1.606  15.181  0.5569  0.3277  0.0310
12813TIP3    H159930   5.171   1.641  15.099 -2.5185 -2.4920 -0.0327
12813TIP3    H259931   5.137   1.617  15.245  2.1527  0.6364  1.8122
12814TIP3   OH259932   1.675   2.548   4.341 -0.5485 -0.1260 -0.0937
12814TIP3    H159933   1.611   2.617   4.325  0.4643  0.5293 -1.5399
12814TIP3    H259934   1.760   2.591   4.333  0.2010 -1.8670 -3.3756
12815TIP3   OH259935   6.696   4.403  13.381 -0.3015 -0.1682  0.4164
12815TIP3    H159936   6.686   4.475  13.319  0.8954  0.7063  1.1716
12815TIP3    H259937   6.699   4.446  13.467 -0.3223 -1.1963  0.9470
12816TIP3   OH259938   0.276   2.906  15.642  0.0866  0.5065 -0.2268
12816TIP3    H159939   0.254   2.870  15.557 -0.2171 -1.0907  0.4971
12816TIP3    H259940   0.371   2.897  15.649  0.0732  0.3315 -0.2691
12817TIP3   OH259941   2.586   4.397   4.787  0.1417  0.4624  0.0966
12817TIP3    H159942   2.575   4.340   4.711 -0.4204  1.4192 -0.5725
12817TIP3    H259943   2.563   4.485   4.754  2.7249  1.3995  0.6103
12818TIP3   OH259944   1.469   4.055   5.973  0.5232  0.0159  0.0232
12818TIP3    H159945   1.448   4.075   6.064 -1.3944  2.7766 -0.9026
12818TIP3    H259946   1.559   4.084   5.962  0.1499  1.4771  0.6044
12819TIP3   OH259947   0.514   4.215   5.921  0.3981 -0.4661 -0.2319
12819TIP3    H159948   0.474   4.161   5.989  0.5356 -1.7068 -1.1091
12819TIP3    H259949   0.536   4.297   5.966 -1.3419 -0.4706  0.7228
12820TIP3   OH259950   0.676   0.418   0.576 -0.0013 -0.2748 -0.1374
12820TIP3    H159951   0.699   0.328   0.556  1.8450  0.2165 -0.3645
12820TIP3    H259952   0.635   0.414   0.662  1.4932 -1.1629  0.5681
12821TIP3   OH259953   4.845   1.171   4.125 -0.0048  0.0644  0.3206
12821TIP3    H159954   4.783   1.103   4.148 -1.4951  1.0114 -0.6890
12821TIP3    H259955   4.790   1.245   4.098  1.5364  1.8317  1.7981
12822TIP3   OH259956   1.112   2.865   0.766  0.2077  0.2567 -0.1689
12822TIP3    H159957   1.031   2.818   0.785  0.7002 -0.5894 -0.0858
12822TIP3    H259958   1.115   2.873   0.671 -1.2177  2.6004 -0.0983
12823TIP3   OH259959   6.007   2.498  14.494 -0.2788  0.1036 -0.1501
12823TIP3    H159960   5.946   2.481  14.566 -1.0668  0.2323 -0.7684
12823TIP3    H259961   6.020   2.593  14.496 -2.5512  0.5424 -1.8847
12824TIP3   OH259962   3.181   6.417  17.241  0.0139  0.2311  0.3075
12824TIP3    H159963   3.248   6.382  17.183  0.6133  0.4310  0.8631
12824TIP3    H259964   3.228   6.442  17.321 -0.4070  2.0886  0.0395
12825TIP3   OH259965   6.420   6.739  12.361  0.4651  0.4045  0.0286
12825TIP3    H159966   6.465   6.655  12.370 -0.4212 -0.1796 -0.7485
12825TIP3    H259967   6.454   6.793  12.432  1.1573 -0.5670  0.4535
12826TIP3   OH259968   2.591   3.782  13.229  0.5421 -0.2709  0.0251
12826TIP3    H159969   2.513   3.797  13.177 -0.8208 -0.9839  1.7646
12826TIP3    H259970   2.660   3.829  13.183 -0.7459 -0.1975 -1.9376
12827TIP3   OH259971   5.988   3.422   1.470  0.2981  0.1892  0.6159
12827TIP3    H159972   5.917   3.471   1.430  0.3071  0.7247  1.2339
12827TIP3    H259973   6.046   3.399   1.398 -0.0674  0.4850  0.2273
12828TIP3   OH259974   5.745   4.594   1.224  0.2119  0.2416  0.3471
12828TIP3    H159975   5.764   4.532   1.294  0.4841 -0.9215 -0.7280
12828TIP3    H259976   5.829   4.638   1.208 -0.1014  1.3153  1.4690
12829TIP3   OH259977   5.740   1.750   3.043  0.5428  0.4056  0.6242
12829TIP3    H159978   5.723   1.711   3.128  0.5715  2.2755  1.5367
12829TIP3    H259979   5.742   1.676   2.982 -1.7209 -0.7729  1.8697
12830TIP3   OH259980   5.697   1.067  15.199  0.2246  0.6637  0.3268
12830TIP3    H159981   5.765   1.057  15.265 -2.0321  0.1649  2.7142
12830TIP3    H259982   5.701   0.985  15.149  2.6699  1.4852 -1.0256
12831TIP3   OH259983   1.610   4.569  17.089 -0.4604  0.3965  0.1005
12831TIP3    H159984   1.595   4.549  16.997  1.1647  0.3774 -0.1873
12831TIP3    H259985   1.544   4.519  17.136 -1.4539  0.5782 -1.0593
12832TIP3   OH259986   2.456   5.888  15.887  0.0178  0.4353 -0.6227
12832TIP3    H159987   2.539   5.867  15.843  0.2963 -0.9345  0.4822
12832TIP3    H259988   2.468   5.977  15.919  1.8442 -0.3769  1.1410
12833TIP3   OH259989   3.310   2.047  15.322  0.1678  0.5849 -0.3548
12833TIP3    H159990   3.217   2.028  15.308  0.1068 -0.8863  1.6917
12833TIP3    H259991   3.355   1.966  15.300  0.2627 -1.1254  4.7916
12834TIP3   OH259992   6.746   1.461   4.164  0.2766  0.3595  0.0105
12834TIP3    H159993   6.696   1.541   4.146 -0.0657 -0.4195 -2.8536
12834TIP3    H259994   6.679   1.392   4.172  0.7172 -0.2237 -1.1327
12835TIP3   OH259995   1.886   3.006   2.630 -0.2473 -0.0883  0.7075
12835TIP3    H159996   1.971   2.963   2.622  1.8036  3.4919  0.9232
12835TIP3    H259997   1.832   2.966   2.563  0.9368 -3.6919  1.6579
12836TIP3   OH259998   3.974   0.732  16.094 -0.6349 -0.4477 -0.0349
12836TIP3    H159999   3.883   0.722  16.123 -1.1234  1.9724 -0.4853
12836TIP3    H260000   4.020   0.768  16.170  0.1194 -2.1369  0.3550
12837TIP3   OH260001   6.338   6.037  16.241  0.7910 -0.2127  0.1335
12837TIP3    H160002   6.361   5.965  16.183  2.1277  0.7982 -0.6484
12837TIP3    H260003   6.245   6.025  16.259  1.0652 -2.4088  0.4487
12838TIP3   OH260004   6.659   5.533   1.835  0.0690  0.1017 -0.9051
12838TIP3    H160005   6.595   5.483   1.784 -0.0871 -1.5472  0.7982
12838TIP3    H260006   6.742   5.487   1.822 -0.0460 -0.5908  0.5634
12839TIP3   OH260007   4.191   4.698  15.188  0.5281  0.3003  0.0451
12839TIP3    H160008   4.113   4.701  15.133  1.1255 -1.7828 -0.9990
12839TIP3    H260009   4.187   4.613  15.232  0.8753  1.2593  2.0835
12840TIP3   OH260010   1.379   1.165  12.873  0.2560 -0.0893 -1.0087
12840TIP3    H160011   1.462   1.148  12.917  0.8944 -0.0847 -2.1746
12840TIP3    H260012   1.351   1.080  12.841  0.0387 -0.0158 -1.0121
12841TIP3   OH260013   2.846   1.403   2.154  0.5339  0.1440 -0.3717
12841TIP3    H160014   2.787   1.446   2.093  0.0547  0.1495  0.0965
12841TIP3    H260015   2.858   1.315   2.117  0.1227  0.0957 -0.3968
12842TIP3   OH260016   4.957   1.580  15.297  0.3143  0.0157  0.0318
12842TIP3    H160017   4.957   1.503  15.354  0.9520 -1.0616 -1.3758
12842TIP3    H260018   4.899   1.556  15.224  4.0601 -1.1406 -2.9089
12843TIP3   OH260019   6.305   0.396   3.164 -0.1323  0.1286 -0.7357
12843TIP3    H160020   6.249   0.450   3.220 -0.0709 -0.6227  0.0753
12843TIP3    H260021   6.390   0.396   3.208 -0.0972 -0.5219 -0.7949
12844TIP3   OH260022   1.073   5.758   1.009 -0.6688 -0.5263 -0.2104
12844TIP3    H160023   1.116   5.771   0.924 -0.4092 -0.9311 -0.1430
12844TIP3    H260024   1.067   5.846   1.046 -0.9724 -0.3213 -0.7396
12845TIP3   OH260025   0.526   4.971   6.405 -0.7247 -0.2996 -0.7233
12845TIP3    H160026   0.577   4.940   6.480 -1.1559 -2.2252 -1.1793
12845TIP3    H260027   0.505   5.062   6.426  2.7540  0.5870 -0.4510
12846TIP3   OH260028   2.195   2.425   1.261  0.8237 -0.2858 -0.3957
12846TIP3    H160029   2.202   2.490   1.331  1.6986 -1.4964  0.6935
12846TIP3    H260030   2.223   2.471   1.182 -2.7060  1.9498 -0.5985
12847TIP3   OH260031   5.568   4.622   5.751 -0.3317  0.6370  0.0372
12847TIP3    H160032   5.524   4.544   5.715 -1.1620  1.0116  0.2112
12847TIP3    H260033   5.653   4.590   5.782 -0.6026 -0.1727 -0.0369
12848TIP3   OH260034   4.340   1.356  14.121  0.3855  0.0557  0.1502
12848TIP3    H160035   4.353   1.448  14.143  0.6072  0.1539 -0.3740
12848TIP3    H260036   4.414   1.311  14.160  1.1720  0.3246 -0.9704
12849TIP3   OH260037   4.717   5.948  14.499  0.2261 -0.6469 -0.2983
12849TIP3    H160038   4.688   5.859  14.479  1.2229 -0.6047 -2.1280
12849TIP3    H260039   4.747   5.983  14.415  1.4713  0.8106  0.6986
12850TIP3   OH260040   0.453   5.127   3.164  0.5840 -0.0998  0.2180
12850TIP3    H160041   0.493   5.190   3.105 -0.6900  2.1101  1.5951
12850TIP3    H260042   0.375   5.171   3.197  0.7114 -1.6045  2.7862
12851TIP3   OH260043   5.001   0.792   1.113  0.0763 -0.3945 -0.0608
12851TIP3    H160044   5.001   0.707   1.158 -2.7671  0.3614  1.5749
12851TIP3    H260045   5.039   0.853   1.177  1.5102 -0.2448 -0.9957
12852TIP3   OH260046   5.941   0.027   5.790 -0.6060 -0.2183 -0.3736
12852TIP3    H160047   5.905   0.070   5.712 -0.5663  0.8161  0.1648
12852TIP3    H260048   5.888   0.060   5.863 -1.1349 -1.7588 -0.0262
12853TIP3   OH260049   0.610   4.859  11.189 -0.5481  0.1861  0.0753
12853TIP3    H160050   0.630   4.938  11.139  0.2778  2.5045  3.6979
12853TIP3    H260051   0.521   4.872  11.221 -0.4367 -0.3658  0.6451
12854TIP3   OH260052   4.450   0.188   5.115 -0.1140  0.3096  0.1130
12854TIP3    H160053   4.517   0.122   5.096  1.1598  0.7200  2.7329
12854TIP3    H260054   4.367   0.138   5.116  0.1700 -0.3218 -2.5139
12855TIP3   OH260055   4.696   3.464  16.507 -0.9063 -0.3638 -0.0005
12855TIP3    H160056   4.691   3.520  16.430  0.7392 -1.5517 -1.0172
12855TIP3    H260057   4.646   3.386  16.483 -0.6877 -0.5894  0.2690
12856TIP3   OH260058   3.679   6.303  16.302  0.3047 -0.6414 -0.4380
12856TIP3    H160059   3.673   6.317  16.397  0.4519 -1.0265 -0.3695
12856TIP3    H260060   3.738   6.372  16.271 -3.1282  2.3835 -0.9274
12857TIP3   OH260061   3.782   6.784   2.788  0.0027  0.4334  0.1446
12857TIP3    H160062   3.704   6.822   2.749  0.8571  1.2412 -0.8329
12857TIP3    H260063   3.784   6.694   2.755 -1.7487 -0.3868  2.0628
12858TIP3   OH260064   6.265   2.806   2.733 -0.5620 -0.5435  0.1736
12858TIP3    H160065   6.245   2.788   2.641 -0.2158 -1.0216  0.1858
12858TIP3    H260066   6.347   2.855   2.731 -1.4452  0.9825  0.1482
12859TIP3   OH260067   0.120   4.139  13.799 -0.1744 -0.1351 -0.2353
12859TIP3    H160068   0.031   4.174  13.801  0.0467  0.4486  1.7838
12859TIP3    H260069   0.135   4.107  13.888  1.3664 -0.9194 -0.7418
12860TIP3   OH260070   1.164   1.620   5.051  0.2286  0.1488  0.6952
12860TIP3    H160071   1.237   1.668   5.011 -0.2066  0.3817  0.1736
12860TIP3    H260072   1.205   1.543   5.092  1.0075  1.2110  1.9941
12861TIP3   OH260073   5.708   0.709   4.354 -0.7742 -0.0959  0.0241
12861TIP3    H160074   5.740   0.797   4.337 -1.9087  0.3094 -0.1454
12861TIP3    H260075   5.784   0.652   4.340 -0.0698  0.8349 -0.0126
12862TIP3   OH260076   0.901   4.364   6.598  0.1949  0.3712  0.2005
12862TIP3    H160077   0.959   4.417   6.542  1.4157  0.0034  1.0661
12862TIP3    H260078   0.959   4.329   6.665 -0.4074 -2.5321 -0.6400
12863TIP3   OH260079   0.837   0.455   2.375 -0.0928  0.2526  0.5834
12863TIP3    H160080   0.873   0.380   2.422 -1.8804  0.1779  1.9399
12863TIP3    H260081   0.785   0.502   2.441 -0.4573  1.7016 -0.6755
12864TIP3   OH260082   1.022   5.246   6.339 -0.1534  0.0170 -0.5153
12864TIP3    H160083   0.941   5.195   6.341 -1.0190  1.2822  2.0474
12864TIP3    H260084   0.992   5.337   6.337  1.2795  0.4908 -1.6584
12865TIP3   OH260085   3.729   3.695  14.081  0.2729 -0.3174 -0.4604
12865TIP3    H160086   3.756   3.785  14.061  0.5879 -0.4389 -0.5960
12865TIP3    H260087   3.644   3.685  14.039  0.4674 -0.2435 -0.8767
12866TIP3   OH260088   1.507   2.648   4.977  0.4294 -0.3758 -0.5636
12866TIP3    H160089   1.528   2.578   4.915  0.2860 -1.3356  0.4443
12866TIP3    H260090   1.517   2.607   5.063 -4.8824 -0.8432  0.1395
12867TIP3   OH260091   5.697   5.091   5.512 -0.7031  0.1070 -0.4932
12867TIP3    H160092   5.736   5.179   5.511 -0.6555  0.0879 -0.3946
12867TIP3    H260093   5.640   5.092   5.589  0.6969 -0.5441  0.5868
12868TIP3   OH260094   2.039   3.396   3.603  0.1118 -0.4881  0.0773
12868TIP3    H160095   2.109   3.444   3.558  0.7863 -1.1362  0.4211
12868TIP3    H260096   1.974   3.379   3.536 -0.0116  0.6684 -0.1138
12869TIP3   OH260097   6.370   2.089   0.995  0.3747 -0.1504 -0.4674
12869TIP3    H160098   6.368   1.994   0.983 -0.5991 -0.2554  0.3906
12869TIP3    H260099   6.316   2.124   0.924  0.6215 -0.2463 -0.7020
12870TIP3   OH260100   1.564   2.503   1.685  0.2353  0.3504 -0.6193
12870TIP3    H160101   1.593   2.561   1.614  3.1066  1.3426  1.1881
12870TIP3    H260102   1.607   2.420   1.668 -0.5751  0.0047 -1.0122
12871TIP3   OH260103   2.129   0.181   4.447  0.0118  0.0751 -0.4767
12871TIP3    H160104   2.188   0.184   4.522  0.0635  1.0999 -0.5519
12871TIP3    H260105   2.117   0.272   4.421  0.0662 -0.2665 -1.7790
12872TIP3   OH260106   2.288   3.102  15.255 -0.1070 -0.6802  0.5475
12872TIP3    H160107   2.209   3.053  15.278 -1.4092  0.5229 -1.1634
12872TIP3    H260108   2.269   3.142  15.171  1.5729  1.3177  1.0241
12873TIP3   OH260109   5.247   3.881  11.224 -0.2212 -1.3963  0.2134
12873TIP3    H160110   5.239   3.812  11.158  1.0075 -0.4555 -1.0053
12873TIP3    H260111   5.333   3.865  11.264  0.5282 -0.0621 -0.7730
12874TIP3   OH260112   1.907   5.804  14.102  0.1224  0.2460  0.0936
12874TIP3    H160113   1.879   5.726  14.148 -2.2552  2.1076  2.0654
12874TIP3    H260114   1.848   5.810  14.027  0.7889 -0.2009 -0.4786
12875TIP3   OH260115   6.693   2.164  10.822 -0.3303  1.0022 -0.0134
12875TIP3    H160116   6.646   2.157  10.905 -2.0602 -0.6618 -1.0548
12875TIP3    H260117   6.650   2.236  10.776 -0.4120  0.8796 -0.1257
12876TIP3   OH260118   0.084   2.562  12.477  0.1945 -0.0405  0.2312
12876TIP3    H160119   0.115   2.617  12.550  2.1458  0.4852 -0.9000
12876TIP3    H260120  -0.010   2.577  12.474 -0.2714 -1.3098  3.5963
12877TIP3   OH260121   6.283   5.135   5.916 -0.2299  0.0043  0.1828
12877TIP3    H160122   6.256   5.208   5.861  0.9836 -1.1592 -2.0858
12877TIP3    H260123   6.351   5.170   5.973  1.0146  0.4601 -1.5364
12878TIP3   OH260124   0.060   5.716  14.742 -0.5443 -0.0787  0.6588
12878TIP3    H160125   0.021   5.718  14.654  0.2889  1.7475  0.2739
12878TIP3    H260126  -0.008   5.750  14.799 -0.1537  1.5171  0.2369
12879TIP3   OH260127   4.826   3.502   1.834 -0.0641  0.3582 -0.3120
12879TIP3    H160128   4.831   3.586   1.787  0.9491 -0.3234 -1.4652
12879TIP3    H260129   4.747   3.460   1.800 -1.1252  1.2314  0.9816
12880TIP3   OH260130   3.762   1.634  12.060  0.4387 -0.7888  0.6229
12880TIP3    H160131   3.846   1.670  12.031  0.8220 -1.1695  1.2532
12880TIP3    H260132   3.711   1.627  11.979  0.3427  1.1514  0.4669
12881TIP3   OH260133   0.355   4.409   2.308  0.1498 -0.0341 -0.3236
12881TIP3    H160134   0.280   4.382   2.361  0.9185 -0.7801  0.4246
12881TIP3    H260135   0.428   4.413   2.370  1.1502 -1.2478 -1.3641
12882TIP3   OH260136   4.453   6.051  10.259  0.5649 -0.2330 -0.7151
12882TIP3    H160137   4.436   5.963  10.227  0.8624 -0.7592  0.5132
12882TIP3    H260138   4.445   6.107  10.182  0.7294 -1.3703 -1.5775
12883TIP3   OH260139   4.948   5.180   4.577 -0.0446  0.0608  0.1601
12883TIP3    H160140   5.031   5.198   4.620  0.5483 -1.0896 -0.4508
12883TIP3    H260141   4.966   5.194   4.483 -0.7389  0.4866  0.0823
12884TIP3   OH260142   5.854   4.621   4.513 -0.0272  0.6695  0.5513
12884TIP3    H160143   5.926   4.631   4.575 -0.6096  1.2348  1.1699
12884TIP3    H260144   5.896   4.603   4.429  0.7763 -0.3413  1.1451
12885TIP3   OH260145   5.759   6.124  11.590  0.1150 -0.4884 -0.5835
12885TIP3    H160146   5.838   6.071  11.576  0.1984 -1.3035  2.4252
12885TIP3    H260147   5.706   6.073  11.651 -0.8823  1.8513  0.6300
12886TIP3   OH260148   2.106   3.909  14.794 -0.3636 -0.5147  0.9469
12886TIP3    H160149   2.066   3.985  14.751  0.0983  0.4213  2.1098
12886TIP3    H260150   2.193   3.940  14.820 -0.1588 -1.4626  1.4015
12887TIP3   OH260151   5.554   1.893   3.654  0.4169 -0.1221  0.2752
12887TIP3    H160152   5.550   1.897   3.558  0.7732  0.1264  0.2688
12887TIP3    H260153   5.463   1.885   3.681  0.3699 -1.1798 -0.1264
12888TIP3   OH260154   0.642   4.691   1.321 -0.7399 -0.0232 -0.1592
12888TIP3    H160155   0.697   4.667   1.395  1.4774  2.3545 -0.8731
12888TIP3    H260156   0.648   4.616   1.261  0.7143 -0.3451  0.3583
12889TIP3   OH260157   3.110   3.046   4.054 -0.4137  0.1997 -0.9297
12889TIP3    H160158   3.104   3.014   3.964 -1.5060  0.5686 -1.0036
12889TIP3    H260159   3.039   3.002   4.100  0.0118  0.1650 -0.2879
12890TIP3   OH260160   0.126   1.390   3.556 -0.0590 -0.0391 -0.7231
12890TIP3    H160161   0.133   1.350   3.643 -0.9120  2.3236  0.5085
12890TIP3    H260162   0.163   1.477   3.567 -0.1309  0.2864 -2.7683
12891TIP3   OH260163   6.609   2.184  14.216 -0.1467  0.0537  0.0319
12891TIP3    H160164   6.626   2.277  14.202 -0.6941  0.0248 -0.9071
12891TIP3    H260165   6.622   2.171  14.310 -0.8466  1.2518  0.3164
12892TIP3   OH260166   5.464   3.746  12.696 -0.5777  0.2035  0.6032
12892TIP3    H160167   5.459   3.736  12.791  0.2853 -2.5316  0.4467
12892TIP3    H260168   5.390   3.695  12.663  0.1025 -0.2757 -0.2156
12893TIP3   OH260169   2.860   1.030  15.324  0.1682  0.3351  0.1210
12893TIP3    H160170   2.921   1.065  15.259 -0.2834 -0.3163 -0.6820
12893TIP3    H260171   2.916   0.997  15.394  0.6744  0.9327  0.0075
12894TIP3   OH260172   4.141   4.296  17.045 -0.0462  0.2389 -0.0788
12894TIP3    H160173   4.067   4.286  16.985 -0.3471 -0.1512  0.3444
12894TIP3    H260174   4.212   4.331  16.991  0.2689 -1.8042 -1.0999
12895TIP3   OH260175   3.511   2.937   3.194  0.1226 -0.4894  0.3711
12895TIP3    H160176   3.517   2.980   3.109 -0.1463 -2.9462 -1.0006
12895TIP3    H260177   3.430   2.970   3.233 -0.2472 -0.0256 -0.7645
12896TIP3   OH260178   5.697   6.513  12.753  0.2715 -0.2196  0.0214
12896TIP3    H160179   5.739   6.560  12.825 -1.6086 -1.1126  1.8250
12896TIP3    H260180   5.605   6.538  12.759  0.1047 -0.0658 -2.3317
12897TIP3   OH260181   4.219   2.198  15.424 -0.1037  0.1070 -0.5608
12897TIP3    H160182   4.236   2.273  15.367  0.5839 -0.6139 -1.3235
12897TIP3    H260183   4.164   2.233  15.494  0.2388  1.3271 -0.8892
12898TIP3   OH260184   2.840   1.536   3.660  0.0313 -0.4260 -0.0674
12898TIP3    H160185   2.769   1.542   3.723  0.3132 -0.7850  0.2907
12898TIP3    H260186   2.912   1.495   3.708  0.5171  0.0241 -0.3925
12899TIP3   OH260187   0.027   2.551  16.810 -0.3137 -0.0907 -0.3469
12899TIP3    H160188   0.022   2.621  16.875 -2.4011 -1.4144  1.0565
12899TIP3    H260189   0.116   2.517  16.817 -0.3917  0.0168  1.6372
12900TIP3   OH260190   1.751   4.623   2.086 -0.1631 -0.0730  0.6566
12900TIP3    H160191   1.709   4.651   2.167  1.3954 -0.3169  1.5988
12900TIP3    H260192   1.792   4.539   2.108 -2.0232 -1.5618 -1.1867
12901TIP3   OH260193   1.153   3.755   1.509  0.4680  0.1724 -0.2893
12901TIP3    H160194   1.107   3.822   1.559  0.2631  1.3881 -2.0149
12901TIP3    H260195   1.188   3.801   1.433  1.1509 -1.4983 -1.0516
12902TIP3   OH260196   1.420   5.603   4.649 -0.0526  0.2381 -0.3770
12902TIP3    H160197   1.419   5.562   4.735 -0.3474 -0.7615 -0.8396
12902TIP3    H260198   1.493   5.561   4.603  0.9402  1.7082 -0.1883
12903TIP3   OH260199   3.077   5.904  12.739 -0.5282 -0.1498 -0.5177
12903TIP3    H160200   3.112   5.886  12.826  1.5796 -1.6529 -1.5872
12903TIP3    H260201   3.149   5.947  12.693 -1.3195 -0.1093 -1.7644
12904TIP3   OH260202   6.495   2.497   1.361  0.7443  0.0359 -0.2557
12904TIP3    H160203   6.539   2.537   1.286 -0.7254 -1.1230 -1.8041
12904TIP3    H260204   6.403   2.494   1.336  0.2890 -0.8884  1.3796
12905TIP3   OH260205   3.657   5.403   0.045 -0.3436 -0.2810  0.1804
12905TIP3    H160206   3.638   5.312   0.070 -0.8012 -0.3490 -0.3857
12905TIP3    H260207   3.571   5.439   0.023  0.1897 -1.1201 -4.3229
12906TIP3   OH260208   2.661   3.379   4.658  0.1267 -0.2118 -0.3492
12906TIP3    H160209   2.580   3.417   4.622  0.5833  1.1483 -0.0015
12906TIP3    H260210   2.633   3.334   4.737 -0.1097  1.6202  0.6701
12907TIP3   OH260211   4.373   3.320  10.497 -0.7315  0.2787 -0.8725
12907TIP3    H160212   4.430   3.261  10.447 -0.6575 -0.3746 -0.0417
12907TIP3    H260213   4.374   3.402  10.448  0.5866  0.1455 -1.1083
12908TIP3   OH260214   1.928   0.895  12.869  0.3329  0.8018 -0.2024
12908TIP3    H160215   1.927   0.941  12.785 -0.7616  2.1262  0.4981
12908TIP3    H260216   1.872   0.819  12.855 -0.3347  1.3407 -0.5044
12909TIP3   OH260217   5.588   0.186  16.327  1.0796  0.1965 -0.3052
12909TIP3    H160218   5.634   0.135  16.394  0.9923  0.2695 -0.1904
12909TIP3    H260219   5.575   0.124  16.254  1.0900  0.0917 -0.2177
12910TIP3   OH260220   3.338   5.385  12.051 -0.6389  0.0494  0.2291
12910TIP3    H160221   3.361   5.442  11.978 -0.4688  0.6016  0.7046
12910TIP3    H260222   3.399   5.311  12.045 -0.2779  0.3557  0.1223
12911TIP3   OH260223   5.904   5.496  12.963 -0.4094  0.1524  0.2308
12911TIP3    H160224   5.933   5.586  12.952 -1.2319  0.4248  0.2093
12911TIP3    H260225   5.862   5.474  12.880 -0.8834  0.0075  0.5085
12912TIP3   OH260226   2.402   2.169   4.987  0.3854 -0.1384 -0.5194
12912TIP3    H160227   2.450   2.240   4.945  0.4109  0.8063  0.9919
12912TIP3    H260228   2.328   2.213   5.030 -1.2311 -1.4168 -1.8672
12913TIP3   OH260229   6.747   0.991   2.558 -0.3282 -0.0790 -0.6524
12913TIP3    H160230   6.826   0.938   2.570  0.5502  1.2422 -0.3337
12913TIP3    H260231   6.771   1.077   2.594 -2.4092 -0.0562  0.8338
12914TIP3   OH260232   0.510   0.243   2.966  0.5476 -0.5209  0.2564
12914TIP3    H160233   0.527   0.163   2.918  0.9214 -1.4486  1.8620
12914TIP3    H260234   0.426   0.229   3.008  0.8900 -0.3232  1.0238
12915TIP3   OH260235   5.721   4.098   3.961 -0.5317  0.8639  0.2564
12915TIP3    H160236   5.812   4.069   3.963  0.0039  2.1918 -2.0692
12915TIP3    H260237   5.670   4.017   3.950  0.4249  0.2120  0.5122
12916TIP3   OH260238   1.436   2.129   4.433  0.2290  0.2624  0.2884
12916TIP3    H160239   1.456   2.196   4.367  0.9472  0.9029  1.1383
12916TIP3    H260240   1.447   2.046   4.386 -1.0703  0.7093 -0.8922
12917TIP3   OH260241   0.568   5.237   3.965 -0.2303 -0.2686  0.5185
12917TIP3    H160242   0.609   5.315   3.927  0.1119 -0.7739 -0.1764
12917TIP3    H260243   0.618   5.164   3.929 -0.4240 -0.8073  1.3195
12918TIP3   OH260244   4.982   1.074  12.593 -0.3326 -0.2051  0.6321
12918TIP3    H160245   5.056   1.107  12.645 -1.0139  0.5391  1.1617
12918TIP3    H260246   5.021   1.013  12.532  0.8039  0.5769  0.5422
12919TIP3   OH260247   6.475   2.331   3.562 -0.0935 -0.3677 -0.3609
12919TIP3    H160248   6.544   2.346   3.497 -0.1052 -0.6683 -0.4456
12919TIP3    H260249   6.411   2.400   3.545  0.7469  0.6627  0.5028
12920TIP3   OH260250   0.102   6.702   3.048 -0.3811  0.3013  0.4215
12920TIP3    H160251   0.050   6.755   2.988 -0.7308  0.7885  1.1496
12920TIP3    H260252   0.185   6.690   3.002 -0.5355  0.9213 -0.0359
12921TIP3   OH260253   6.157   3.190  13.655  0.1428 -0.4300 -0.1932
12921TIP3    H160254   6.249   3.209  13.673  0.0232 -0.0719  0.0526
12921TIP3    H260255   6.140   3.232  13.570  0.5560 -1.6392 -0.9016
12922TIP3   OH260256   4.090   0.416   5.368  0.2812 -0.5212  0.4655
12922TIP3    H160257   4.146   0.457   5.303 -0.5416 -2.1008 -1.3477
12922TIP3    H260258   4.142   0.344   5.403  0.2105 -0.5503  0.5125
12923TIP3   OH260259   2.337   6.258  13.083 -0.4558 -0.6568 -0.0241
12923TIP3    H160260   2.317   6.213  13.165 -1.1637 -0.8164 -0.2751
12923TIP3    H260261   2.409   6.317  13.105 -0.9157 -0.3949  0.8071
12924TIP3   OH260262   2.663   4.110  12.489  0.2258 -0.1876 -0.2443
12924TIP3    H160263   2.751   4.111  12.453  0.2741 -1.0612 -0.1752
12924TIP3    H260264   2.674   4.083  12.580  0.1252  2.1862  0.5386
12925TIP3   OH260265   2.889   0.501  17.096 -0.3877  0.5228  0.1302
12925TIP3    H160266   2.866   0.576  17.041 -1.0699  0.2875  0.0771
12925TIP3    H260267   2.890   0.535  17.185 -1.8522  0.3630  0.2314
12926TIP3   OH260268   5.447   1.153   5.637  0.4472 -0.1137 -0.2117
12926TIP3    H160269   5.359   1.178   5.608 -1.0071 -1.2245  2.7810
12926TIP3    H260270   5.472   1.081   5.579 -0.9029 -0.2183 -0.6966
12927TIP3   OH260271   6.336   5.949  15.404  0.3210  0.4195  0.0505
12927TIP3    H160272   6.385   5.875  15.369  0.0797  1.1480 -1.9429
12927TIP3    H260273   6.382   5.973  15.484  1.4588 -0.7407 -0.2346
12928TIP3   OH260274   1.514   5.527   1.317 -0.5354  0.1901 -0.1422
12928TIP3    H160275   1.520   5.479   1.400 -2.3220  1.6839  0.9438
12928TIP3    H260276   1.605   5.544   1.293  0.0485 -1.1143  1.0041
12929TIP3   OH260277   3.031   5.118   4.155 -0.1519 -0.1421 -0.1476
12929TIP3    H160278   3.029   5.099   4.249  0.7634 -0.8831 -0.2520
12929TIP3    H260279   3.038   5.213   4.149  1.3587 -0.1748  0.5957
12930TIP3   OH260280   6.103   3.912   5.988 -0.4443 -0.1241  0.1811
12930TIP3    H160281   6.135   3.986   6.040 -0.8978 -1.4344  2.4532
12930TIP3    H260282   6.008   3.921   5.988 -0.4485  1.2030 -2.6596
12931TIP3   OH260283   6.098   5.685   5.559  0.1894 -0.0698 -0.0260
12931TIP3    H160284   6.032   5.643   5.504 -2.0277  2.1981  0.7287
12931TIP3    H260285   6.091   5.778   5.539  1.9922  0.4258  1.3540
12932TIP3   OH260286   0.692   1.692   5.231  0.3408  0.4620  0.5804
12932TIP3    H160287   0.696   1.787   5.235  1.4022  0.3951  1.9380
12932TIP3    H260288   0.754   1.668   5.163 -0.1597  0.7474  0.0189
12933TIP3   OH260289   4.247   3.663  11.114 -0.0119 -0.0912  0.8534
12933TIP3    H160290   4.200   3.722  11.173 -1.9644  1.7476 -2.2733
12933TIP3    H260291   4.184   3.593  11.096 -0.7846  1.0682 -1.3961
12934TIP3   OH260292   5.854   3.637  13.165  0.0540 -0.4198 -1.0286
12934TIP3    H160293   5.880   3.719  13.208  0.1748 -1.0623  0.1675
12934TIP3    H260294   5.777   3.607  13.214 -0.4063 -0.6845 -1.8878
12935TIP3   OH260295   6.066   0.059  12.865  0.3240 -0.0927  0.2896
12935TIP3    H160296   6.145   0.062  12.811  0.1989 -1.5774 -0.0065
12935TIP3    H260297   6.036   0.150  12.868  1.4462  0.3297 -0.4714
12936TIP3   OH260298   1.583   1.777   4.458  0.0142 -0.1033  0.4703
12936TIP3    H160299   1.623   1.829   4.528 -1.8163 -0.9938  2.3007
12936TIP3    H260300   1.642   1.703   4.445  0.3638  0.0532  1.1201
12937TIP3   OH260301   4.110   4.357   0.016 -0.8193 -0.0035 -0.6757
12937TIP3    H160302   4.093   4.352  -0.078 -3.1689 -0.2660 -0.2882
12937TIP3    H260303   4.165   4.434   0.027 -0.9146  0.3052 -2.2126
12938TIP3   OH260304   2.647   6.818  14.684 -0.1169 -0.4882 -0.1659
12938TIP3    H160305   2.698   6.796  14.606  1.6774  1.1412  0.4665
12938TIP3    H260306   2.648   6.913  14.686 -2.3029 -0.4364  0.5168
12939TIP3   OH260307   2.811   5.848   4.570  0.1853 -0.7156 -0.4581
12939TIP3    H160308   2.758   5.809   4.639  0.1148  0.1046 -0.0427
12939TIP3    H260309   2.757   5.840   4.491 -0.7751  0.5227  0.0409
12940TIP3   OH260310   4.886   3.455   5.594 -0.3702 -0.3131  0.2388
12940TIP3    H160311   4.860   3.445   5.502 -0.2689 -0.9978  0.2804
12940TIP3    H260312   4.922   3.544   5.599  0.2846 -0.5231 -0.5437
12941TIP3   OH260313   2.596   2.493   0.158 -0.1344 -0.3761 -0.2888
12941TIP3    H160314   2.576   2.572   0.208  1.5547 -0.5538  0.7464
12941TIP3    H260315   2.662   2.448   0.210  1.6495 -0.6304 -2.6039
12942TIP3   OH260316   0.096   2.685  12.731 -0.4296  0.8827  0.1347
12942TIP3    H160317   0.077   2.779  12.737  0.7658  1.1414  0.0750
12942TIP3    H260318   0.055   2.648  12.810  0.5627  1.7316  1.0911
12943TIP3   OH260319   1.739   5.207  15.901  0.0219 -0.6488  0.1219
12943TIP3    H160320   1.768   5.270  15.968 -0.0993 -1.9108  1.4263
12943TIP3    H260321   1.650   5.184  15.928 -0.2935 -0.6512 -0.9033
12944TIP3   OH260322   4.977   5.028   0.759  0.2166 -0.5428  0.1006
12944TIP3    H160323   4.976   5.107   0.704 -0.1439 -0.9850 -0.5453
12944TIP3    H260324   4.953   4.958   0.699 -1.0002 -0.9310  1.0078
12945TIP3   OH260325   2.148   1.415  16.343 -0.5573 -0.2094 -0.7286
12945TIP3    H160326   2.155   1.343  16.405  0.4674  1.4645  1.1804
12945TIP3    H260327   2.063   1.402  16.301  0.3209 -3.5033 -1.8131
12946TIP3   OH260328   2.556   4.402   3.308  0.8009 -0.3591  0.0835
12946TIP3    H160329   2.512   4.476   3.350  0.5745  0.4865 -1.5256
12946TIP3    H260330   2.515   4.324   3.345  0.4595  0.3439  1.2195
12947TIP3   OH260331   2.248   3.563   2.514 -0.6113 -0.1372  0.2876
12947TIP3    H160332   2.173   3.549   2.456 -0.7792 -2.7182  1.0169
12947TIP3    H260333   2.209   3.569   2.602 -0.0079 -2.6121  0.8139
12948TIP3   OH260334   1.447   5.928  11.053  0.9353 -0.1120  0.1435
12948TIP3    H160335   1.422   5.840  11.027  3.1792 -0.1039 -2.4352
12948TIP3    H260336   1.406   5.985  10.987  0.8783  0.6496  0.8141
12949TIP3   OH260337   2.624   4.869  11.377  0.5591  0.0265 -0.5809
12949TIP3    H160338   2.654   4.957  11.354  0.5241 -0.0328 -0.8586
12949TIP3    H260339   2.586   4.835  11.296  1.6958 -0.7149 -0.8161
12950TIP3   OH260340   4.298   0.934  17.184  0.1474  0.4335 -0.4370
12950TIP3    H160341   4.285   0.970  17.096 -2.3381  0.1323 -0.2721
12950TIP3    H260342   4.211   0.902  17.209  1.1100 -0.7323  1.5908
12951TIP3   OH260343   2.093   1.664   4.391  0.2159 -0.3334 -0.1917
12951TIP3    H160344   2.044   1.644   4.311 -0.8417 -3.2263  1.0632
12951TIP3    H260345   2.184   1.673   4.361  0.0221 -2.3986 -1.6494
12952TIP3   OH260346   4.048   4.571  13.383 -0.3615 -0.3480  0.2801
12952TIP3    H160347   3.963   4.569  13.340  0.0571 -1.0747 -0.5332
12952TIP3    H260348   4.029   4.601  13.472 -1.2178  1.4888 -0.4509
12953TIP3   OH260349   0.579   3.111   3.985  0.2891  0.1955  0.5405
12953TIP3    H160350   0.631   3.032   4.000  0.7896  0.5885  0.9592
12953TIP3    H260351   0.502   3.100   4.041  0.8444  0.4397  1.3811
12954TIP3   OH260352   0.321   2.452  11.329 -0.0439 -0.3741  0.4404
12954TIP3    H160353   0.374   2.435  11.251  0.4390 -0.0162  0.6857
12954TIP3    H260354   0.349   2.386  11.393  0.1070 -0.1886  0.5680
12955TIP3   OH260355   6.022   5.431   2.255 -0.4832 -0.0947 -0.4057
12955TIP3    H160356   6.073   5.392   2.325 -0.2152 -1.0380 -1.1104
12955TIP3    H260357   6.061   5.517   2.242 -0.5813  0.1214  0.6349
12956TIP3   OH260358   1.222   5.880   2.604  0.1923  0.3724  0.0911
12956TIP3    H160359   1.131   5.863   2.627  1.0374 -1.3206  2.7079
12956TIP3    H260360   1.272   5.826   2.665  2.9558  0.6287 -1.7612
12957TIP3   OH260361   2.188   5.491  15.532  0.4025 -0.3223 -0.2962
12957TIP3    H160362   2.259   5.428  15.543 -0.2187 -0.7904  1.2257
12957TIP3    H260363   2.126   5.471  15.602 -1.4991 -0.2599 -1.8755
12958TIP3   OH260364   3.759   1.339  11.970 -0.8856 -0.2045 -0.0209
12958TIP3    H160365   3.746   1.284  12.048 -1.5293  0.6808  0.5211
12958TIP3    H260366   3.775   1.426  12.005  1.9323 -0.3007 -0.8099
12959TIP3   OH260367   0.067   1.910   3.236  0.2184 -0.2567  0.2985
12959TIP3    H160368   0.144   1.962   3.256  1.1617 -0.6779 -1.9369
12959TIP3    H260369  -0.005   1.973   3.231  1.3670  1.0072 -2.5937
12960TIP3   OH260370   3.692   3.660   2.554 -1.0040 -0.0257  0.5335
12960TIP3    H160371   3.725   3.570   2.554 -0.3021  0.1989  1.8045
12960TIP3    H260372   3.766   3.712   2.587 -1.8562  0.8190  1.1505
12961TIP3   OH260373   3.789   2.802   0.027 -0.1589  0.1984 -0.1400
12961TIP3    H160374   3.701   2.763   0.027 -0.4575  0.8659 -0.2931
12961TIP3    H260375   3.817   2.795   0.118  0.3182 -1.5191 -0.3758
12962TIP3   OH260376   4.540   6.327   1.558 -0.3127  0.4719 -0.0133
12962TIP3    H160377   4.459   6.285   1.588  0.7434 -1.2166  0.6407
12962TIP3    H260378   4.575   6.266   1.493  0.3350  1.2996 -0.4491
12963TIP3   OH260379   1.988   0.236  11.207  0.0297 -0.1348  0.3471
12963TIP3    H160380   2.037   0.305  11.161 -0.5475  0.9477  1.3021
12963TIP3    H260381   2.047   0.161  11.208  1.1869  0.7551  0.3925
12964TIP3   OH260382   0.276   4.367   3.992  0.2046  0.1347 -0.3007
12964TIP3    H160383   0.359   4.376   3.945 -0.3838 -0.2120 -1.4351
12964TIP3    H260384   0.296   4.395   4.081  1.5130  0.1664 -0.5855
12965TIP3   OH260385   0.325   0.961   1.601 -0.3735 -0.7498 -0.5465
12965TIP3    H160386   0.267   0.916   1.539 -2.3321  0.9701 -0.0981
12965TIP3    H260387   0.365   1.031   1.551  1.1565 -1.7379 -0.7706
12966TIP3   OH260388   4.379   1.637   0.778 -0.7639  0.1648  0.1062
12966TIP3    H160389   4.424   1.639   0.863 -0.1303  2.0397 -0.2192
12966TIP3    H260390   4.381   1.545   0.752  0.3668 -0.2242  1.4370
12967TIP3   OH260391   1.730   1.886  15.287 -0.3268  0.1229 -0.1086
12967TIP3    H160392   1.735   1.843  15.202 -0.4173 -0.2294  0.0625
12967TIP3    H260393   1.821   1.908  15.307 -0.0705 -1.3577  0.4890
12968TIP3   OH260394   5.671   5.861  12.057  0.2087  0.0405  0.3490
12968TIP3    H160395   5.590   5.814  12.079 -0.4336  0.0057 -1.7983
12968TIP3    H260396   5.727   5.850  12.133 -1.7903  0.0399  1.9054
12969TIP3   OH260397   2.617   0.624  13.051  0.2570 -0.1766  0.0456
12969TIP3    H160398   2.570   0.540  13.052 -0.2492  0.0681 -1.4809
12969TIP3    H260399   2.611   0.654  12.961  1.1804  1.1032  0.3857
12970TIP3   OH260400   3.243   6.563  15.275  0.0890 -0.6585 -0.1707
12970TIP3    H160401   3.160   6.532  15.240 -0.4374  0.7340 -0.1936
12970TIP3    H260402   3.269   6.635  15.217  1.0175 -0.6993  0.1750
12971TIP3   OH260403   5.500   4.448   0.229 -0.5815 -0.2396  0.1931
12971TIP3    H160404   5.504   4.512   0.159  4.0187 -0.0147  0.3460
12971TIP3    H260405   5.462   4.495   0.303 -0.3537  1.2327 -0.6005
12972TIP3   OH260406   5.010   0.259  11.160  0.6373  0.3405  0.2388
12972TIP3    H160407   5.030   0.314  11.084  0.0378  0.6910  0.3250
12972TIP3    H260408   5.032   0.314  11.235  1.8148 -0.2280  0.3323
12973TIP3   OH260409   3.349   1.128   2.730  0.4102  0.1205 -0.0215
12973TIP3    H160410   3.331   1.048   2.681  0.6485  0.9493 -1.5112
12973TIP3    H260411   3.442   1.144   2.715  0.1227  1.2693 -0.6830
12974TIP3   OH260412   0.059   2.057  13.890 -0.3191 -0.1423 -0.0221
12974TIP3    H160413   0.081   1.981  13.837  0.4540  0.3616 -0.4314
12974TIP3    H260414   0.100   2.039  13.975 -0.7755 -0.5158  0.1303
12975TIP3   OH260415   4.972   4.575  12.294 -0.1249  0.1551 -0.1023
12975TIP3    H160416   4.877   4.583  12.308 -0.2299 -1.1134  0.0370
12975TIP3    H260417   4.980   4.551  12.202  0.1277  1.1036 -0.3390
12976TIP3   OH260418   6.263   0.427  15.666  0.0574  0.1183  0.4782
12976TIP3    H160419   6.169   0.444  15.667 -0.1364 -0.9225  1.9214
12976TIP3    H260420   6.301   0.505  15.625 -1.4904  0.1522 -0.9879
12977TIP3   OH260421   6.528   1.829  15.565 -0.3958 -0.0642  0.7271
12977TIP3    H160422   6.555   1.774  15.492 -0.8288  1.0245 -0.2903
12977TIP3    H260423   6.482   1.902  15.524  0.8446  1.4816  1.9648
12978TIP3   OH260424   1.322   3.038  13.855 -0.4479 -0.1428  0.1714
12978TIP3    H160425   1.361   3.125  13.844 -2.3661  0.6954 -0.6137
12978TIP3    H260426   1.387   2.988  13.904  1.7779  0.9479 -1.5217
12979TIP3   OH260427   1.328   0.980   3.295  0.8796 -0.4533 -0.1984
12979TIP3    H160428   1.266   0.932   3.350  0.2200 -0.6386 -1.0824
12979TIP3    H260429   1.409   0.980   3.345  0.9015 -2.4750 -0.1333
12980TIP3   OH260430   6.738   1.813  16.115  0.8676  0.0050 -0.1654
12980TIP3    H160431   6.745   1.908  16.120  2.4432 -0.0653 -0.3068
12980TIP3    H260432   6.819   1.782  16.156  0.0015 -1.3022  0.6239
12981TIP3   OH260433   0.331   2.004   2.350  0.0031 -0.1644  0.3819
12981TIP3    H160434   0.373   2.090   2.350 -0.8495  0.2667  1.3413
12981TIP3    H260435   0.368   1.959   2.426  1.9621 -1.4628 -1.2004
12982TIP3   OH260436   0.225   6.170   5.736 -0.6729  0.3975  0.2244
12982TIP3    H160437   0.202   6.085   5.699  2.7964 -0.5377 -0.2181
12982TIP3    H260438   0.241   6.153   5.829  1.1311  0.2136 -0.0788
12983TIP3   OH260439   1.033   1.493  16.729 -0.0294 -0.2177 -0.0785
12983TIP3    H160440   0.978   1.495  16.651 -1.4001  0.0315  0.8568
12983TIP3    H260441   1.022   1.404  16.763 -0.9618  0.2279  0.8450
12984TIP3   OH260442   6.398   3.571   5.189 -0.0487  0.3536 -0.0914
12984TIP3    H160443   6.349   3.653   5.191 -0.0826  0.3697 -1.0437
12984TIP3    H260444   6.331   3.502   5.187 -0.0410  0.3645 -1.0349
12985TIP3   OH260445   6.007   2.152   4.939  0.8474  0.9267  0.0527
12985TIP3    H160446   5.927   2.205   4.941  0.6171  0.5615  1.0020
12985TIP3    H260447   6.060   2.192   4.871 -1.1631 -0.2998 -2.4392
12986TIP3   OH260448   4.618   0.893   2.310  0.3400 -1.1228  0.6113
12986TIP3    H160449   4.673   0.920   2.237  0.1460 -0.3684  0.7369
12986TIP3    H260450   4.551   0.837   2.270 -1.7400  1.8199 -0.4242
12987TIP3   OH260451   0.876   5.922  13.259 -0.1204  0.1213  0.8958
12987TIP3    H160452   0.928   5.864  13.315 -1.2331 -1.5627  0.2462
12987TIP3    H260453   0.812   5.865  13.218 -0.7577  1.6967 -0.4039
12988TIP3   OH260454   4.435   4.415   1.160 -0.6464 -0.3925  0.0550
12988TIP3    H160455   4.343   4.410   1.186 -1.6407 -0.5847 -3.0842
12988TIP3    H260456   4.448   4.339   1.104  0.0890  1.8369 -3.0493
12989TIP3   OH260457   4.432   6.581  11.079 -0.1695  0.1234  0.1173
12989TIP3    H160458   4.392   6.496  11.100 -1.1186  0.4381 -0.3769
12989TIP3    H260459   4.383   6.613  11.004  0.5141  0.8903 -0.0165
12990TIP3   OH260460   1.924   1.625   1.278 -0.1562  0.0557 -0.3255
12990TIP3    H160461   1.913   1.720   1.286  1.3161  0.1156  2.1497
12990TIP3    H260462   1.842   1.589   1.314  0.1887  0.4284  0.8827
12991TIP3   OH260463   2.775   0.189  16.220  0.4228  0.1279 -0.4086
12991TIP3    H160464   2.869   0.173  16.220  0.4114  0.0510 -1.0639
12991TIP3    H260465   2.738   0.109  16.258  0.6698  0.5103  0.6704
12992TIP3   OH260466   4.664   1.390   4.886 -0.0032  0.0504 -0.0366
12992TIP3    H160467   4.630   1.378   4.974 -0.5978 -2.5476 -0.5387
12992TIP3    H260468   4.752   1.353   4.888  0.0268  0.0818 -0.4886
12993TIP3   OH260469   1.466   2.205  15.463  0.0458 -0.0945 -0.0637
12993TIP3    H160470   1.468   2.213  15.558 -0.1192  1.2694 -0.1582
12993TIP3    H260471   1.491   2.114  15.446  1.3742 -0.0099  1.2289
12994TIP3   OH260472   1.860   3.936  13.691  0.0764 -0.1323  0.0210
12994TIP3    H160473   1.913   3.948  13.612  0.8715 -0.2656  0.5335
12994TIP3    H260474   1.923   3.919  13.761 -0.7014 -1.9419  0.3440
12995TIP3   OH260475   0.171   6.386   0.713  0.1976 -0.1528  0.3363
12995TIP3    H160476   0.146   6.370   0.804  1.8538  0.5808  0.9607
12995TIP3    H260477   0.099   6.349   0.662 -0.6738 -0.7715  1.9232
12996TIP3   OH260478   0.902   4.896   4.382 -0.5257 -0.0681 -0.4016
12996TIP3    H160479   0.991   4.914   4.415 -0.3665 -1.3322 -0.0933
12996TIP3    H260480   0.916   4.838   4.307 -1.1167 -0.7871  0.0398
12997TIP3   OH260481   6.194   3.452   5.058  0.0564  0.2096  0.0326
12997TIP3    H160482   6.116   3.424   5.106  0.5446 -0.1836  0.6109
12997TIP3    H260483   6.161   3.509   4.989 -0.6886  0.5411  0.6474
12998TIP3   OH260484   2.124   0.860   3.235 -0.3076 -0.5065  0.1136
12998TIP3    H160485   2.159   0.775   3.210  0.4888 -0.5221  1.2421
12998TIP3    H260486   2.193   0.922   3.213 -0.2317 -0.3423  0.7912
12999TIP3   OH260487   6.624   3.444   5.271  0.7877  0.0515 -0.4307
12999TIP3    H160488   6.562   3.513   5.249 -0.2964 -1.6009 -2.9734
12999TIP3    H260489   6.571   3.364   5.276  2.1107 -0.7858  1.6833
13000TIP3   OH260490   2.007   2.726  16.564  0.1200 -0.3716  0.0925
13000TIP3    H160491   1.920   2.711  16.528  0.4229 -0.3996 -0.6424
13000TIP3    H260492   2.058   2.651  16.534  0.7519  0.3479 -0.6808
13001TIP3   OH260493   4.852   2.509   0.111  0.0941  0.0319  0.4013
13001TIP3    H160494   4.835   2.522   0.018  0.4244 -1.8151  0.0421
13001TIP3    H260495   4.783   2.558   0.155  0.3356  1.5223 -0.7646
13002TIP3   OH260496   3.471   4.495  11.923  0.0563  0.3572 -0.1172
13002TIP3    H160497   3.395   4.524  11.873  0.0484 -1.2658 -1.1280
13002TIP3    H260498   3.536   4.564  11.910 -0.0246  0.1057 -2.2356
13003TIP3   OH260499   3.866   3.421  13.266  0.2984 -0.4365  0.3738
13003TIP3    H160500   3.892   3.331  13.287  0.4105 -0.2357  1.1351
13003TIP3    H260501   3.869   3.425  13.171  1.4350 -0.9063  0.3701
13004TIP3   OH260502   3.288   2.162   6.068  0.5954 -0.3860 -0.2089
13004TIP3    H160503   3.347   2.237   6.080 -0.0113  0.1275 -0.3882
13004TIP3    H260504   3.276   2.127   6.156  0.8421 -0.2429 -0.1167
13005TIP3   OH260505   4.511   6.084   4.694  0.4208 -0.0567 -0.2055
13005TIP3    H160506   4.487   6.014   4.754  2.0964  0.8994  1.6961
13005TIP3    H260507   4.599   6.061   4.664  0.5466  0.6738 -0.4143
13006TIP3   OH260508   2.744   1.688   0.898  0.3398  0.0734 -0.1327
13006TIP3    H160509   2.814   1.660   0.957 -1.4434  1.2710  2.8214
13006TIP3    H260510   2.711   1.607   0.859  2.1112 -0.6859 -0.1572
13007TIP3   OH260511   4.772   2.612  17.151  0.0110 -0.1854  0.2015
13007TIP3    H160512   4.687   2.655  17.158 -0.5340 -0.5605 -2.9615
13007TIP3    H260513   4.768   2.561  17.070  2.6528 -1.6395  0.8439
13008TIP3   OH260514   0.542   0.009  14.401  0.1237  0.5868  0.2661
13008TIP3    H160515   0.538  -0.071  14.453  0.7890  0.0375 -0.4992
13008TIP3    H260516   0.453   0.045  14.404 -0.3497 -0.5420  0.0707
13009TIP3   OH260517   3.792   1.360  10.889 -0.7470 -0.0105  0.0265
13009TIP3    H160518   3.869   1.348  10.945  0.4093 -1.1805 -1.6901
13009TIP3    H260519   3.812   1.309  10.810 -2.5665  1.0361 -1.1856
13010TIP3   OH260520   2.043   4.125   0.171  0.6821 -0.2759  0.3600
13010TIP3    H160521   1.953   4.098   0.188  0.9272 -0.4691  1.4368
13010TIP3    H260522   2.095   4.047   0.186  1.0372 -0.1748 -0.3019
13011TIP3   OH260523   0.802   5.681   5.352 -0.2283 -0.4677 -0.7972
13011TIP3    H160524   0.855   5.680   5.432  0.9948  0.1929 -1.5747
13011TIP3    H260525   0.728   5.624   5.372  0.6618 -1.2578  0.3957
13012TIP3   OH260526   0.621   5.138  13.606 -0.2231 -0.6124 -0.2776
13012TIP3    H160527   0.565   5.204  13.567  2.1269  1.6053 -0.1671
13012TIP3    H260528   0.623   5.160  13.699 -0.9734 -2.1153  0.1203
13013TIP3   OH260529   5.644   1.635   6.638 -0.2097 -0.2109  0.2137
13013TIP3    H160530   5.697   1.632   6.717  1.8875 -1.1458 -1.1340
13013TIP3    H260531   5.569   1.578   6.657  0.1471 -0.2589  1.5721
13014TIP3   OH260532   0.603   3.487   1.593 -0.0560  0.3654 -0.3389
13014TIP3    H160533   0.697   3.486   1.577  0.0505 -1.5786  0.1860
13014TIP3    H260534   0.565   3.435   1.522 -0.6046  0.1962  0.0707
13015TIP3   OH260535   6.769   0.114  13.385 -0.1571  0.1828 -0.3892
13015TIP3    H160536   6.840   0.147  13.330  0.0725 -1.4631 -1.1296
13015TIP3    H260537   6.814   0.066  13.455 -0.5052  0.4508  0.0214
13016TIP3   OH260538   3.719   1.268   1.146  0.0678  0.1273 -0.2355
13016TIP3    H160539   3.642   1.244   1.095  0.2207  0.5339 -0.6609
13016TIP3    H260540   3.705   1.226   1.231 -0.9481  0.7680 -0.0764
13017TIP3   OH260541   2.297   0.845   5.162 -0.2797  0.2482 -0.5891
13017TIP3    H160542   2.300   0.858   5.257  1.1832  0.7572 -0.6685
13017TIP3    H260543   2.361   0.775   5.146 -2.2307 -1.5250 -0.9933
13018TIP3   OH260544   1.548   4.385  12.398  0.1130 -0.0097 -0.5607
13018TIP3    H160545   1.507   4.467  12.423 -0.5491 -0.5888  0.3190
13018TIP3    H260546   1.585   4.351  12.480  1.5067  0.0215 -1.1471
13019TIP3   OH260547   6.532   1.518  15.649  0.2617  0.2462  0.3259
13019TIP3    H160548   6.607   1.468  15.616  1.1719  1.3537  0.6499
13019TIP3    H260549   6.459   1.491  15.593  1.0357 -0.3766 -0.4178
13020TIP3   OH260550   1.406   0.127  16.878  0.1441  0.3881 -0.6103
13020TIP3    H160551   1.457   0.126  16.797 -0.1855 -1.4959 -0.8448
13020TIP3    H260552   1.416   0.039  16.913 -0.5127  0.8868  0.9148
13021TIP3   OH260553   2.066   0.709   2.258  0.5597  0.0260 -0.4184
13021TIP3    H160554   2.025   0.630   2.293  1.7583 -0.9762 -1.2137
13021TIP3    H260555   2.009   0.737   2.187 -0.8134  0.9287  0.9607
13022TIP3   OH260556   2.126   3.790   2.162 -0.9613  0.1561  0.1220
13022TIP3    H160557   2.171   3.750   2.088 -0.8673  1.0605 -0.3167
13022TIP3    H260558   2.053   3.731   2.181  0.7341 -1.6879  1.2514
13023TIP3   OH260559   0.294   1.878  16.435  0.6301 -0.0778  0.5558
13023TIP3    H160560   0.340   1.842  16.360  1.3081 -0.6838  1.2517
13023TIP3    H260561   0.352   1.863  16.509 -1.5030 -2.8368  1.8737
13024TIP3   OH260562   1.437   3.797  17.290 -0.7087 -0.4703 -0.0055
13024TIP3    H160563   1.361   3.834  17.246 -1.3535 -1.0329  0.6139
13024TIP3    H260564   1.434   3.834  17.378  0.6897  0.8169 -0.4377
13025TIP3   OH260565   3.041   2.284   0.287  0.2171  0.5434  0.7906
13025TIP3    H160566   3.093   2.212   0.322 -2.7227 -1.6725  0.9539
13025TIP3    H260567   3.095   2.320   0.216  2.4388 -0.7289  1.7275
13026TIP3   OH260568   0.604   1.077  11.126 -0.0266  0.7128  0.8998
13026TIP3    H160569   0.686   1.066  11.078 -0.9203  2.0512 -1.0699
13026TIP3    H260570   0.620   1.150  11.186  0.6407  0.0224  1.5755
13027TIP3   OH260571   5.343   3.347  11.212 -0.0547 -0.2138  0.0979
13027TIP3    H160572   5.377   3.399  11.140  1.5126  0.1236  1.0432
13027TIP3    H260573   5.393   3.375  11.288  0.8354 -3.0400  0.6676
13028TIP3   OH260574   0.736   5.626  15.039 -0.2269 -0.6896 -0.2320
13028TIP3    H160575   0.729   5.540  14.999 -1.7257 -1.4998  1.6173
13028TIP3    H260576   0.646   5.659  15.043  0.2788  0.8344 -0.5863
13029TIP3   OH260577   5.765   5.866  12.323 -0.4732  0.1504 -0.5886
13029TIP3    H160578   5.856   5.838  12.310 -0.0233  2.0832 -2.2322
13029TIP3    H260579   5.753   5.867  12.418  0.3911 -2.4719 -0.3807
13030TIP3   OH260580   2.454   2.178   3.044 -0.0668  0.0166 -0.5656
13030TIP3    H160581   2.528   2.162   2.985  0.8312  0.0425  0.5260
13030TIP3    H260582   2.481   2.252   3.098 -1.2015  0.5092 -0.6464
13031TIP3   OH260583   1.463   2.414   5.525 -0.2730 -0.0007  0.2149
13031TIP3    H160584   1.447   2.330   5.482 -0.4349 -0.6340  1.4669
13031TIP3    H260585   1.391   2.470   5.495 -1.7707 -1.1443  1.4689
13032TIP3   OH260586   3.638   0.611   1.002 -0.6267 -0.1967 -0.2659
13032TIP3    H160587   3.638   0.623   1.097  0.8631 -2.2735  0.0605
13032TIP3    H260588   3.648   0.517   0.990 -3.0038 -0.2623 -2.5210
13033TIP3   OH260589   2.711   2.838  13.178 -0.6648  0.3453 -0.1439
13033TIP3    H160590   2.791   2.861  13.226 -0.4760  0.3475 -0.4519
13033TIP3    H260591   2.648   2.815  13.246 -0.3740  0.2603  0.1014
13034TIP3   OH260592   6.678   3.340  16.011 -0.1855 -0.0610  0.5455
13034TIP3    H160593   6.657   3.427  15.978  0.2109 -0.4530 -0.7785
13034TIP3    H260594   6.707   3.290  15.935 -1.3725 -1.6761  1.0724
13035TIP3   OH260595   6.325   6.246   1.983  0.1439 -0.7052  0.5654
13035TIP3    H160596   6.264   6.297   2.037  0.2520 -0.9278  0.8998
13035TIP3    H260597   6.289   6.157   1.985  0.0829 -0.6900  0.1716
13036TIP3   OH260598   1.473   1.643   0.979  0.6429  0.6137 -0.3462
13036TIP3    H160599   1.437   1.605   1.060  1.2973 -0.0263 -0.3417
13036TIP3    H260600   1.396   1.663   0.925  0.2653 -0.4334 -0.2153
13037TIP3   OH260601   4.322   1.098  15.266  0.2050 -0.4682 -0.1868
13037TIP3    H160602   4.376   1.094  15.187 -0.7960  0.2238 -0.9245
13037TIP3    H260603   4.381   1.134  15.333  0.7030  0.1597 -0.9436
13038TIP3   OH260604   2.885   6.337   1.164 -0.2580  0.1326  0.1751
13038TIP3    H160605   2.838   6.346   1.246 -1.4992  2.2674 -0.6836
13038TIP3    H260606   2.977   6.353   1.187  0.5400 -5.2287  2.0653
13039TIP3   OH260607   0.715   2.707  15.466  0.2352  0.0745  0.5534
13039TIP3    H160608   0.766   2.630  15.441 -0.4976  0.2085 -1.5434
13039TIP3    H260609   0.770   2.781  15.442 -0.6638  0.2124 -1.2682
13040TIP3   OH260610   2.546   6.314  15.436 -0.3268 -0.3012  0.3319
13040TIP3    H160611   2.581   6.402  15.422 -1.3109  0.1596  0.6419
13040TIP3    H260612   2.621   6.262  15.463  0.1638  0.5863  0.7088
13041TIP3   OH260613   1.235   2.874   4.356  0.4988 -0.1260 -1.1640
13041TIP3    H160614   1.322   2.882   4.315  0.8244  0.4083 -0.4020
13041TIP3    H260615   1.216   2.962   4.388  0.7952 -0.7420  0.8609
13042TIP3   OH260616   4.263   0.594   0.667  0.1347 -0.6026 -0.1528
13042TIP3    H160617   4.332   0.533   0.693  0.4067  0.1374  0.9612
13042TIP3    H260618   4.195   0.583   0.734  0.1931  0.2920  0.0744
13043TIP3   OH260619   2.098   1.709  16.123 -0.0712  0.6789 -0.4506
13043TIP3    H160620   2.129   1.700  16.212  1.6319 -0.4749 -1.1194
13043TIP3    H260621   2.100   1.621  16.087  1.6882  1.4204 -2.3679
13044TIP3   OH260622   1.978   6.329  15.827 -0.0519 -0.1153 -0.6011
13044TIP3    H160623   1.966   6.398  15.891  1.0212 -0.6333  0.1940
13044TIP3    H260624   2.047   6.361  15.769 -0.4440  0.0078 -1.0028
13045TIP3   OH260625   0.385   0.047   4.510  0.2722 -0.1682 -0.0973
13045TIP3    H160626   0.337   0.120   4.470 -0.3197  0.4056  1.5667
13045TIP3    H260627   0.429   0.087   4.585  1.5280 -1.1631 -0.2723
13046TIP3   OH260628   3.922   0.722  12.964  0.5805  0.0183  0.0834
13046TIP3    H160629   3.990   0.735  13.030  1.1788 -1.3400 -0.2342
13046TIP3    H260630   3.861   0.795  12.978 -0.1155 -0.9621  3.1143
13047TIP3   OH260631   2.999   4.749   6.149 -0.0074  0.2631 -0.0793
13047TIP3    H160632   2.917   4.701   6.163  0.4019 -0.3748  0.1762
13047TIP3    H260633   3.024   4.778   6.237  1.2780 -1.6114  0.2265
13048TIP3   OH260634   3.348   6.645   4.043  0.5452  0.6165 -0.7220
13048TIP3    H160635   3.338   6.604   3.956  0.4801 -0.4835 -0.2149
13048TIP3    H260636   3.427   6.699   4.035  0.9279 -0.0049 -1.2748
13049TIP3   OH260637   0.911   0.024  11.372 -0.1481  0.2346  0.1083
13049TIP3    H160638   0.916   0.103  11.426  0.2395  0.4954 -0.2972
13049TIP3    H260639   1.002  -0.006  11.366 -0.6096 -2.1812  3.0386
13050TIP3   OH260640   3.680   5.576  10.851  0.1988  0.7075 -0.0508
13050TIP3    H160641   3.635   5.497  10.822  1.9302 -1.0723  1.8349
13050TIP3    H260642   3.682   5.632  10.774  0.4408 -1.7907 -1.9708
13051TIP3   OH260643   2.558   0.781  16.746 -0.1241 -0.1598 -0.4321
13051TIP3    H160644   2.594   0.866  16.772 -0.4572 -0.4270  0.9924
13051TIP3    H260645   2.622   0.718  16.779  1.4624 -0.4785 -3.6330
13052TIP3   OH260646   1.701   0.786  17.265  0.5730 -0.7326  0.2422
13052TIP3    H160647   1.741   0.823  17.186 -0.5639 -0.9414 -0.4487
13052TIP3    H260648   1.682   0.695  17.242 -0.2260 -0.6564  0.5789
13053TIP3   OH260649   0.160   5.232  11.012  0.0972 -0.0199  0.2593
13053TIP3    H160650   0.111   5.151  10.996 -1.2959  0.5486  1.4357
13053TIP3    H260651   0.232   5.229  10.950  0.5556 -2.5499  0.8217
13054TIP3   OH260652   3.956   2.339   0.075  0.1492 -0.3235  0.7597
13054TIP3    H160653   4.041   2.361   0.038 -0.3738  0.9501  0.2618
13054TIP3    H260654   3.974   2.267   0.136  1.4265 -0.6778 -0.0045
13055TIP3   OH260655   1.770   0.563  15.091 -0.2873 -0.2892 -0.4411
13055TIP3    H160656   1.723   0.609  15.022  2.4410  1.7021 -1.1511
13055TIP3    H260657   1.832   0.506  15.045  0.6971  0.1163  0.3394
13056TIP3   OH260658   4.697   1.390  14.622 -0.1866 -0.0289 -0.4588
13056TIP3    H160659   4.624   1.450  14.637 -0.5317 -0.8156  1.2579
13056TIP3    H260660   4.655   1.307  14.600  0.2384 -0.0658 -1.1420
13057TIP3   OH260661   2.103   4.268  16.197 -0.1915 -0.1805 -0.4355
13057TIP3    H160662   2.085   4.349  16.245 -1.0684 -1.0858  0.8670
13057TIP3    H260663   2.198   4.263  16.192 -0.1033  0.4097  0.4510
13058TIP3   OH260664   3.373   1.474   1.607  0.0938 -0.1749  0.1845
13058TIP3    H160665   3.358   1.380   1.596 -0.3151 -0.2399  1.1598
13058TIP3    H260666   3.461   1.488   1.572 -0.4741 -0.6042 -1.4940
13059TIP3   OH260667   3.012   5.227  16.170  0.2026  0.4089 -0.5315
13059TIP3    H160668   3.093   5.181  16.193  0.6665  1.0989 -0.7496
13059TIP3    H260669   3.041   5.307  16.127 -0.5199  1.7977  1.3976
13060TIP3   OH260670   5.521   1.109  15.436 -0.0805  0.2272  0.0131
13060TIP3    H160671   5.430   1.103  15.406 -0.1544 -0.1649  0.3090
13060TIP3    H260672   5.572   1.115  15.355 -0.3644  0.3830 -0.1566
13061TIP3   OH260673   4.146   5.178  11.500 -0.0480 -0.0829 -0.1918
13061TIP3    H160674   4.225   5.140  11.462  0.4581  0.7740 -0.0000
13061TIP3    H260675   4.167   5.190  11.592  0.1803  1.6249 -0.4424
13062TIP3   OH260676   4.281   1.404   4.298  0.5296 -0.7664 -0.5212
13062TIP3    H160677   4.361   1.367   4.261  0.2134 -1.4042 -0.5823
13062TIP3    H260678   4.222   1.413   4.223  0.1084 -1.4757 -0.2873
13063TIP3   OH260679   0.672   3.345  16.864 -0.4064 -0.3576 -0.5290
13063TIP3    H160680   0.739   3.336  16.798  1.6153  0.6967  1.2552
13063TIP3    H260681   0.683   3.268  16.920 -0.1479  0.1892  0.1931
13064TIP3   OH260682   5.718   4.141   5.342 -0.6279 -0.1220 -0.4963
13064TIP3    H160683   5.659   4.214   5.328  0.7535  1.2052  0.2797
13064TIP3    H260684   5.694   4.107   5.428  0.6253  1.3635  0.4951
13065TIP3   OH260685   1.728   4.668   3.470  0.1518 -0.3772 -0.8029
13065TIP3    H160686   1.811   4.698   3.507  0.3306 -0.3282 -1.2419
13065TIP3    H260687   1.734   4.572   3.473 -0.2565 -0.3883  0.2294
13066TIP3   OH260688   2.476   0.130   6.359 -0.2436 -0.7176 -0.1176
13066TIP3    H160689   2.539   0.160   6.294 -0.7923 -0.3178 -0.4693
13066TIP3    H260690   2.521   0.057   6.403  0.9150  0.2715  0.4058
13067TIP3   OH260691   4.960   4.082   3.385  0.2097  0.2128 -0.1058
13067TIP3    H160692   5.013   4.133   3.446  2.0581 -1.2023 -0.4378
13067TIP3    H260693   5.012   4.079   3.304 -1.1281  0.1133 -0.9983
13068TIP3   OH260694   1.268   4.659   2.556 -0.4835 -0.1639 -0.1058
13068TIP3    H160695   1.295   4.730   2.613 -0.6368  0.0819 -0.3374
13068TIP3    H260696   1.175   4.647   2.575 -0.1215 -1.3851  1.1009
13069TIP3   OH260697   6.515   4.187  12.973 -0.1712 -0.2744 -0.0769
13069TIP3    H160698   6.550   4.164  12.887  0.5705  0.3883  0.0402
13069TIP3    H260699   6.593   4.200  13.028 -0.6379 -1.6437  0.9556
13070TIP3   OH260700   5.871   5.843  14.014  0.0696  0.2309  0.2011
13070TIP3    H160701   5.838   5.771  14.068  0.4388 -0.1754 -0.1071
13070TIP3    H260702   5.830   5.922  14.050 -1.1898 -0.2523 -0.1356
13071TIP3   OH260703   5.463   0.324  11.861 -0.1257 -0.7614 -0.1984
13071TIP3    H160704   5.550   0.312  11.899 -1.1693 -1.2680  2.1931
13071TIP3    H260705   5.444   0.240  11.819  0.0335 -1.0868  0.3732
13072TIP3   OH260706   3.018   2.278  15.029 -0.4090 -0.4859  0.4479
13072TIP3    H160707   3.061   2.364  15.028  0.6967 -1.0243  0.3915
13072TIP3    H260708   3.080   2.221  15.073 -0.4511 -1.5990 -0.8783
13073TIP3   OH260709   1.356   6.581   3.332 -0.2332  0.3183  0.2770
13073TIP3    H160710   1.434   6.552   3.285 -0.0554  1.3327 -0.0765
13073TIP3    H260711   1.344   6.672   3.305 -0.8342  0.5479  1.2690
13074TIP3   OH260712   6.629   1.320  12.808  0.3544  0.2356  0.6689
13074TIP3    H160713   6.636   1.350  12.717  1.6658 -1.0310  0.3048
13074TIP3    H260714   6.538   1.289  12.816 -0.4318  2.3623  0.4864
13075TIP3   OH260715   1.053   1.015   4.219  0.5897  0.3743  0.2072
13075TIP3    H160716   1.079   0.926   4.196  0.1338  0.0938  0.7523
13075TIP3    H260717   0.960   1.020   4.193  0.4523  0.4973  0.7113
13076TIP3   OH260718   6.656   3.118  13.045 -0.1690  0.1545  0.1822
13076TIP3    H160719   6.745   3.085  13.030 -0.2513  0.3803 -0.8782
13076TIP3    H260720   6.669   3.195  13.099  0.1972 -0.3727  0.8670
13077TIP3   OH260721   5.097   3.563  12.251 -0.6320  0.5929  0.0202
13077TIP3    H160722   5.172   3.514  12.218  0.0076  1.4389  0.1609
13077TIP3    H260723   5.023   3.533  12.199  0.2389  1.4435 -1.7933
13078TIP3   OH260724   2.051   6.067   2.253 -0.0743 -0.4131 -0.3060
13078TIP3    H160725   1.967   6.062   2.208  0.7129 -1.0850 -1.7694
13078TIP3    H260726   2.102   6.129   2.201  0.3120  0.0649  0.6279
13079TIP3   OH260727   3.300   1.590  16.681 -0.3799  0.1429  0.1473
13079TIP3    H160728   3.319   1.682  16.662 -0.7251  0.6286  1.9875
13079TIP3    H260729   3.258   1.558  16.601  0.2581  1.4126 -0.7353
13080TIP3   OH260730   1.073   1.883   5.204  0.0847 -0.7427  0.0888
13080TIP3    H160731   1.096   1.867   5.113  2.3089 -0.4617  0.5506
13080TIP3    H260732   1.079   1.978   5.214  0.8126 -0.8454  0.7354
13081TIP3   OH260733   1.991   4.004  15.213 -0.1060 -0.2147  0.0620
13081TIP3    H160734   2.005   3.932  15.152 -1.8348 -0.7333  0.2290
13081TIP3    H260735   1.901   3.992  15.244  0.6478  0.1080  2.6099
13082TIP3   OH260736   5.802   6.694  16.132 -0.0869 -0.1787 -0.1539
13082TIP3    H160737   5.730   6.756  16.143 -0.2052 -0.3593  0.0945
13082TIP3    H260738   5.866   6.741  16.079  0.4591  0.6820  1.2143
13083TIP3   OH260739   6.215   5.799   6.385 -0.0627 -0.1701  0.3021
13083TIP3    H160740   6.121   5.794   6.405 -0.0773  1.3597  0.6708
13083TIP3    H260741   6.258   5.775   6.467 -0.1155 -0.7378  0.1707
13084TIP3   OH260742   2.436   1.277   5.101 -0.5403 -0.2178 -0.0614
13084TIP3    H160743   2.470   1.300   5.187  1.2359  0.7045 -0.9440
13084TIP3    H260744   2.344   1.253   5.116 -0.4426  0.5323  1.9668
13085TIP3   OH260745   2.448   1.195  12.660 -0.1258  0.1861  0.2460
13085TIP3    H160746   2.355   1.203  12.639 -0.4677  0.6708  1.8659
13085TIP3    H260747   2.487   1.275  12.626 -0.6046  0.7823  1.0754
13086TIP3   OH260748   3.885   3.917  13.715  0.4675 -0.1495 -0.3727
13086TIP3    H160749   3.952   3.875  13.661  0.6231 -0.0269 -0.2766
13086TIP3    H260750   3.901   4.011  13.703  0.2058 -0.1192 -0.4830
13087TIP3   OH260751   0.413   6.823   1.038 -0.1606  0.0634 -0.1346
13087TIP3    H160752   0.382   6.736   1.013  1.1304  0.2492 -2.7349
13087TIP3    H260753   0.506   6.810   1.059 -0.3358  0.5755  1.0285
13088TIP3   OH260754   3.115   5.042  17.003 -0.5091  0.6325 -0.0414
13088TIP3    H160755   3.130   5.112  16.939 -0.1037  0.3833 -0.2242
13088TIP3    H260756   3.048   4.987  16.963  1.3681 -0.8540 -1.3820
13089TIP3   OH260757   0.767   5.012   3.635 -0.0503 -0.3698 -0.6283
13089TIP3    H160758   0.861   5.029   3.632  0.0310 -0.9233 -1.5925
13089TIP3    H260759   0.732   5.050   3.554 -0.6924 -0.0013 -0.1892
13090TIP3   OH260760   2.537   0.057  10.934 -0.1489 -0.0892 -0.2628
13090TIP3    H160761   2.513   0.100  10.852 -2.2805 -0.4372  0.1395
13090TIP3    H260762   2.489   0.106  11.001  1.5487  0.1814  0.8129
13091TIP3   OH260763   4.587   2.948   1.792  0.3171 -0.4649  0.1541
13091TIP3    H160764   4.529   2.959   1.717 -0.5945  0.8619  1.0038
13091TIP3    H260765   4.675   2.956   1.756 -0.0793 -0.4518 -0.8453
13092TIP3   OH260766   1.188   1.875  10.829 -0.0197 -0.2892 -0.1554
13092TIP3    H160767   1.149   1.789  10.812  2.0865 -1.3931  0.2433
13092TIP3    H260768   1.279   1.856  10.851 -0.0122  1.8807  2.1398
13093TIP3   OH260769   6.268   3.871   3.169 -0.2845  0.5123  0.0702
13093TIP3    H160770   6.357   3.894   3.142 -0.6430  0.2804 -1.4155
13093TIP3    H260771   6.217   3.950   3.150 -0.8488 -0.2138 -1.5646
13094TIP3   OH260772   6.258   0.287  12.513  0.0154  0.5080  0.5845
13094TIP3    H160773   6.222   0.370  12.482  0.4449  1.1158  1.6452
13094TIP3    H260774   6.184   0.226  12.509 -0.4754  1.1035  0.4066
13095TIP3   OH260775   2.892   6.030   3.021 -0.0078  0.2078  0.1450
13095TIP3    H160776   2.798   6.047   3.012  0.2624  1.0620 -1.5862
13095TIP3    H260777   2.898   5.936   3.036 -1.2496  0.5315  3.5480
13096TIP3   OH260778   5.685   2.121   1.829  0.2286  0.8262  0.3156
13096TIP3    H160779   5.725   2.131   1.742  0.2608 -1.0037  0.0885
13096TIP3    H260780   5.615   2.187   1.831 -1.0337 -0.3487 -1.8575
13097TIP3   OH260781   0.026   5.749   3.917  0.0949  0.3095  0.3034
13097TIP3    H160782   0.059   5.677   3.971  0.3963  1.2577  1.4221
13097TIP3    H260783  -0.069   5.739   3.919  0.1147  0.1766  0.8067
13098TIP3   OH260784   1.104   2.045   0.373  0.1580 -0.5169 -0.0313
13098TIP3    H160785   1.017   2.005   0.370  0.8386 -2.2443  1.0053
13098TIP3    H260786   1.088   2.138   0.382 -1.5562 -0.5839 -1.7661
13099TIP3   OH260787   3.226   3.287   4.072  0.4219  0.1328 -0.5225
13099TIP3    H160788   3.274   3.272   3.990  0.9969  0.5186 -0.2638
13099TIP3    H260789   3.170   3.211   4.081  0.1185  0.2329 -1.4416
13100TIP3   OH260790   3.059   6.014   4.842  0.6613 -0.2950  0.2182
13100TIP3    H160791   3.145   5.990   4.877  1.1065  0.3067 -0.4413
13100TIP3    H260792   3.002   6.015   4.918  1.4398  0.2160  0.8155
13101TIP3   OH260793   3.115   6.756  13.902 -0.2401  0.3182  0.0664
13101TIP3    H160794   3.198   6.803  13.897 -0.2243  0.2935  0.0978
13101TIP3    H260795   3.079   6.762  13.813 -0.2591  0.4275  0.0814
13102TIP3   OH260796   0.354   4.265   6.788  0.0566 -0.2036 -0.2759
13102TIP3    H160797   0.397   4.183   6.812 -0.1735  0.1076  1.3027
13102TIP3    H260798   0.418   4.333   6.811 -1.2121  0.2656  2.0911
13103TIP3   OH260799   3.425   5.147   0.319 -0.6295  0.0994  0.3722
13103TIP3    H160800   3.386   5.232   0.339 -0.7640 -0.1274  1.0850
13103TIP3    H260801   3.403   5.092   0.394  0.7432 -0.1397  0.6207
13104TIP3   OH260802   0.535   4.487  11.069  0.2893 -0.2172  0.3109
13104TIP3    H160803   0.463   4.505  11.008  0.0886  0.5121  0.7590
13104TIP3    H260804   0.565   4.399  11.044 -2.0639 -1.4182  1.3866
13105TIP3   OH260805   2.492   2.373   1.135  0.7651 -0.2510 -0.6352
13105TIP3    H160806   2.528   2.287   1.111  2.8565  0.2684  0.3692
13105TIP3    H260807   2.412   2.381   1.084  1.7657 -1.7846 -2.5879
13106TIP3   OH260808   6.385   5.604   3.148 -0.0969  0.2468 -0.2223
13106TIP3    H160809   6.329   5.539   3.190  0.7251 -0.5266 -0.2980
13106TIP3    H260810   6.393   5.574   3.057  2.2501 -0.9613  0.2940
13107TIP3   OH260811   1.677   2.711  11.968  0.3509  0.1531 -0.5083
13107TIP3    H160812   1.607   2.668  11.919  0.9800 -1.5420  0.0062
13107TIP3    H260813   1.757   2.685  11.922  0.9634 -1.5579  1.3694
13108TIP3   OH260814   1.314   0.247   4.330 -0.0873 -0.3759  0.4684
13108TIP3    H160815   1.300   0.206   4.415 -1.3848  1.7035  1.3397
13108TIP3    H260816   1.353   0.332   4.350 -0.4393  0.1788 -0.9990
13109TIP3   OH260817   0.492   6.087  13.310 -0.2283 -0.3709 -0.0411
13109TIP3    H160818   0.442   6.152  13.359  2.0232  0.6385  1.0418
13109TIP3    H260819   0.498   6.012  13.368 -0.6073 -0.5604 -0.2423
13110TIP3   OH260820   4.655   0.631   1.781 -0.0318 -0.0278 -0.3391
13110TIP3    H160821   4.587   0.620   1.714 -0.4837  1.3163 -0.1246
13110TIP3    H260822   4.721   0.686   1.739 -1.1763  2.3928  0.8445
13111TIP3   OH260823   6.062   5.875   4.197  0.3816  0.2539 -0.3723
13111TIP3    H160824   6.144   5.861   4.243  0.1367  0.5573  0.1664
13111TIP3    H260825   6.019   5.789   4.199  0.4216  0.2378 -0.1296
13112TIP3   OH260826   1.603   0.622   6.171 -0.6364  0.1105  0.0173
13112TIP3    H160827   1.690   0.585   6.183 -0.0776  1.0811 -0.9034
13112TIP3    H260828   1.619   0.715   6.153 -1.8890  0.3967  0.2984
13113TIP3   OH260829   1.106   6.408   0.322 -0.4459  0.1860 -0.5390
13113TIP3    H160830   1.123   6.453   0.404 -1.8403 -1.0176  0.4530
13113TIP3    H260831   1.176   6.343   0.314 -0.2702  0.3528 -0.3599
13114TIP3   OH260832   0.793   6.690  11.145 -0.0103  0.3082 -0.5761
13114TIP3    H160833   0.809   6.643  11.226  0.3666  1.1769 -0.1302
13114TIP3    H260834   0.860   6.659  11.085  1.3480  1.5081  0.2573
13115TIP3   OH260835   0.931   5.698  15.569 -0.1454  0.2019 -1.0463
13115TIP3    H160836   0.980   5.626  15.609 -2.7745 -0.5870  1.1687
13115TIP3    H260837   0.844   5.660  15.551 -1.6114  2.7048  0.1535
13116TIP3   OH260838   0.700   3.713   5.168 -0.3974  0.2167  0.0498
13116TIP3    H160839   0.649   3.786   5.204 -0.0794 -0.2486  1.4963
13116TIP3    H260840   0.790   3.732   5.195 -0.4495 -1.2030  1.2951
13117TIP3   OH260841   1.531   4.010  15.473 -0.2383  0.2829 -0.0416
13117TIP3    H160842   1.534   3.987  15.566 -0.8448  0.3558  0.0027
13117TIP3    H260843   1.461   3.955  15.437  1.4428 -1.3508 -0.9396
13118TIP3   OH260844   3.793   4.142   1.008  0.2628  0.2205  0.2930
13118TIP3    H160845   3.877   4.097   0.999 -0.0779 -0.3668  0.0191
13118TIP3    H260846   3.731   4.073   1.031 -0.3674  0.4522 -0.6473
13119TIP3   OH260847   6.190   4.302   2.980  0.0993 -0.5186  0.0159
13119TIP3    H160848   6.276   4.283   2.942  1.3017  0.7929  1.9387
13119TIP3    H260849   6.128   4.268   2.916  2.0212 -3.2534 -0.5670
13120TIP3   OH260850   6.641   4.620  11.170  0.0020  0.0574 -0.4014
13120TIP3    H160851   6.565   4.638  11.115  0.5024  0.3898 -0.9920
13120TIP3    H260852   6.706   4.582  11.111  1.3501  2.3947 -0.5361
13121TIP3   OH260853   5.954   2.190   2.462  0.8385  0.0516 -0.0703
13121TIP3    H160854   5.876   2.194   2.517  0.0799 -2.1809 -0.8918
13121TIP3    H260855   5.982   2.099   2.466  1.0351 -0.1007 -2.9429
13122TIP3   OH260856   4.714   0.975  16.622 -0.2328  0.3620 -0.1359
13122TIP3    H160857   4.787   0.959  16.680 -0.3570  0.1365 -0.0413
13122TIP3    H260858   4.637   0.971  16.678 -0.2235  2.2432  0.0906
13123TIP3   OH260859   0.905   3.489  14.674  0.1767  0.1364  0.5180
13123TIP3    H160860   0.973   3.555  14.659 -0.9600  1.2793  0.1897
13123TIP3    H260861   0.953   3.407  14.684  1.8826  1.3451  3.6667
13124TIP3   OH260862   4.485   0.108   3.205  0.0736 -0.3288  0.1083
13124TIP3    H160863   4.478   0.203   3.214  1.0407 -0.2247 -0.1528
13124TIP3    H260864   4.396   0.076   3.221 -0.2931  0.6267  0.0464
13125TIP3   OH260865   2.816   1.702   2.599  0.7529  0.2695 -0.3406
13125TIP3    H160866   2.794   1.655   2.519  1.3171 -0.4921 -0.0646
13125TIP3    H260867   2.750   1.673   2.663  2.3927 -1.9729  0.4722
13126TIP3   OH260868   4.862   3.525  14.409  0.0954 -0.7285 -0.1224
13126TIP3    H160869   4.887   3.570  14.328  0.7061  0.6028  0.7616
13126TIP3    H260870   4.785   3.573  14.439  1.2146  0.3097  1.2423
13127TIP3   OH260871   0.350   1.085   3.846 -0.5755  0.6321  0.0764
13127TIP3    H160872   0.381   0.994   3.852  1.4943  1.3704  1.9812
13127TIP3    H260873   0.290   1.094   3.920  0.1384  1.0906  0.6184
13128TIP3   OH260874   2.995   2.303  12.751  0.4810 -0.2233  0.0038
13128TIP3    H160875   3.042   2.259  12.680  1.2906 -1.4655  1.2665
13128TIP3    H260876   3.048   2.381  12.769 -0.4686  0.8736 -1.6239
13129TIP3   OH260877   1.341   4.139   1.246 -0.1365  0.6372 -0.6238
13129TIP3    H160878   1.313   4.218   1.200 -1.7355 -0.4159 -1.5584
13129TIP3    H260879   1.354   4.167   1.336 -0.2762  2.0542 -1.0182
13130TIP3   OH260880   2.746   1.482   3.394  0.1537 -0.0239 -0.2105
13130TIP3    H160881   2.836   1.456   3.377 -0.3749 -1.3590 -1.1583
13130TIP3    H260882   2.748   1.519   3.482  1.7194  0.5280 -0.4384
13131TIP3   OH260883   1.090   3.708  15.652  0.0479  0.2724  0.3828
13131TIP3    H160884   1.059   3.687  15.740  1.3035  0.1552  0.8185
13131TIP3    H260885   1.010   3.721  15.601 -0.7516  2.2025  1.9705
13132TIP3   OH260886   3.798   2.687   2.919  0.1082  0.1767 -0.0964
13132TIP3    H160887   3.798   2.755   2.851 -1.0919  1.2968  0.9670
13132TIP3    H260888   3.784   2.606   2.871  2.3370  0.5160 -1.4945
13133TIP3   OH260889   5.670   1.619   4.663 -0.6670 -0.0450 -0.2073
13133TIP3    H160890   5.711   1.584   4.742 -0.7137 -0.3584 -0.3232
13133TIP3    H260891   5.666   1.545   4.603  0.2342  0.4138 -0.8548
13134TIP3   OH260892   1.747   3.456   3.936 -0.1185  0.8191  0.0064
13134TIP3    H160893   1.701   3.373   3.930 -0.1595  0.5701  2.5984
13134TIP3    H260894   1.722   3.503   3.856 -1.9158 -0.7493 -0.4357
13135TIP3   OH260895   5.873   4.405   0.081 -0.6443 -0.2472  0.6307
13135TIP3    H160896   5.813   4.401   0.006 -1.3628  0.8722  1.1320
13135TIP3    H260897   5.830   4.354   0.149 -1.0630  0.5830  1.0013
13136TIP3   OH260898   1.252   6.209  12.439  0.3657 -0.4006  0.4977
13136TIP3    H160899   1.243   6.271  12.512 -0.5304 -0.2950  0.3023
13136TIP3    H260900   1.287   6.262  12.368  0.9175 -0.4289  0.7417
13137TIP3   OH260901   6.582   4.827   1.375 -0.3479  0.3696 -0.0121
13137TIP3    H160902   6.552   4.904   1.325  0.3980  1.0514  0.5653
13137TIP3    H260903   6.641   4.781   1.315 -2.4688 -1.0012 -1.1715
13138TIP3   OH260904   2.029   5.992  13.324 -0.3529 -0.4084 -0.4438
13138TIP3    H160905   2.022   6.086  13.341 -0.2982 -0.7080  1.4302
13138TIP3    H260906   2.122   5.979  13.303  0.2999 -0.3972  2.0883
13139TIP3   OH260907   3.011   2.354   4.624 -0.1388 -0.1126  0.3313
13139TIP3    H160908   3.090   2.324   4.670 -0.1268 -0.5904  0.0024
13139TIP3    H260909   3.019   2.318   4.536  0.3098  1.5857 -0.3616
13140TIP3   OH260910   1.695   5.269  13.390  0.2654  0.2900  0.3011
13140TIP3    H160911   1.744   5.278  13.308 -0.5260  1.1934 -0.0945
13140TIP3    H260912   1.756   5.297  13.458  0.7531  0.0547 -0.0330
13141TIP3   OH260913   0.315   3.900   0.850  0.0599  0.9155  0.2224
13141TIP3    H160914   0.404   3.885   0.818 -0.0407  1.8461 -0.5430
13141TIP3    H260915   0.324   3.912   0.944  0.9018  2.1139  0.0060
13142TIP3   OH260916   2.758   2.323  13.891 -0.2006 -0.7868 -0.1540
13142TIP3    H160917   2.811   2.346  13.968 -1.3059  0.8329  0.1881
13142TIP3    H260918   2.801   2.369  13.819  0.3694 -1.6510 -0.3801
13143TIP3   OH260919   3.214   2.153  13.722  0.2230 -0.4363 -0.3465
13143TIP3    H160920   3.128   2.144  13.764 -0.5292 -0.6339 -1.8779
13143TIP3    H260921   3.217   2.243  13.692  0.0140 -0.7616 -1.3872
13144TIP3   OH260922   6.252   5.781   5.307  0.1215 -1.0481  0.5975
13144TIP3    H160923   6.203   5.702   5.284 -0.0128 -1.1360  1.1709
13144TIP3    H260924   6.268   5.773   5.401 -0.3094 -0.1661  0.7619
13145TIP3   OH260925   4.559   4.679   4.961 -0.2068  0.4316 -0.1865
13145TIP3    H160926   4.583   4.723   4.880 -0.1399  0.4606 -0.1507
13145TIP3    H260927   4.464   4.688   4.966 -0.1393  1.0105  0.0795
13146TIP3   OH260928   1.772   1.286   0.355 -0.7622  0.1629  0.0645
13146TIP3    H160929   1.856   1.269   0.398 -1.3608  0.2240  1.2919
13146TIP3    H260930   1.724   1.341   0.417 -1.9297 -0.3439 -0.3742
13147TIP3   OH260931   4.021   0.230  12.262 -0.0713  0.0546  0.1904
13147TIP3    H160932   4.016   0.322  12.235 -0.4465  0.5792  1.9249
13147TIP3    H260933   3.930   0.201  12.266 -0.0270  0.0094  0.9285
13148TIP3   OH260934   6.564   4.492   5.756  0.3207  0.1671 -0.2189
13148TIP3    H160935   6.524   4.416   5.714  0.1617 -1.7021  2.9512
13148TIP3    H260936   6.492   4.554   5.768 -0.0426 -0.1203 -0.8766
13149TIP3   OH260937   0.534   3.743  11.903  0.1857 -0.0112 -0.2995
13149TIP3    H160938   0.493   3.717  11.986  0.2944  1.0261  0.1005
13149TIP3    H260939   0.624   3.711  11.910  0.1610 -0.0318 -0.0643
13150TIP3   OH260940   4.578   0.535  14.365  0.4501 -0.1210  0.0905
13150TIP3    H160941   4.623   0.456  14.335 -1.0952 -0.7091 -0.8323
13150TIP3    H260942   4.502   0.542  14.308 -0.0938  1.3833  0.9352
13151TIP3   OH260943   5.120   2.952   1.696 -0.5256 -0.0596 -0.6760
13151TIP3    H160944   5.162   2.949   1.610 -0.7329 -0.0968 -0.7755
13151TIP3    H260945   5.134   3.042   1.725 -0.2341 -0.1154 -0.6371
13152TIP3   OH260946   6.470   1.332   1.126  0.1423  0.1391  0.3104
13152TIP3    H160947   6.520   1.413   1.123  2.3718 -1.1661 -1.9716
13152TIP3    H260948   6.380   1.358   1.106  1.0197  1.9487 -1.7391
13153TIP3   OH260949   3.670   0.039   1.003  0.1790  0.3890  0.2391
13153TIP3    H160950   3.593  -0.002   1.043  0.6168  0.5067  1.2369
13153TIP3    H260951   3.744   0.004   1.053  0.7961  0.1423 -0.8180
13154TIP3   OH260952   1.118   3.841  12.027 -0.0332 -0.0129  0.2663
13154TIP3    H160953   1.069   3.762  12.052 -0.8877  0.8017  1.2256
13154TIP3    H260954   1.123   3.892  12.107  1.5888  0.3689 -0.0532
13155TIP3   OH260955   0.540   6.140   2.156 -0.4687  0.4898  0.1702
13155TIP3    H160956   0.454   6.156   2.194 -1.4423 -0.0505 -1.6762
13155TIP3    H260957   0.529   6.159   2.062  1.1258 -0.5961 -0.2821
13156TIP3   OH260958   6.469   4.949   3.610 -0.1082 -0.1821  0.1961
13156TIP3    H160959   6.421   4.868   3.592  0.5790 -0.5976  0.1834
13156TIP3    H260960   6.507   4.973   3.525 -1.3122  0.8368 -0.0781
13157TIP3   OH260961   2.910   3.393   4.506 -0.3002  0.0080  0.6588
13157TIP3    H160962   2.823   3.373   4.539 -1.8318  2.8884 -1.2234
13157TIP3    H260963   2.919   3.338   4.428 -0.2372 -0.5781  1.0734
13158TIP3   OH260964   6.494   3.271   5.646  0.0013 -0.0144 -0.4766
13158TIP3    H160965   6.578   3.288   5.689 -0.3218  1.5741 -0.4155
13158TIP3    H260966   6.434   3.249   5.718  0.3244 -1.0393 -0.5101
13159TIP3   OH260967   0.961   6.095   2.649 -0.1953 -0.4669 -0.3318
13159TIP3    H160968   0.948   6.179   2.692  0.0223  0.8475 -2.6494
13159TIP3    H260969   0.876   6.074   2.612  0.0162 -0.6943 -0.6955
13160TIP3   OH260970   5.861   1.775  13.638 -0.2700  0.5016 -0.1176
13160TIP3    H160971   5.887   1.759  13.547 -0.3621  0.4633 -0.1363
13160TIP3    H260972   5.939   1.752  13.689 -0.0437  1.0072 -0.2249
13161TIP3   OH260973   6.078   1.717  14.518  0.0595 -0.1078 -0.0393
13161TIP3    H160974   6.045   1.628  14.530 -1.4424  0.2469 -1.2237
13161TIP3    H260975   6.005   1.765  14.480  1.9215  0.7433 -2.8966
13162TIP3   OH260976   1.152   6.208   4.259 -0.1582  0.2521  0.0912
13162TIP3    H160977   1.202   6.261   4.196 -1.3058  0.1852 -0.9089
13162TIP3    H260978   1.121   6.271   4.324 -0.8735  0.6967 -0.6682
13163TIP3   OH260979   6.242   1.071  13.749 -0.1533 -0.0449  0.3752
13163TIP3    H160980   6.214   1.040  13.835  1.7702 -1.3314  0.5916
13163TIP3    H260981   6.204   1.008  13.688 -1.2666  0.6997  0.2515
13164TIP3   OH260982   2.979   1.951  12.694 -0.0411  0.0354  0.2031
13164TIP3    H160983   2.899   1.988  12.730 -0.1211  0.1606 -0.0994
13164TIP3    H260984   3.036   2.027  12.678 -0.0261 -0.0117  0.0223
13165TIP3   OH260985   2.544   6.215   3.473  0.5336 -0.1208  0.4641
13165TIP3    H160986   2.617   6.161   3.442  0.7977  0.5655 -0.1597
13165TIP3    H260987   2.465   6.166   3.449  0.7711 -0.2125 -0.1458
13166TIP3   OH260988   0.815   0.185  14.291 -0.0328 -0.1466  0.1858
13166TIP3    H160989   0.870   0.233  14.352 -2.1498  1.3307  1.0571
13166TIP3    H260990   0.737   0.163  14.341 -1.2412 -0.1179 -1.5865
13167TIP3   OH260991   6.751   5.626  13.152  0.5793  0.0506  0.2410
13167TIP3    H160992   6.715   5.685  13.217 -0.1946 -1.1236  0.9104
13167TIP3    H260993   6.839   5.606  13.183 -0.3096 -1.7373  1.8570
13168TIP3   OH260994   1.825   5.410  13.654  0.6856 -0.2123  0.3032
13168TIP3    H160995   1.742   5.408  13.701  0.2391 -0.6347 -0.4861
13168TIP3    H260996   1.847   5.503  13.649  1.5802 -0.2000  2.7462
13169TIP3   OH260997   4.087   0.001   6.160  0.2315  0.3427 -0.2881
13169TIP3    H160998   4.157  -0.050   6.120 -0.0485  0.8134 -1.3946
13169TIP3    H260999   4.054   0.057   6.090 -1.7791 -0.4143 -0.0243
13170TIP3   OH261000   4.404   2.081   3.783 -0.0078  0.3723  0.4245
13170TIP3    H161001   4.392   2.174   3.764  1.1587  0.5702  0.6069
13170TIP3    H261002   4.427   2.043   3.698  1.2057  0.5548  0.6632
13171TIP3   OH261003   1.769   2.521   4.718 -0.0380  0.3531  0.0782
13171TIP3    H161004   1.708   2.480   4.778 -0.9774  0.0501 -1.0425
13171TIP3    H261005   1.848   2.466   4.722  0.7663  1.5499  2.5944
13172TIP3   OH261006   1.817   3.492  15.416 -0.3802  0.2978  0.1032
13172TIP3    H161007   1.889   3.485  15.353 -0.3420 -0.6483  0.2315
13172TIP3    H261008   1.746   3.440  15.377  0.6048 -2.8637  2.1167
13173TIP3   OH261009   3.768   2.113   3.554 -0.1245  0.0619 -0.4810
13173TIP3    H161010   3.728   2.164   3.625  0.4095 -0.7207  0.4121
13173TIP3    H261011   3.816   2.177   3.502  0.1261  0.5504  0.3244
13174TIP3   OH261012   4.188   0.606  11.713 -0.4408 -0.4466  0.9722
13174TIP3    H161013   4.120   0.560  11.664 -0.7569 -0.3404  1.3062
13174TIP3    H261014   4.269   0.584  11.668 -0.7465 -0.1893  0.2800
13175TIP3   OH261015   1.041   1.691   4.101  0.5855 -0.1569  0.3931
13175TIP3    H161016   1.098   1.694   4.178  1.4171 -0.6643 -0.1861
13175TIP3    H261017   1.053   1.602   4.066  1.1724  0.4456 -1.0096
13176TIP3   OH261018   1.635   4.265  13.397  0.4954 -0.1937  0.5118
13176TIP3    H161019   1.714   4.262  13.451  1.4351  0.8929 -0.7265
13176TIP3    H261020   1.651   4.202  13.327  1.7482  2.1681 -1.5269
13177TIP3   OH261021   1.670   0.648  12.268 -0.6686  0.4259 -0.2111
13177TIP3    H161022   1.619   0.717  12.225  2.6991  2.7285 -0.9252
13177TIP3    H261023   1.656   0.570  12.214 -3.3432  0.8811 -0.3133
13178TIP3   OH261024   3.099   5.777   4.566 -0.6341 -0.6105 -0.1535
13178TIP3    H161025   3.157   5.802   4.638 -0.7770 -0.1616 -0.1877
13178TIP3    H261026   3.014   5.813   4.591 -0.7981 -0.8950 -0.3051
13179TIP3   OH261027   6.137   4.007  13.347  0.0720  0.8997  0.0297
13179TIP3    H161028   6.199   4.019  13.275  0.8985 -2.1092  0.0949
13179TIP3    H261029   6.180   4.045  13.424  1.5623 -0.4912 -0.0767
13180TIP3   OH261030   5.990   3.177   3.217  0.2487 -0.4941 -0.3954
13180TIP3    H161031   5.909   3.225   3.233 -0.7655 -2.6645  1.5327
13180TIP3    H261032   6.049   3.206   3.287 -0.2507 -1.7409  0.5678
13181TIP3   OH261033   3.294   2.359   4.995 -0.7484  0.1795  0.1187
13181TIP3    H161034   3.262   2.316   4.915  1.3272 -0.7038 -0.3039
13181TIP3    H261035   3.319   2.447   4.966  0.1187 -0.1814 -0.2578
13182TIP3   OH261036   2.859   5.103   0.111  0.3573 -0.6787  0.2832
13182TIP3    H161037   2.765   5.086   0.111  0.1238  0.4898  0.6157
13182TIP3    H261038   2.870   5.171   0.044  0.5053  1.3150  2.2068
13183TIP3   OH261039   5.470   4.659  15.109 -0.4668 -0.3876 -0.1311
13183TIP3    H161040   5.434   4.691  15.027 -0.0382 -0.2502 -0.2674
13183TIP3    H261041   5.531   4.728  15.137  1.3501 -1.5704 -1.0134
13184TIP3   OH261042   3.580   4.527  12.512  0.1375  0.1686  0.5274
13184TIP3    H161043   3.525   4.452  12.536  1.3225 -0.1790  2.3809
13184TIP3    H261044   3.629   4.497  12.436 -1.4797  0.1353 -0.5448
13185TIP3   OH261045   3.914   6.227  15.069 -0.7221 -0.2580 -1.0399
13185TIP3    H161046   3.992   6.178  15.045 -0.3040  0.4084 -1.0574
13185TIP3    H261047   3.942   6.318  15.073 -0.9783 -0.2069  1.0393
13186TIP3   OH261048   6.075   4.842  15.045  0.2107  0.0688  0.1802
13186TIP3    H161049   6.134   4.915  15.027  0.9353 -0.4193  0.5785
13186TIP3    H261050   6.107   4.770  14.991  0.3886 -0.3992  0.8982
13187TIP3   OH261051   2.900   4.310   1.109  0.0849 -0.0165  0.2389
13187TIP3    H161052   2.835   4.374   1.140  0.2288  0.4177 -0.3378
13187TIP3    H261053   2.863   4.275   1.028  0.8800  0.7688 -0.4886
13188TIP3   OH261054   1.736   1.767  12.403  0.2311 -0.0891 -0.2887
13188TIP3    H161055   1.775   1.680  12.394 -1.3553 -0.6797 -2.2976
13188TIP3    H261056   1.665   1.755  12.465  0.6875  0.0412  0.2646
13189TIP3   OH261057   5.626   0.647   3.919  0.4180 -0.0186 -0.5970
13189TIP3    H161058   5.614   0.704   3.995  2.5877  0.9736 -0.9288
13189TIP3    H261059   5.576   0.689   3.849  0.0335  0.1552 -0.2179
13190TIP3   OH261060   5.386   0.468  14.830 -0.2879  0.6560  0.4163
13190TIP3    H161061   5.456   0.515  14.875  1.6606 -2.6791  1.2601
13190TIP3    H261062   5.421   0.453  14.742  0.7206 -1.9041  1.1363
13191TIP3   OH261063   1.793   1.858   5.576 -0.0484 -0.0137  0.0583
13191TIP3    H161064   1.736   1.826   5.646  2.5264 -2.2663  1.3200
13191TIP3    H261065   1.842   1.929   5.618  2.4517 -2.2258  1.1842
13192TIP3   OH261066   0.575   2.376  15.672 -0.3382  0.0340 -0.3106
13192TIP3    H161067   0.624   2.333  15.742 -1.7488  0.4022  0.9667
13192TIP3    H261068   0.624   2.356  15.592  0.8475 -1.1344  0.6625
13193TIP3   OH261069   1.948   0.226  12.130 -0.2946  0.1872 -0.3153
13193TIP3    H161070   1.958   0.277  12.050  1.2693  0.7521  0.2067
13193TIP3    H261071   2.027   0.245  12.181 -0.4983 -1.4187  0.6576
13194TIP3   OH261072   0.075   1.751   2.991  0.0866 -0.2801 -0.4756
13194TIP3    H161073   0.042   1.823   2.938 -0.3557  0.8836  1.3028
13194TIP3    H261074   0.087   1.788   3.078 -0.0586 -2.3216  0.4785
13195TIP3   OH261075   0.588   2.100   1.525  0.5871 -0.6936 -0.2216
13195TIP3    H161076   0.651   2.034   1.497  0.8463 -1.5120  2.1028
13195TIP3    H261077   0.511   2.050   1.553  0.2888  0.0778  0.3672
13196TIP3   OH261078   1.960   0.473   2.341  0.1319  0.2035  0.1049
13196TIP3    H161079   1.869   0.505   2.340  0.0790  0.0966  0.7292
13196TIP3    H261080   1.974   0.446   2.432  0.7323  0.0486 -0.0319
13197TIP3   OH261081   3.513   0.000   4.628  0.0212  0.1826  0.1623
13197TIP3    H161082   3.475   0.087   4.615  0.1843  0.2388  0.0463
13197TIP3    H261083   3.439  -0.055   4.654 -0.2041  0.2141 -0.3918
13198TIP3   OH261084   1.761   1.015   1.140 -0.5724 -0.6614 -0.0557
13198TIP3    H161085   1.793   1.066   1.065  0.7036 -1.2119  0.0816
13198TIP3    H261086   1.770   0.924   1.112 -1.2627 -0.8411  0.3096
13199TIP3   OH261087   3.164   0.871  16.113  0.1600  0.4000  1.2102
13199TIP3    H161088   3.128   0.782  16.123 -3.3291  1.5719  0.4492
13199TIP3    H261089   3.230   0.862  16.045 -0.1403 -1.6026  1.0992
13200TIP3   OH261090   4.942   4.471  17.067  0.4936 -0.1839 -0.7549
13200TIP3    H161091   4.944   4.390  17.016 -2.8713 -0.2617 -0.9922
13200TIP3    H261092   4.910   4.444  17.153  2.9807  0.4227  0.4212
13201TIP3   OH261093   4.802   1.373  16.036 -0.3299 -0.8629 -0.1983
13201TIP3    H161094   4.832   1.293  16.079  0.2345 -0.8887 -0.6171
13201TIP3    H261095   4.834   1.444  16.091  1.1778 -0.8635 -0.9996
13202TIP3   OH261096   5.926   5.856  10.875  0.0470 -0.0028 -0.9170
13202TIP3    H161097   5.841   5.821  10.901  0.2303 -0.5137 -0.9819
13202TIP3    H261098   5.928   5.945  10.910 -0.4386 -0.0514 -0.7623
13203TIP3   OH261099   4.529   2.193  16.122 -0.1334  0.2735 -0.1544
13203TIP3    H161100   4.471   2.174  16.196 -1.3573  1.2515 -0.8245
13203TIP3    H261101   4.591   2.257  16.156  0.6209 -0.8283  0.5902
13204TIP3   OH261102   0.355   6.250  16.081  0.3473  0.0197 -0.1421
13204TIP3    H161103   0.399   6.279  16.162 -0.8130 -0.5611  0.7209
13204TIP3    H261104   0.363   6.155  16.083 -1.2149 -0.1188  0.1991
13205TIP3   OH261105   6.184   3.310  13.403 -0.6633 -0.0055  0.5487
13205TIP3    H161106   6.114   3.346  13.349 -2.2239 -2.1583  1.0180
13205TIP3    H261107   6.245   3.272  13.340 -0.6170  0.6341  0.1961
13206TIP3   OH261108   3.496   3.007  16.187 -0.2115  0.3098  0.0879
13206TIP3    H161109   3.570   2.962  16.148  0.3922  1.6711 -0.3735
13206TIP3    H261110   3.521   3.020  16.279 -2.0615 -3.8551  1.4723
13207TIP3   OH261111   3.078   5.330   1.977  0.2831 -0.3406 -0.2779
13207TIP3    H161112   3.014   5.273   1.936  0.3581 -0.6383  0.0149
13207TIP3    H261113   3.034   5.362   2.056  0.3113 -0.1469 -0.3403
13208TIP3   OH261114   1.724   2.821   1.124  0.2412  0.3824 -0.6228
13208TIP3    H161115   1.657   2.757   1.150  0.9513 -0.2988 -0.4601
13208TIP3    H261116   1.690   2.860   1.043 -0.7598  0.6672 -0.0885
13209TIP3   OH261117   0.581   1.027  15.280 -0.0545 -0.2961 -0.2625
13209TIP3    H161118   0.499   1.070  15.304  0.3605  1.1830 -1.3630
13209TIP3    H261119   0.633   1.096  15.239  1.0318 -1.6364 -1.2173
13210TIP3   OH261120   1.547   4.827  15.457 -0.2366  1.0274 -0.1392
13210TIP3    H161121   1.510   4.739  15.467  0.0521  1.1384  3.0851
13210TIP3    H261122   1.518   4.856  15.370  0.1145 -2.4102 -1.5546
13211TIP3   OH261123   6.521   0.310  14.617 -0.0313  0.0336 -0.0531
13211TIP3    H161124   6.597   0.256  14.596  0.4506  0.5922  0.2255
13211TIP3    H261125   6.557   0.388  14.658 -0.8463 -0.5458  1.9144
13212TIP3   OH261126   5.122   3.795  15.168 -0.4149 -0.4816  0.4188
13212TIP3    H161127   5.130   3.846  15.249  1.9560 -1.4637  0.9040
13212TIP3    H261128   5.199   3.819  15.117 -1.8639  0.0982 -1.5938
13213TIP3   OH261129   4.734   2.881  14.105  0.6453 -0.0262 -0.1918
13213TIP3    H161130   4.793   2.876  14.180  0.5596  1.0734 -0.0222
13213TIP3    H261131   4.694   2.795  14.099  1.5260 -0.4788  0.3034
13214TIP3   OH261132   1.973   4.614  11.058  0.4591  0.2650 -0.1113
13214TIP3    H161133   2.040   4.676  11.087 -1.5492  1.3975  2.4278
13214TIP3    H261134   2.012   4.528  11.075  0.7302  0.8934  3.0404
13215TIP3   OH261135   1.018   0.502   2.697 -0.2578 -0.6151 -0.1362
13215TIP3    H161136   0.951   0.522   2.762 -0.4434 -0.6962 -0.3008
13215TIP3    H261137   1.082   0.449   2.745 -1.1637 -1.9998 -0.3886
13216TIP3   OH261138   1.158   4.267   0.142  0.4199  0.0428  0.5745
13216TIP3    H161139   1.251   4.253   0.158  0.7635  0.9755 -0.4223
13216TIP3    H261140   1.133   4.334   0.205  0.6411  0.3912  0.2997
13217TIP3   OH261141   4.678   4.057   5.856 -0.1023  0.3153 -0.4601
13217TIP3    H161142   4.653   4.143   5.890 -0.3995 -0.7018  2.1285
13217TIP3    H261143   4.768   4.045   5.888  0.5099  0.2584 -2.1179
13218TIP3   OH261144   5.683   0.402  16.184 -0.5913 -0.4150  0.0382
13218TIP3    H161145   5.624   0.475  16.202 -2.4780 -1.5436 -1.1236
13218TIP3    H261146   5.657   0.335  16.248  0.5781 -0.3713  0.5785
13219TIP3   OH261147   2.239   4.251   4.276  0.2130  0.0059  0.1586
13219TIP3    H161148   2.328   4.247   4.310  0.6530  2.5795 -0.4415
13219TIP3    H261149   2.225   4.166   4.234  1.6529 -1.1635  1.9007
13220TIP3   OH261150   5.010   0.889   1.395 -0.2162  0.3134  0.1260
13220TIP3    H161151   5.015   0.960   1.331 -0.3647  1.9165  1.8213
13220TIP3    H261152   5.097   0.886   1.434 -0.5603  0.4264  0.9288
13221TIP3   OH261153   6.537   4.072  12.728 -0.5940 -0.3461 -0.2239
13221TIP3    H161154   6.471   4.005  12.744 -1.6460  0.4533 -1.0390
13221TIP3    H261155   6.501   4.125  12.657  1.2691 -0.3324 -1.2374
13222TIP3   OH261156   4.439   2.099   1.164 -0.2002  0.1251 -0.1347
13222TIP3    H161157   4.421   2.171   1.225 -2.0703  0.4319 -0.9671
13222TIP3    H261158   4.469   2.143   1.084  1.7012 -0.2423  0.3310
13223TIP3   OH261159   5.924   0.200  16.337 -0.2572 -0.3967  0.0748
13223TIP3    H161160   5.934   0.192  16.242  1.1024 -0.9111  0.2344
13223TIP3    H261161   5.868   0.127  16.362 -1.2899  0.2049 -0.4085
13224TIP3   OH261162   5.417   4.281   4.482 -0.0190  0.3635 -0.0342
13224TIP3    H161163   5.480   4.287   4.554 -0.8547 -1.1081  0.8556
13224TIP3    H261164   5.468   4.241   4.410  0.1293 -0.7028  0.6369
13225TIP3   OH261165   4.396   0.603  14.833  0.1162 -0.9647  0.2247
13225TIP3    H161166   4.475   0.564  14.870  0.2378  0.0956  1.1134
13225TIP3    H261167   4.324   0.552  14.870  0.3218 -1.0491  0.5106
13226TIP3   OH261168   2.223   3.532   1.567 -0.1898  0.2480 -0.5364
13226TIP3    H161169   2.150   3.594   1.556  0.7989  1.5045 -0.3051
13226TIP3    H261170   2.206   3.489   1.651  0.0779  1.6224  0.2588
13227TIP3   OH261171   5.043   2.591  12.457 -0.3462 -0.4177  0.2415
13227TIP3    H161172   5.122   2.626  12.417 -1.3590 -0.4712 -1.9232
13227TIP3    H261173   5.073   2.515  12.508  0.9284 -0.8216 -1.0685
13228TIP3   OH261174   1.205   4.888  17.076  0.2505  0.4656 -0.2305
13228TIP3    H161175   1.227   4.933  16.995  0.3789  1.1470  0.1767
13228TIP3    H261176   1.225   4.796  17.058 -2.5712  0.0879 -1.9812
13229TIP3   OH261177   4.764   0.126  14.625 -0.1966  0.2936  0.3922
13229TIP3    H161178   4.694   0.062  14.639  1.5626 -1.7063  0.5537
13229TIP3    H261179   4.820   0.116  14.701  0.7922  1.1184 -0.2126
13230TIP3   OH261180   6.699   1.245   4.494  0.3941 -0.2371 -0.4024
13230TIP3    H161181   6.617   1.264   4.448  0.5244 -1.6734 -1.2654
13230TIP3    H261182   6.712   1.322   4.550 -1.4921  0.0641 -0.2942
13231TIP3   OH261183   5.927   6.597  15.207  0.4677  0.2034 -0.4031
13231TIP3    H161184   5.894   6.591  15.296 -0.6407  2.1642 -0.6246
13231TIP3    H261185   5.964   6.511  15.189 -1.1206 -0.8930  1.2260
13232TIP3   OH261186   1.203   1.883  13.754  0.2363 -0.2492 -0.1602
13232TIP3    H161187   1.120   1.851  13.789  0.3781  0.4063  0.8235
13232TIP3    H261188   1.256   1.804  13.742 -0.7850 -0.7618 -1.5681
13233TIP3   OH261189   0.136   2.400   1.991  0.6728  0.2218 -0.5505
13233TIP3    H161190   0.195   2.343   2.041 -0.1899  0.1976  0.4686
13233TIP3    H261191   0.113   2.349   1.914 -0.6037 -1.1187  0.6598
13234TIP3   OH261192   6.519   0.054  14.863 -0.1014 -0.2325  0.1642
13234TIP3    H161193   6.575   0.012  14.927 -1.1507 -0.2938  1.0630
13234TIP3    H261194   6.477   0.126  14.911 -0.0305  0.4517 -0.7574
13235TIP3   OH261195   0.468   4.080  14.643  0.5954 -0.1125 -0.2033
13235TIP3    H161196   0.488   4.017  14.574  2.1985 -1.4470  1.3799
13235TIP3    H261197   0.374   4.070  14.660 -0.2342  1.4198 -3.2143
13236TIP3   OH261198   4.312   3.678   0.835  0.3652 -0.0604  0.4297
13236TIP3    H161199   4.222   3.671   0.868  0.1972 -1.5584 -0.2847
13236TIP3    H261200   4.302   3.702   0.743  0.7128 -0.0443  0.3943
13237TIP3   OH261201   0.167   1.408   2.156  0.3945  0.2736 -0.3463
13237TIP3    H161202   0.135   1.361   2.079 -1.3559  1.2232 -0.2391
13237TIP3    H261203   0.088   1.446   2.196  1.3033  0.1583  1.6809
13238TIP3   OH261204   6.293   6.544  12.749  0.5250  0.5693 -0.1363
13238TIP3    H161205   6.292   6.639  12.745 -0.1036  0.6235  0.9008
13238TIP3    H261206   6.352   6.524  12.821  0.8410  0.1639 -0.5037
13239TIP3   OH261207   2.756   5.676  16.645 -0.1524  0.3673  1.1250
13239TIP3    H161208   2.703   5.615  16.697  0.4627 -1.8165 -0.6369
13239TIP3    H261209   2.724   5.666  16.556  2.3279 -0.1059  0.1954
13240TIP3   OH261210   5.061   0.560   1.298 -0.3552  0.1664 -0.9304
13240TIP3    H161211   5.067   0.480   1.350 -1.0672  0.3662 -0.5242
13240TIP3    H261212   5.022   0.531   1.216 -0.3736  0.0569 -0.8844
13241TIP3   OH261213   2.477   3.078  14.186  0.2973  0.1193  0.1752
13241TIP3    H161214   2.516   3.042  14.106  0.3433  1.7333 -0.5532
13241TIP3    H261215   2.468   3.002  14.244  3.6676 -0.5177  0.0660
13242TIP3   OH261216   3.231   4.336   3.708 -0.3993 -0.3718 -0.0977
13242TIP3    H161217   3.322   4.364   3.704 -0.7111  0.6076 -0.7471
13242TIP3    H261218   3.188   4.401   3.763 -0.8572 -0.3783 -0.4399
13243TIP3   OH261219   5.398   5.681  13.202  0.0017 -0.5871 -0.1736
13243TIP3    H161220   5.394   5.604  13.258 -0.7916 -0.2659  0.2364
13243TIP3    H261221   5.420   5.753  13.262  0.4487 -0.4482 -0.5012
13244TIP3   OH261222   4.372   5.534  14.532  0.2216  0.0984  0.0021
13244TIP3    H161223   4.394   5.582  14.453  0.3533  0.4471  0.2471
13244TIP3    H261224   4.415   5.583  14.602 -0.9227  0.4996  0.4417
13245TIP3   OH261225   4.000   3.616   0.759  0.3602 -0.0914  0.1338
13245TIP3    H161226   3.922   3.643   0.711 -0.6545  0.4980  1.9955
13245TIP3    H261227   4.020   3.529   0.725 -0.5250  0.1435 -1.0595
13246TIP3   OH261228   6.124   0.567   1.904  0.3626 -0.2319 -0.0030
13246TIP3    H161229   6.089   0.502   1.843  0.8406  1.9825 -2.8421
13246TIP3    H261230   6.219   0.553   1.903  0.3301 -0.5661  0.7573
13247TIP3   OH261231   3.257   5.073   0.932 -0.1083  0.7083  0.0985
13247TIP3    H161232   3.180   5.028   0.965  1.6148 -3.8363 -1.2234
13247TIP3    H261233   3.316   5.079   1.007 -0.1225  0.0598  0.1676
13248TIP3   OH261234   4.838   3.547   3.317 -0.5655  0.4664 -0.1678
13248TIP3    H161235   4.811   3.481   3.253 -0.0297 -0.4852  0.5736
13248TIP3    H261236   4.917   3.586   3.280 -0.5900  0.3318 -0.3624
13249TIP3   OH261237   3.315   2.870   4.138 -0.7203 -0.0089 -0.2171
13249TIP3    H161238   3.247   2.935   4.121  0.9694  1.6413 -0.9918
13249TIP3    H261239   3.395   2.907   4.099  0.6593 -1.8201  0.7120
13250TIP3   OH261240   5.392   5.588  14.441  0.1528  0.4169  0.3962
13250TIP3    H161241   5.447   5.513  14.420 -1.4962 -0.6905 -0.2058
13250TIP3    H261242   5.401   5.599  14.536  1.1363  0.0714  0.3486
13251TIP3   OH261243   4.927   6.629  10.304  0.6258 -0.1484  0.0885
13251TIP3    H161244   4.866   6.639  10.377  0.4042  2.0047 -0.3162
13251TIP3    H261245   4.871   6.631  10.226  1.0406 -0.1908 -0.2145
13252TIP3   OH261246   0.763   0.005   3.181 -0.2942  0.3709 -0.4678
13252TIP3    H161247   0.806   0.042   3.103  1.4708 -0.0170  0.2630
13252TIP3    H261248   0.738   0.082   3.233  1.9048  0.6520  0.2855
13253TIP3   OH261249   4.453   1.561  14.614 -0.5547 -0.5716 -0.2090
13253TIP3    H161250   4.475   1.562  14.521 -0.7803  1.2941 -0.2904
13253TIP3    H261251   4.375   1.616  14.620  1.6022  2.6099  1.4938
13254TIP3   OH261252   0.016   1.305  15.872 -0.1112 -0.1066 -0.5913
13254TIP3    H161253  -0.071   1.331  15.902  0.9543  2.9470  0.2975
13254TIP3    H261254   0.036   1.366  15.801  1.7508  0.0827  0.0358
13255TIP3   OH261255   5.343   0.702   1.848  0.3847  0.3475  0.2400
13255TIP3    H161256   5.260   0.706   1.895  0.2799 -3.2472  0.6285
13255TIP3    H261257   5.366   0.609   1.848  3.1960  0.9100 -2.0176
13256TIP3   OH261258   3.569   2.129  13.814 -0.2662 -0.5347  0.5146
13256TIP3    H161259   3.558   2.158  13.723  1.4141 -0.7328  0.2164
13256TIP3    H261260   3.519   2.193  13.865  0.1702  0.5996 -0.4328
13257TIP3   OH261261   3.029   1.498   5.767 -0.2597  0.0454  0.3517
13257TIP3    H161262   3.078   1.568   5.723 -0.1600 -0.5197 -0.4505
13257TIP3    H261263   3.095   1.435   5.794 -0.4186 -0.0742  0.4663
13258TIP3   OH261264   2.958   4.913  15.058  0.6175  0.1473 -0.8236
13258TIP3    H161265   2.900   4.956  15.120  1.5850  0.5438 -0.1726
13258TIP3    H261266   2.901   4.854  15.008 -0.3351  0.5456 -0.2262
13259TIP3   OH261267   1.125   1.562  14.103 -0.0603 -0.1335 -0.1755
13259TIP3    H161268   1.159   1.494  14.046  1.8351  1.9865 -1.7606
13259TIP3    H261269   1.162   1.543  14.189  1.6278 -0.3254 -0.9096
13260TIP3   OH261270   4.525   3.970   2.145 -0.1428  0.6599 -0.1632
13260TIP3    H161271   4.470   4.031   2.096  0.2246  2.3841  1.4610
13260TIP3    H261272   4.464   3.906   2.181 -0.6210  0.4565 -1.2774
13261TIP3   OH261273   1.159   0.965   2.896  0.6714  0.0163 -0.3118
13261TIP3    H161274   1.085   0.917   2.858 -0.8636  1.7536  0.3621
13261TIP3    H261275   1.124   1.007   2.974  2.2724  1.2100 -0.1743
13262TIP3   OH261276   5.352   4.052   5.376 -0.4580  0.2031  0.3769
13262TIP3    H161277   5.289   4.031   5.307 -0.9945  0.9024  0.6418
13262TIP3    H261278   5.335   4.143   5.397 -0.0471  0.1052  1.1779
13263TIP3   OH261279   5.945   2.078  12.956 -0.6185  0.1692  0.4725
13263TIP3    H161280   5.919   2.042  13.040 -0.6542  1.9338  1.2406
13263TIP3    H261281   5.886   2.036  12.893 -4.2992  2.7243  1.9359
13264TIP3   OH261282   1.377   6.531  13.464  0.2511  0.6271  0.3739
13264TIP3    H161283   1.418   6.505  13.381  2.3165  1.0674  1.1918
13264TIP3    H261284   1.338   6.616  13.446  0.1901  0.4636 -0.2895
13265TIP3   OH261285   0.081   6.165  13.358 -0.0599  0.5624  0.7542
13265TIP3    H161286   0.001   6.207  13.390  1.0739  1.0307  3.1685
13265TIP3    H261287   0.088   6.194  13.267 -0.9360  3.2071  1.4305
13266TIP3   OH261288   5.861   5.097   0.459 -0.2829  0.1857 -0.1195
13266TIP3    H161289   5.874   5.002   0.454  0.5373  0.3511 -2.0532
13266TIP3    H261290   5.934   5.134   0.409 -0.9351  1.8087  0.0656
13267TIP3   OH261291   2.669   1.869  11.364  0.4113  0.0668  0.1991
13267TIP3    H161292   2.667   1.805  11.435  1.0210 -0.3196 -0.1284
13267TIP3    H261293   2.592   1.924  11.380 -0.7011 -1.3579 -0.0977
13268TIP3   OH261294   2.319   6.110   3.377  0.3382  0.0266 -0.5191
13268TIP3    H161295   2.264   6.036   3.403 -0.7738  1.7840  2.5390
13268TIP3    H261296   2.273   6.149   3.303 -0.7745 -0.4667 -0.1045
13269TIP3   OH261297   3.492   5.184  13.204  0.3608  0.3437  0.1714
13269TIP3    H161298   3.420   5.213  13.148  0.4283 -0.4572 -0.3520
13269TIP3    H261299   3.493   5.246  13.276 -1.0120  0.2454  0.3066
13270TIP3   OH261300   5.067   6.587  12.148  0.2226 -0.4332  0.3172
13270TIP3    H161301   5.053   6.553  12.237  0.2552  0.3597  0.6311
13270TIP3    H261302   5.024   6.673  12.148  0.0188 -0.5304 -0.5106
13271TIP3   OH261303   2.186   6.655  16.187 -1.2253  0.2038  0.5024
13271TIP3    H161304   2.220   6.634  16.100  0.0149 -0.9080  1.2163
13271TIP3    H261305   2.252   6.711  16.226 -1.2446 -0.2029  1.1247
13272TIP3   OH261306   1.536   3.425   2.351 -0.1429  0.5628  0.3988
13272TIP3    H161307   1.580   3.343   2.330  1.1178  1.8288 -2.4337
13272TIP3    H261308   1.446   3.399   2.372  0.7756 -1.6903  1.9905
13273TIP3   OH261309   1.480   2.650  13.052  0.8018 -0.6720  0.4638
13273TIP3    H161310   1.441   2.563  13.046  1.7695 -1.0138 -1.2764
13273TIP3    H261311   1.444   2.686  13.134  0.2374 -2.6064  1.1269
13274TIP3   OH261312   0.782   4.998   3.047  0.6511 -0.2703 -0.1193
13274TIP3    H161313   0.854   5.041   3.093 -0.9140  1.0345  1.2517
13274TIP3    H261314   0.750   5.063   2.985  0.8131 -0.9262 -0.9015
13275TIP3   OH261315   2.824   4.671  16.676 -0.0663  0.1120 -0.1032
13275TIP3    H161316   2.747   4.619  16.650  0.8194 -0.9260 -0.7159
13275TIP3    H261317   2.871   4.686  16.594  1.2310 -0.6524  0.4865
13276TIP3   OH261318   3.687   1.290   3.791  0.2801 -0.3445 -0.0179
13276TIP3    H161319   3.670   1.196   3.803 -0.2734 -0.2887 -0.3335
13276TIP3    H261320   3.636   1.313   3.713  0.2797  0.2543  0.1597
13277TIP3   OH261321   0.842   5.091   1.486  0.0369 -0.4091  0.0128
13277TIP3    H161322   0.888   5.072   1.404  0.5654  1.3957 -0.1685
13277TIP3    H261323   0.784   5.016   1.499  1.9045 -2.0439 -0.5648
13278TIP3   OH261324   1.139   4.539  14.609  0.2897 -0.5282 -0.3239
13278TIP3    H161325   1.203   4.494  14.553  1.4572 -0.8575  1.2236
13278TIP3    H261326   1.144   4.493  14.693  0.8342  1.8746  1.0270
13279TIP3   OH261327   2.879   2.742   4.885  0.0739  0.0631  0.0773
13279TIP3    H161328   2.960   2.793   4.879  0.4158 -0.4171  0.5293
13279TIP3    H261329   2.903   2.666   4.937 -1.0726  0.7071  1.6113
13280TIP3   OH261330   6.794   3.630  13.178  0.4289  0.1275  0.2469
13280TIP3    H161331   6.772   3.585  13.097  1.1224  0.1381  0.0516
13280TIP3    H261332   6.860   3.695  13.153  2.3640 -1.4028  1.1967
13281TIP3   OH261333   0.337   5.723   3.545 -0.2199 -0.1593  0.2373
13281TIP3    H161334   0.270   5.684   3.600 -1.0761 -1.8193 -1.8407
13281TIP3    H261335   0.289   5.782   3.487  0.2192 -0.7207 -0.7161
13282TIP3   OH261336   2.526   6.571  12.097  0.0187 -0.4516  0.6133
13282TIP3    H161337   2.537   6.492  12.150  0.2800  0.6792  2.3306
13282TIP3    H261338   2.515   6.641  12.161  0.1853  0.9689 -0.8566
13283TIP3   OH261339   5.213   6.738  12.405 -0.4644  0.0286  0.4622
13283TIP3    H161340   5.232   6.647  12.428 -3.0033 -0.3373  1.3811
13283TIP3    H261341   5.269   6.755  12.329  0.8422 -1.9406  0.9060
13284TIP3   OH261342   2.876   6.312  12.753 -0.1104 -0.2811 -0.3722
13284TIP3    H161343   2.790   6.270  12.759  0.6920 -1.8966  0.5754
13284TIP3    H261344   2.909   6.286  12.668  0.0803 -1.0088 -0.0847
13285TIP3   OH261345   2.515   1.039  12.437  0.1925 -0.0353 -0.1149
13285TIP3    H161346   2.565   1.108  12.394  1.1436  0.5929  1.8973
13285TIP3    H261347   2.508   1.067  12.528 -0.8120 -1.8145  0.4110
13286TIP3   OH261348   4.301   5.684  15.752 -0.5156  0.1394  0.4103
13286TIP3    H161349   4.310   5.703  15.845 -1.5305  1.0505  0.3458
13286TIP3    H261350   4.281   5.769  15.712  0.1284 -0.1956 -0.6729
13287TIP3   OH261351   4.561   4.674   6.554 -0.4283  0.3824  0.1286
13287TIP3    H161352   4.652   4.672   6.524 -0.6920  2.2308 -0.9483
13287TIP3    H261353   4.565   4.722   6.637 -0.1543 -1.7229  1.4137
13288TIP3   OH261354   6.104   0.775   6.096 -0.5416  0.1805  0.4381
13288TIP3    H161355   6.155   0.832   6.154 -0.7757  0.7324  0.1135
13288TIP3    H261356   6.167   0.710   6.064 -0.1509  0.5571  0.4301
13289TIP3   OH261357   5.017   0.728  15.095 -0.2116  0.6185 -0.5075
13289TIP3    H161358   5.059   0.663  15.038 -1.1275 -0.5621  0.1279
13289TIP3    H261359   4.930   0.740  15.057 -0.7671 -0.0451  0.5132
13290TIP3   OH261360   1.874   4.688   4.739  0.0553 -0.2855 -0.2382
13290TIP3    H161361   1.826   4.751   4.793  1.2334 -1.3296  2.1959
13290TIP3    H261362   1.962   4.726   4.730  0.7542 -1.4620  1.1903
13291TIP3   OH261363   5.069   4.856   5.650 -0.0471 -0.2993 -0.2596
13291TIP3    H161364   4.982   4.844   5.614  0.2080 -2.7522 -0.1808
13291TIP3    H261365   5.057   4.846   5.745  0.3333 -0.7599 -0.2589
13292TIP3   OH261366   1.641   3.715   5.278  0.7495  0.2133  0.4584
13292TIP3    H161367   1.580   3.789   5.273  1.1249  0.5024 -0.0314
13292TIP3    H261368   1.713   3.747   5.332  1.1874  0.4174 -0.2351
13293TIP3   OH261369   5.742   4.952  14.710 -0.1680  0.5997  0.1173
13293TIP3    H161370   5.758   4.948  14.616 -1.0425 -0.9122  0.0021
13293TIP3    H261371   5.663   4.900  14.723 -0.7320  1.7599  1.5601
13294TIP3   OH261372   6.383   4.273  14.164  0.2707  0.6310 -0.5055
13294TIP3    H161373   6.386   4.343  14.229  1.9242  0.1991 -0.0736
13294TIP3    H261374   6.443   4.302  14.095  3.3335 -1.5631  1.0199
13295TIP3   OH261375   6.452   3.704  16.531 -0.2927  0.1863  0.0569
13295TIP3    H161376   6.460   3.734  16.622 -1.2834 -0.3457  0.3282
13295TIP3    H261377   6.512   3.761  16.482 -1.2530  1.8581  0.7397
13296TIP3   OH261378   2.143   0.252  11.648  0.6733 -0.5429  0.2581
13296TIP3    H161379   2.058   0.252  11.606 -0.0859 -3.4926  1.4961
13296TIP3    H261380   2.205   0.265  11.576 -0.7376 -0.6942 -1.0449
13297TIP3   OH261381   4.589   5.157   4.888 -0.6100 -0.6049 -0.5108
13297TIP3    H161382   4.518   5.099   4.915 -0.3871 -0.1140  1.2480
13297TIP3    H261383   4.667   5.121   4.932 -0.2399  0.2890 -0.4061
13298TIP3   OH261384   6.295   2.086   2.924 -0.5347  0.5267 -0.4614
13298TIP3    H161385   6.314   2.047   2.839  1.8134  0.1404  0.1641
13298TIP3    H261386   6.340   2.171   2.923  3.8592 -1.4511  1.9749
13299TIP3   OH261387   2.862   5.909   1.418  0.4334 -0.0513 -0.3467
13299TIP3    H161388   2.815   5.990   1.401 -0.3703 -0.5178 -0.4077
13299TIP3    H261389   2.794   5.842   1.422  0.7014 -0.2679  2.9672
13300TIP3   OH261390   5.233   3.030   3.396  0.0236 -0.0877 -0.0525
13300TIP3    H161391   5.236   3.089   3.471 -0.9458 -0.5739  0.3940
13300TIP3    H261392   5.243   3.087   3.320 -0.4941  0.6106  0.3882
13301TIP3   OH261393   3.220   3.431   0.106 -0.1281 -0.3344 -0.1801
13301TIP3    H161394   3.217   3.350   0.054  0.9945 -1.4667  1.4475
13301TIP3    H261395   3.293   3.480   0.069  0.2852 -0.8599 -0.0781
13302TIP3   OH261396   5.665   5.196  11.935 -0.0263  0.0722  0.0291
13302TIP3    H161397   5.663   5.101  11.925 -1.9777 -0.1347  1.6596
13302TIP3    H261398   5.709   5.211  12.019 -0.2019  0.5535  0.0421
13303TIP3   OH261399   5.371   6.766  11.297  0.0558 -0.7231  0.3230
13303TIP3    H161400   5.331   6.751  11.210 -0.3548  0.8680  0.2069
13303TIP3    H261401   5.304   6.738  11.359  0.2375 -1.5945  0.1360
13304TIP3   OH261402   2.354   1.705   4.292 -0.0569  0.0009 -0.2757
13304TIP3    H161403   2.417   1.751   4.348  0.1971  0.2338 -0.7484
13304TIP3    H261404   2.331   1.769   4.225 -1.4308  0.2083  0.3609
13305TIP3   OH261405   6.656   0.487  15.723  0.1739  1.1019 -0.3368
13305TIP3    H161406   6.728   0.536  15.763  1.3847 -0.5901 -0.3198
13305TIP3    H261407   6.679   0.480  15.631  0.6324 -0.3670 -0.1426
13306TIP3   OH261408   2.856   2.298   0.766  0.0184 -1.0682 -0.1965
13306TIP3    H161409   2.865   2.217   0.817  0.9920 -1.2982 -0.7225
13306TIP3    H261410   2.909   2.362   0.813  1.4085 -1.4331 -1.2146
13307TIP3   OH261411   3.806   2.411   2.887 -0.1791  0.3773 -0.1500
13307TIP3    H161412   3.780   2.340   2.828 -2.6070 -0.4166  1.6943
13307TIP3    H261413   3.902   2.408   2.887 -0.1684 -1.9061 -1.3188
13308TIP3   OH261414   0.032   0.748  10.958 -0.3558 -0.1996  0.7684
13308TIP3    H161415   0.014   0.817  10.894 -0.2878 -0.0806  0.8757
13308TIP3    H261416   0.047   0.670  10.905  1.7688  0.3169  0.4892
13309TIP3   OH261417   2.424   5.673   1.174  0.3372 -0.3952  0.8037
13309TIP3    H161418   2.412   5.768   1.175  1.9157 -0.1275  3.5461
13309TIP3    H261419   2.357   5.640   1.234 -0.8212 -1.1711 -0.8552
13310TIP3   OH261420   5.781   1.281   5.527  0.2261 -0.1769 -0.0939
13310TIP3    H161421   5.704   1.328   5.560  0.5725  0.8304 -0.6731
13310TIP3    H261422   5.847   1.349   5.514  0.7782 -0.8360 -0.8601
13311TIP3   OH261423   4.744   1.602   5.172  0.0275 -0.3586 -0.0347
13311TIP3    H161424   4.748   1.675   5.110  0.2250  0.2202  0.6469
13311TIP3    H261425   4.831   1.563   5.167  0.3497  0.2586  0.5420
13312TIP3   OH261426   6.355   4.556   5.139 -0.6084 -0.0737  0.5688
13312TIP3    H161427   6.401   4.472   5.140  1.1438  0.7767 -1.2475
13312TIP3    H261428   6.262   4.533   5.139 -0.1906 -2.0843 -1.0168
13313TIP3   OH261429   4.222   2.252  16.526  0.4848 -0.2973  0.2660
13313TIP3    H161430   4.172   2.176  16.554  2.4963 -1.2042  1.6046
13313TIP3    H261431   4.249   2.295  16.607  2.0797 -0.0048 -0.3773
13314TIP3   OH261432   5.288   4.469   3.446  1.1094  0.2163  0.2091
13314TIP3    H161433   5.321   4.495   3.360  2.1310  0.8632  0.7747
13314TIP3    H261434   5.340   4.392   3.469  1.1393  0.3035  0.4350
13315TIP3   OH261435   1.607   6.457  14.611 -0.9340  0.3865 -0.5929
13315TIP3    H161436   1.679   6.398  14.631  0.7338  2.7307  0.8344
13315TIP3    H261437   1.641   6.514  14.541 -2.1274  0.3093 -1.2636
13316TIP3   OH261438   1.004   4.697   2.599 -0.8895 -0.2643  0.6887
13316TIP3    H161439   0.920   4.744   2.602 -1.1374 -0.7450  2.4393
13316TIP3    H261440   1.030   4.689   2.691  0.4960 -1.1562  0.2412
13317TIP3   OH261441   0.115   0.416  14.246 -0.0089 -0.2472 -0.1976
13317TIP3    H161442   0.193   0.380  14.203  0.1466 -0.9154  0.6071
13317TIP3    H261443   0.143   0.434  14.336 -0.6415 -0.0163 -0.0405
13318TIP3   OH261444   5.067   3.293   3.450  0.5143 -0.4005 -0.3044
13318TIP3    H161445   5.059   3.378   3.493  1.0284 -0.2765 -0.4451
13318TIP3    H261446   5.149   3.299   3.401  0.1962 -0.7239 -0.8842
13319TIP3   OH261447   1.447   2.767  14.436  0.9683 -0.6108  0.2300
13319TIP3    H161448   1.362   2.745  14.476  1.6170 -2.5678  0.6863
13319TIP3    H261449   1.463   2.695  14.375  2.1815 -0.1125 -0.0504
13320TIP3   OH261450   2.862   6.826  10.347  0.5232  0.0955 -0.0512
13320TIP3    H161451   2.951   6.860  10.347 -0.1575  2.0772 -1.5004
13320TIP3    H261452   2.869   6.740  10.306  1.9129 -0.3423  1.0405
13321TIP3   OH261453   5.185   5.747   0.637 -0.9335  0.4184  0.8335
13321TIP3    H161454   5.176   5.775   0.546 -0.5470 -0.4554  0.5121
13321TIP3    H261455   5.234   5.818   0.679 -3.7333  2.3041  1.1385
13322TIP3   OH261456   1.325   6.124  16.869 -0.0225 -0.2688  0.0008
13322TIP3    H161457   1.407   6.117  16.918 -0.8808 -0.3717  1.4826
13322TIP3    H261458   1.341   6.075  16.788  1.8211  0.9001 -0.3872
13323TIP3   OH261459   2.799   0.410   2.272 -0.3310  0.6015 -0.6421
13323TIP3    H161460   2.841   0.377   2.352 -0.6201  2.0364  0.1324
13323TIP3    H261461   2.745   0.483   2.302  1.0802  2.4630 -2.3966
13324TIP3   OH261462   3.593   2.226  11.545 -0.2575  0.5900  0.4557
13324TIP3    H161463   3.658   2.295  11.527 -0.5468  0.7177 -0.1159
13324TIP3    H261464   3.628   2.148  11.501 -0.7226  0.7803 -0.2749
13325TIP3   OH261465   0.273   2.967   0.355 -0.2212 -0.1437  0.4931
13325TIP3    H161466   0.341   2.951   0.420  0.4808  1.4437  0.2064
13325TIP3    H261467   0.203   2.905   0.377  0.6300 -0.6815  1.8043
13326TIP3   OH261468   2.007   3.259  11.845  0.5431  0.2209  0.2540
13326TIP3    H161469   2.048   3.234  11.762 -2.6904 -2.4323 -0.8192
13326TIP3    H261470   1.965   3.343  11.827 -0.6504 -0.6145 -1.1235
13327TIP3   OH261471   4.886   1.312  11.559 -0.2730  0.1976 -0.4490
13327TIP3    H161472   4.872   1.328  11.652  0.5675  0.8338 -0.4148
13327TIP3    H261473   4.976   1.279  11.554  0.2626  1.6994 -1.1830
13328TIP3   OH261474   4.855   3.406   4.745 -0.5786 -0.1930 -0.0633
13328TIP3    H161475   4.839   3.313   4.732 -0.1305 -0.4857  1.3109
13328TIP3    H261476   4.777   3.437   4.791  0.6093 -0.6129  2.3744
13329TIP3   OH261477   4.537   5.233   3.923  0.1881 -0.5327  0.1647
13329TIP3    H161478   4.615   5.192   3.961  0.1227 -1.3178 -0.4946
13329TIP3    H261479   4.517   5.306   3.980  1.4634 -0.2681  0.3052
13330TIP3   OH261480   0.010   1.003  16.868 -0.4734 -0.5086  0.1209
13330TIP3    H161481   0.103   1.005  16.848 -0.2655  1.1867  1.1026
13330TIP3    H261482   0.006   0.983  16.961 -0.8182  3.5537  1.1422
13331TIP3   OH261483   0.889   5.698   3.130 -0.0463  0.4839  0.1660
13331TIP3    H161484   0.866   5.767   3.068 -1.1768 -2.0958 -2.5366
13331TIP3    H261485   0.943   5.742   3.196  0.2727  3.6739 -1.9915
13332TIP3   OH261486   5.366   4.827   4.526 -0.4577 -0.4036  0.5949
13332TIP3    H161487   5.295   4.836   4.589 -1.8836 -0.0873 -0.9713
13332TIP3    H261488   5.438   4.878   4.562 -0.7569 -1.2838  2.5469
13333TIP3   OH261489   0.136   0.766   5.362 -0.1936 -0.1037 -0.1404
13333TIP3    H161490   0.187   0.727   5.291  0.4681  1.8441 -0.8095
13333TIP3    H261491   0.202   0.801   5.422 -0.6918 -2.7575  2.1842
13334TIP3   OH261492   1.897   4.325  15.349 -0.0287  0.0308 -0.2365
13334TIP3    H161493   1.812   4.363  15.370 -1.1908 -2.8102  0.6812
13334TIP3    H261494   1.896   4.315  15.254  0.1991  1.8482 -0.4763
13335TIP3   OH261495   1.800   4.685   1.048 -0.0749  0.3598  0.0730
13335TIP3    H161496   1.710   4.705   1.023 -0.5354 -3.1838 -1.8184
13335TIP3    H261497   1.799   4.684   1.144 -2.2385 -0.1540  0.0802
13336TIP3   OH261498   6.202   0.598  15.226 -0.1395  0.1088  0.4177
13336TIP3    H161499   6.206   0.522  15.167  1.6055  0.4702  0.0253
13336TIP3    H261500   6.181   0.560  15.311 -1.0409 -0.6081 -0.1035
13337TIP3   OH261501   2.901   3.659  13.857  0.4465  0.5076 -0.1401
13337TIP3    H161502   2.957   3.735  13.875  0.8583  0.5892 -1.6866
13337TIP3    H261503   2.814   3.696  13.840  0.8140  0.7377 -1.6716
13338TIP3   OH261504   1.542   6.545  16.353 -0.1904  0.1485 -0.3576
13338TIP3    H161505   1.502   6.512  16.434  0.1079  0.5080 -0.0640
13338TIP3    H261506   1.633   6.561  16.376 -0.3806  1.4103 -0.4359
13339TIP3   OH261507   2.737   2.771  16.406 -0.0911  0.0337  0.2479
13339TIP3    H161508   2.676   2.698  16.407 -2.2461  1.7158 -0.2029
13339TIP3    H261509   2.698   2.834  16.345  1.7780  1.4881  0.4525
13340TIP3   OH261510   3.575   1.615   5.346  0.2562  0.4068  0.2060
13340TIP3    H161511   3.539   1.581   5.429  1.4994  0.4261  0.7788
13340TIP3    H261512   3.650   1.669   5.373  0.6631  0.4307 -0.9292
13341TIP3   OH261513   5.518   1.644   5.805 -0.0614  0.3076  0.0269
13341TIP3    H161514   5.500   1.690   5.723  0.5633  0.7110  0.1178
13341TIP3    H261515   5.597   1.684   5.840  0.5669 -0.8976  0.0571
13342TIP3   OH261516   5.177   3.397   4.546 -0.2696 -0.4611  0.4555
13342TIP3    H161517   5.157   3.413   4.453 -0.4818 -3.0650 -0.0197
13342TIP3    H261518   5.123   3.321   4.569  0.8914 -0.7744  2.2897
13343TIP3   OH261519   2.997   3.023   5.744  0.3125  0.4307 -0.4407
13343TIP3    H161520   2.929   3.067   5.694 -1.2248 -1.6842 -0.3446
13343TIP3    H261521   2.950   2.974   5.812  1.8283 -1.5901 -0.7366
13344TIP3   OH261522   2.584   1.728  12.949 -0.3584  0.1809 -0.1794
13344TIP3    H161523   2.496   1.711  12.985 -0.6598  0.8381 -0.5814
13344TIP3    H261524   2.624   1.788  13.011  0.2810 -1.0659  0.6476
13345TIP3   OH261525   3.912   6.138   1.087 -0.5061 -0.0301  1.0006
13345TIP3    H161526   3.947   6.164   1.172 -1.5870  1.4221  1.0394
13345TIP3    H261527   3.960   6.192   1.024 -1.4673  0.7466  0.9189
13346TIP3   OH261528   1.686   3.643   4.461  0.0016  0.0636 -0.5303
13346TIP3    H161529   1.716   3.627   4.371  1.2564 -2.7692  0.2825
13346TIP3    H261530   1.658   3.557   4.493  2.1018  0.3737  2.6110
13347TIP3   OH261531   3.522   1.302   3.572  0.3671  0.0073 -0.3149
13347TIP3    H161532   3.484   1.218   3.596  1.7484 -0.7985 -0.8417
13347TIP3    H261533   3.586   1.281   3.504  1.7915  1.2682  0.5601
13348TIP3   OH261534   1.699   6.130  12.200  0.6778  0.1783 -0.5239
13348TIP3    H161535   1.733   6.046  12.167  2.7513  0.4358  0.7902
13348TIP3    H261536   1.743   6.142  12.284 -2.4907  0.7619  1.1796
13349TIP3   OH261537   6.527   0.617  13.934  0.0987 -0.5555  0.7068
13349TIP3    H161538   6.620   0.621  13.912 -0.5571 -1.2757 -2.8473
13349TIP3    H261539   6.501   0.708  13.946  0.7682 -0.1019 -1.0169
13350TIP3   OH261540   1.877   5.786   0.609  0.0882 -0.2361 -0.5912
13350TIP3    H161541   1.905   5.746   0.527  0.3990 -0.2749 -0.4661
13350TIP3    H261542   1.925   5.869   0.613  0.2410 -0.3372 -0.3409
13351TIP3   OH261543   4.843   0.468  15.589  0.7821  0.1307 -0.6092
13351TIP3    H161544   4.880   0.412  15.521 -0.2725  0.5213 -1.5517
13351TIP3    H261545   4.748   0.453  15.582  0.5397  1.4629 -0.3901
13352TIP3   OH261546   3.795   3.067  17.202 -0.2469 -0.1235 -0.2618
13352TIP3    H161547   3.797   3.001  17.271  0.6551  0.6414  0.4827
13352TIP3    H261548   3.704   3.071  17.174 -0.2896 -1.7979 -0.4606
13353TIP3   OH261549   5.616   5.117  16.896  0.5176  0.2582 -0.2881
13353TIP3    H161550   5.553   5.098  16.827  1.3454 -1.2445 -0.6714
13353TIP3    H261551   5.658   5.032  16.915 -0.3873  0.3569  2.7692
13354TIP3   OH261552   1.227   5.235   5.831 -0.2069  0.8797  0.0676
13354TIP3    H161553   1.211   5.323   5.866 -0.7583  1.0064 -0.4832
13354TIP3    H261554   1.319   5.236   5.806 -0.6192  1.9089 -1.5697
13355TIP3   OH261555   2.932   2.646  12.031  0.4326 -0.7313 -0.9106
13355TIP3    H161556   2.977   2.703  12.094  0.0418 -1.7441  0.3371
13355TIP3    H261557   3.000   2.588  11.999  0.7597  0.1757 -1.9217
13356TIP3   OH261558   5.833   0.000  13.873  0.0982 -0.2920  0.4490
13356TIP3    H161559   5.783   0.040  13.802  1.7809 -0.2442 -0.7636
13356TIP3    H261560   5.833   0.067  13.942  0.0355  0.4450 -0.2477
13357TIP3   OH261561   4.896   2.200   4.141 -0.0210 -0.3872  0.3995
13357TIP3    H161562   4.976   2.149   4.130 -0.5838 -1.1048 -0.5737
13357TIP3    H261563   4.926   2.287   4.168  1.2886  0.0526 -2.1395
13358TIP3   OH261564   4.297   2.139   4.489 -0.1277 -0.2983 -0.2574
13358TIP3    H161565   4.326   2.092   4.411 -2.9030 -1.9164 -0.4638
13358TIP3    H261566   4.313   2.077   4.561  0.2869  0.2703  0.1505
13359TIP3   OH261567   2.881   1.040   0.438 -0.1527  0.0959 -0.0299
13359TIP3    H161568   2.953   1.005   0.491  0.7985  2.5618  0.4450
13359TIP3    H261569   2.862   0.970   0.376 -0.1287 -2.2301  2.3797
13360TIP3   OH261570   3.804   3.263   4.480  0.2690  0.1066  0.1646
13360TIP3    H161571   3.830   3.186   4.428 -0.7165 -1.5471  1.9928
13360TIP3    H261572   3.737   3.306   4.426  1.2973  0.1138 -1.1777
13361TIP3   OH261573   4.861   5.909  11.561 -0.0952 -0.6372  0.6278
13361TIP3    H161574   4.866   6.001  11.533  0.8955 -1.1859 -1.2520
13361TIP3    H261575   4.773   5.899  11.596 -0.9477  0.5738 -0.9909
13362TIP3   OH261576   3.086   1.424   5.171  0.2611  1.0008  0.1853
13362TIP3    H161577   3.025   1.388   5.107  0.9593  1.8048 -0.9867
13362TIP3    H261578   3.033   1.484   5.224 -1.2523 -2.5344  3.0996
13363TIP3   OH261579   3.548   4.086  15.922  0.1162 -0.2916  0.3365
13363TIP3    H161580   3.551   4.178  15.895  1.1810 -0.5055 -0.3541
13363TIP3    H261581   3.479   4.082  15.987 -1.0510  0.6934 -0.7875
13364TIP3   OH261582   5.673   5.915  14.331 -0.4457 -0.2286  0.1243
13364TIP3    H161583   5.653   5.983  14.267 -0.0569 -0.8292 -0.6443
13364TIP3    H261584   5.600   5.918  14.393 -0.4390  0.8729  0.0985
13365TIP3   OH261585   5.907   5.908   4.925 -0.2471 -0.1052  0.1052
13365TIP3    H161586   5.981   5.957   4.959 -0.4196  1.0487 -1.0789
13365TIP3    H261587   5.890   5.841   4.991  0.1912  1.2364  1.6595
13366TIP3   OH261588   5.613   2.809  12.700 -0.0020  0.0378 -0.3218
13366TIP3    H161589   5.589   2.720  12.675  2.6728 -0.6716 -0.6427
13366TIP3    H261590   5.536   2.862  12.678 -1.1961 -1.9822 -1.2670
13367TIP3   OH261591   1.237   3.057   1.617 -0.3411 -0.6964  0.2049
13367TIP3    H161592   1.143   3.063   1.631 -0.6195 -2.2990 -0.7062
13367TIP3    H261593   1.247   3.058   1.522  0.5447 -0.7464  0.2892
13368TIP3   OH261594   4.026   0.312  13.119  0.0855  0.6055  0.0061
13368TIP3    H161595   3.968   0.374  13.075  2.4022  1.5484 -1.9094
13368TIP3    H261596   4.069   0.364  13.187  0.6997  0.6674 -0.4177
13369TIP3   OH261597   5.446   6.653  10.444  0.2477  0.2161 -0.3138
13369TIP3    H161598   5.379   6.590  10.471  0.7059  0.0688  0.5152
13369TIP3    H261599   5.400   6.713  10.386 -0.4889 -0.1674 -0.1412
13370TIP3   OH261600   2.750   0.780   2.191  0.0556 -0.1270  0.1536
13370TIP3    H161601   2.662   0.760   2.224  0.8819 -1.5133  1.6451
13370TIP3    H261602   2.800   0.805   2.269  0.6258  2.2284 -0.8779
13371TIP3   OH261603   4.549   5.534  13.181  0.4106 -0.1699 -0.0915
13371TIP3    H161604   4.489   5.485  13.237 -0.9104 -2.1023 -2.9765
13371TIP3    H261605   4.635   5.500  13.202  0.1202  0.0506  1.5757
13372TIP3   OH261606   5.787   2.446   0.850  0.3802  0.0145  0.1526
13372TIP3    H161607   5.799   2.501   0.928 -0.2686 -0.2767  0.4638
13372TIP3    H261608   5.743   2.503   0.787 -1.1507 -0.4080  0.8080
13373TIP3   OH261609   3.468   2.276  11.779  0.1225 -0.0505 -0.3316
13373TIP3    H161610   3.542   2.249  11.834  0.7292  2.6152  0.2710
13373TIP3    H261611   3.506   2.283  11.691  0.7057  1.5758  0.0232
13374TIP3   OH261612   6.289   3.592  13.305 -0.3306 -0.4650  0.5473
13374TIP3    H161613   6.205   3.546  13.315 -1.2894  0.6877 -1.5236
13374TIP3    H261614   6.334   3.545  13.235  0.0795 -0.1851  0.6212
13375TIP3   OH261615   5.540   1.719   2.105  0.1180  0.0906  0.2453
13375TIP3    H161616   5.599   1.789   2.080  1.5987 -0.0828  2.8602
13375TIP3    H261617   5.587   1.638   2.083 -0.4082 -0.0859 -0.2705
13376TIP3   OH261618   2.515   1.244   5.901 -0.3030  0.5338 -0.4016
13376TIP3    H161619   2.578   1.290   5.957  0.7548  0.6935 -1.6567
13376TIP3    H261620   2.500   1.161   5.946  0.9428  0.4277 -0.1273
13377TIP3   OH261621   2.606   0.159   4.962  0.6314 -0.1661 -0.3922
13377TIP3    H161622   2.637   0.069   4.975 -1.0251 -0.7389 -0.1557
13377TIP3    H261623   2.637   0.183   4.875  0.7583 -1.1280 -0.6251
13378TIP3   OH261624   1.197   1.824  12.217  0.0146 -0.2720  0.1205
13378TIP3    H161625   1.215   1.862  12.303  0.9344  0.7815 -0.5235
13378TIP3    H261626   1.109   1.856  12.195  0.1660  0.2321  0.2427
13379TIP3   OH261627   0.278   5.059   4.534  0.0586  0.1810 -0.1659
13379TIP3    H161628   0.255   5.046   4.442 -2.1971  1.4934  0.1404
13379TIP3    H261629   0.255   4.976   4.577  2.8260 -1.1322 -0.9647
13380TIP3   OH261630   2.286   4.911  12.374 -0.1057 -0.6507  0.2125
13380TIP3    H161631   2.242   4.991  12.345 -1.3466 -0.9617  1.1762
13380TIP3    H261632   2.359   4.942  12.428 -0.8367 -0.1583  0.9398
13381TIP3   OH261633   1.607   5.503   3.623 -0.0587  0.2746 -0.1543
13381TIP3    H161634   1.589   5.450   3.545 -1.7160 -1.9427  1.6158
13381TIP3    H261635   1.650   5.443   3.683 -1.3905  1.0921  1.6983
13382TIP3   OH261636   3.527   1.740  16.330  0.4207 -0.4656 -0.0612
13382TIP3    H161637   3.477   1.810  16.288 -0.3202  0.0892  1.6584
13382TIP3    H261638   3.619   1.764  16.314  0.1806 -0.3775 -1.4604
13383TIP3   OH261639   1.118   0.975   5.120  0.7019  0.0479 -0.5610
13383TIP3    H161640   1.191   1.023   5.157  0.8688 -0.2560 -0.4991
13383TIP3    H261641   1.047   1.039   5.117 -0.1843 -0.5845  2.8353
13384TIP3   OH261642   6.648   1.662  11.830  0.1543  0.3584  0.2504
13384TIP3    H161643   6.740   1.682  11.846  0.2483 -0.5341  0.9417
13384TIP3    H261644   6.601   1.737  11.867  0.6215  1.4455 -1.2611
13385TIP3   OH261645   3.435   5.906   0.842 -0.1240  0.7258 -0.2289
13385TIP3    H161646   3.500   5.898   0.772  2.3075 -0.0999  1.9664
13385TIP3    H261647   3.486   5.923   0.921 -2.6818  1.0040  1.4960
13386TIP3   OH261648   0.313   4.647   3.616 -0.0533 -0.5559  0.1820
13386TIP3    H161649   0.374   4.664   3.544 -0.5072  1.8314  0.2933
13386TIP3    H261650   0.368   4.642   3.694  0.3673 -2.5010 -0.1817
13387TIP3   OH261651   3.649   4.710  16.446  0.1360  0.0700 -0.5654
13387TIP3    H161652   3.581   4.720  16.514 -1.7377 -0.0387 -2.3289
13387TIP3    H261653   3.626   4.775  16.380  1.4760 -0.3418 -1.4561
13388TIP3   OH261654   2.242   1.458  13.923  0.6424  0.1092  0.1044
13388TIP3    H161655   2.284   1.542  13.945  1.6343 -0.5420  0.8029
13388TIP3    H261656   2.316   1.399  13.906 -0.0547 -0.2517 -1.8985
13389TIP3   OH261657   2.586   2.686  11.111 -0.5748 -0.2752 -0.0665
13389TIP3    H161658   2.646   2.682  11.185  0.7865 -0.2811 -1.1421
13389TIP3    H261659   2.519   2.750  11.138  1.3226  1.7267  0.1454
13390TIP3   OH261660   5.004   4.272   2.106  0.2119  0.3114 -0.3499
13390TIP3    H161661   5.054   4.327   2.046  1.1099  1.4770  1.3803
13390TIP3    H261662   5.053   4.189   2.108  0.4420  0.4312 -0.8537
13391TIP3   OH261663   1.509   3.452   4.517  0.2025 -0.5163  0.3465
13391TIP3    H161664   1.447   3.501   4.570 -0.4121 -0.6002 -0.2773
13391TIP3    H261665   1.455   3.387   4.471  0.1708  1.4042 -2.6350
13392TIP3   OH261666   3.269   4.737  12.684  0.0318  0.5458  0.3330
13392TIP3    H161667   3.242   4.786  12.761  0.1164  3.1298 -1.1845
13392TIP3    H261668   3.205   4.665  12.678 -1.1533  1.4423  1.6888
13393TIP3   OH261669   5.124   3.782  16.425  0.2224 -0.0194 -0.4187
13393TIP3    H161670   5.153   3.833  16.349 -0.1347  0.1216 -0.4627
13393TIP3    H261671   5.068   3.842  16.474 -2.1417 -1.0557 -1.6835
13394TIP3   OH261672   6.271   4.525   2.293 -0.0771 -0.6010  0.5693
13394TIP3    H161673   6.291   4.472   2.370 -0.5939 -1.1051  0.3677
13394TIP3    H261674   6.305   4.474   2.220 -0.3524 -0.5343  0.3923
13395TIP3   OH261675   3.057   0.473  13.848  0.3141 -0.0409  0.1469
13395TIP3    H161676   3.064   0.566  13.828  0.3599  0.0192  0.4368
13395TIP3    H261677   3.114   0.430  13.784  0.1432  0.1118 -0.1134
13396TIP3   OH261678   0.829   6.656   2.231  0.1980  0.1973  0.0971
13396TIP3    H161679   0.766   6.587   2.253  0.7118  0.3172  2.1646
13396TIP3    H261680   0.844   6.647   2.137 -1.3922 -1.0966 -0.0609
13397TIP3   OH261681   0.892   5.342  12.761  0.1476  0.0452  0.2968
13397TIP3    H161682   0.837   5.377  12.691  1.4646 -0.1207 -0.8588
13397TIP3    H261683   0.856   5.255  12.779 -0.9002  0.5348  0.6559
13398TIP3   OH261684   5.360   1.179  12.219  0.1084 -0.6231 -0.3895
13398TIP3    H161685   5.454   1.175  12.234  0.1723  2.2073  0.5420
13398TIP3    H261686   5.322   1.179  12.307 -0.5674  0.5017 -0.6542
13399TIP3   OH261687   3.543   2.400   2.271  0.6807  0.1709  0.1891
13399TIP3    H161688   3.498   2.485   2.263  1.4441  0.4834 -1.0444
13399TIP3    H261689   3.613   2.416   2.334  1.6858  0.8882 -1.0385
13400TIP3   OH261690   0.301   6.615   2.628 -0.2591 -0.3136 -0.0178
13400TIP3    H161691   0.315   6.656   2.714 -0.9793 -1.3608  0.6213
13400TIP3    H261692   0.244   6.677   2.582  1.0587  0.8063 -0.1959
13401TIP3   OH261693   4.662   4.511  15.070  0.4431  0.3265 -0.7480
13401TIP3    H161694   4.697   4.570  15.002 -1.4511 -0.2668 -2.3420
13401TIP3    H261695   4.607   4.567  15.124  0.0143  0.3636 -1.2134
13402TIP3   OH261696   2.962   0.259   1.320  0.0235  0.3081 -0.3571
13402TIP3    H161697   2.902   0.309   1.376  0.2451  1.5206 -1.1559
13402TIP3    H261698   2.923   0.263   1.233  0.1339 -0.8029 -0.4719
13403TIP3   OH261699   1.143   5.238  14.119 -0.2653  0.1311 -0.7353
13403TIP3    H161700   1.135   5.243  14.024 -0.4899  0.3277 -0.7077
13403TIP3    H261701   1.062   5.278  14.152 -0.6402 -0.8173 -0.4667
13404TIP3   OH261702   0.811   4.280  16.619  0.2707 -0.1566  0.0487
13404TIP3    H161703   0.879   4.335  16.660 -2.0333  1.3294  2.1959
13404TIP3    H261704   0.792   4.213  16.685  0.8423 -1.6759 -1.2755
13405TIP3   OH261705   6.052   0.691   4.404 -0.2950  0.0904 -0.0470
13405TIP3    H161706   5.999   0.645   4.469  0.0259 -0.8701 -0.4419
13405TIP3    H261707   6.137   0.703   4.446  0.1314 -1.1516 -0.5170
13406TIP3   OH261708   5.091   3.550  14.702  0.2208 -0.1188  0.1650
13406TIP3    H161709   5.089   3.497  14.623  2.2725  1.3819 -1.0149
13406TIP3    H261710   5.000   3.573  14.719 -0.3245 -1.0345 -1.3695
13407TIP3   OH261711   5.355   1.599   0.228  0.0937 -0.2237 -0.5867
13407TIP3    H161712   5.276   1.649   0.204  0.9814  2.0744  0.9262
13407TIP3    H261713   5.427   1.659   0.210  1.3759 -1.6875 -0.4245
13408TIP3   OH261714   5.121   4.834   2.816  0.0481  0.0360  0.0707
13408TIP3    H161715   5.215   4.835   2.797 -0.0889  0.2739 -0.6138
13408TIP3    H261716   5.081   4.796   2.738 -0.6977  2.6924 -0.9251
13409TIP3   OH261717   0.183   2.676  13.179 -0.3337  0.1392 -0.7131
13409TIP3    H161718   0.242   2.664  13.105  1.9667  2.0828  0.6610
13409TIP3    H261719   0.186   2.592  13.226  1.6905  0.3115 -0.4703
13410TIP3   OH261720   4.196   5.167  14.515 -0.4075  0.2609  0.9853
13410TIP3    H161721   4.210   5.122  14.432  1.9573  1.0714  0.8475
13410TIP3    H261722   4.227   5.106  14.581  0.9437  0.8529  0.9475
13411TIP3   OH261723   1.667   3.565   3.291 -0.3369 -0.3694 -0.3591
13411TIP3    H161724   1.724   3.630   3.331 -1.4884 -0.0623  0.8625
13411TIP3    H261725   1.579   3.601   3.299 -0.8230 -1.2852 -1.2795
13412TIP3   OH261726   2.009   5.613   1.813 -0.4050 -0.2857 -0.2507
13412TIP3    H161727   2.072   5.562   1.863 -0.4278  1.1051  1.2976
13412TIP3    H261728   1.991   5.690   1.868 -0.0612  1.6159 -2.6279
13413TIP3   OH261729   2.237   0.671  11.800 -0.4613  0.3000  0.6186
13413TIP3    H161730   2.252   0.584  11.836  1.5609  0.5531  0.5284
13413TIP3    H261731   2.244   0.729  11.876 -0.5687  0.4796  0.4907
13414TIP3   OH261732   6.035   3.357  11.348 -0.1520 -0.4262  0.1434
13414TIP3    H161733   6.009   3.361  11.256 -0.6941 -0.3452  0.3003
13414TIP3    H261734   6.090   3.279  11.354 -1.4014 -1.3421  0.0717
13415TIP3   OH261735   5.991   2.507   1.567  0.0470  0.4747 -0.0638
13415TIP3    H161736   6.042   2.541   1.641 -0.4856  1.3629 -0.0870
13415TIP3    H261737   5.991   2.579   1.504 -1.4701  0.6115  0.0607
13416TIP3   OH261738   0.368   1.942  12.150 -0.5195 -0.2672  0.3418
13416TIP3    H161739   0.452   1.949  12.196 -0.0182 -0.0606 -0.5779
13416TIP3    H261740   0.313   2.008  12.192  0.0255  0.1248  0.4596
13417TIP3   OH261741   2.182   0.194   3.155  0.2782 -0.3923 -0.2223
13417TIP3    H161742   2.163   0.140   3.078  1.4014  1.3894 -1.8583
13417TIP3    H261743   2.125   0.270   3.144  1.4793  0.5451 -0.0896
13418TIP3   OH261744   2.673   4.828   0.231 -0.0652 -0.2828  0.0283
13418TIP3    H161745   2.612   4.753   0.232  0.1717 -0.4863 -0.5040
13418TIP3    H261746   2.625   4.897   0.186 -0.0868 -0.2778  0.0587
13419TIP3   OH261747   5.130   0.374  15.916 -0.0312  1.1477 -0.3895
13419TIP3    H161748   5.138   0.395  16.009 -0.5840  0.4889 -0.1898
13419TIP3    H261749   5.213   0.330  15.894  0.2714  1.6738 -0.3140
13420TIP3   OH261750   1.164   1.658  15.443  0.0138  0.3203  0.3179
13420TIP3    H161751   1.083   1.702  15.417 -0.5103 -0.5298  0.4909
13420TIP3    H261752   1.140   1.566  15.451  1.4188 -0.2662 -1.4825
13421TIP3   OH261753   4.894   4.288  12.148  0.0463  0.0076 -0.1571
13421TIP3    H161754   4.812   4.323  12.114  0.0524  0.6096  0.4301
13421TIP3    H261755   4.897   4.318  12.239  1.0981  0.3103 -0.2847
13422TIP3   OH261756   2.600   0.697  12.797  0.2550  0.3193  0.7099
13422TIP3    H161757   2.587   0.634  12.726 -1.4772  1.6428 -0.2279
13422TIP3    H261758   2.666   0.758  12.764 -1.4998  1.7203 -0.4332
13423TIP3   OH261759   0.268   4.745   0.564  0.1656 -0.3902 -0.0722
13423TIP3    H161760   0.206   4.803   0.608  0.2561  0.4861 -1.0663
13423TIP3    H261761   0.215   4.672   0.533 -0.3732  0.3250 -0.8663
13424TIP3   OH261762   4.133   0.161  12.829 -0.2764 -0.5471 -0.3621
13424TIP3    H161763   4.181   0.179  12.910  1.3495 -1.4997 -1.0594
13424TIP3    H261764   4.077   0.086  12.851 -1.0745  0.2301  0.3124
13425TIP3   OH261765   0.018   6.576   3.641 -0.1077  0.2401  0.1337
13425TIP3    H161766  -0.076   6.567   3.623 -0.2571  2.0740 -0.1366
13425TIP3    H261767   0.025   6.563   3.736 -1.2594  3.8731  0.8771
13426TIP3   OH261768   0.668   0.851  13.772  0.2349  0.0835  0.4665
13426TIP3    H161769   0.759   0.824  13.782 -0.4633 -2.3641  0.7469
13426TIP3    H261770   0.620   0.770  13.755 -1.9130  1.3004  0.3441
13427TIP3   OH261771   6.088   5.981  11.488  0.3780 -0.4745 -0.1647
13427TIP3    H161772   6.077   5.886  11.492  1.7458 -0.6386  0.9510
13427TIP3    H261773   6.151   5.995  11.417  1.3115 -0.5753  0.6088
13428TIP3   OH261774   0.546   3.359   5.799 -0.7104  0.3838  0.1464
13428TIP3    H161775   0.551   3.360   5.704  1.8144  0.6233  0.2142
13428TIP3    H261776   0.482   3.290   5.819 -0.5343 -0.3710 -1.6950
13429TIP3   OH261777   5.596   4.858  13.036 -0.0923  0.4126 -0.7068
13429TIP3    H161778   5.618   4.873  12.944  2.6163  0.9762 -0.0485
13429TIP3    H261779   5.578   4.945  13.071  1.7152  0.5831 -0.1033
13430TIP3   OH261780   6.749   4.932  12.426  0.3767 -0.1516 -0.0580
13430TIP3    H161781   6.839   4.902  12.433 -0.1705 -1.6820  0.9454
13430TIP3    H261782   6.726   4.962  12.514 -0.6705 -1.6459  0.2250
13431TIP3   OH261783   3.645   4.790   3.835 -0.4948 -0.0452  0.1874
13431TIP3    H161784   3.617   4.745   3.756 -0.3228 -1.2747  0.8132
13431TIP3    H261785   3.729   4.750   3.858 -0.9674 -0.3463  1.4834
13432TIP3   OH261786   6.635   5.266   6.308  0.0572  0.5566  0.2771
13432TIP3    H161787   6.598   5.258   6.396  0.0162 -1.2142  0.1351
13432TIP3    H261788   6.599   5.192   6.260  1.3110  0.6076 -0.7890
13433TIP3   OH261789   5.982   2.099   4.131  0.0490 -0.3628 -0.2625
13433TIP3    H161790   6.055   2.052   4.172 -0.9012 -2.0561 -0.4478
13433TIP3    H261791   5.916   2.106   4.200 -0.1605 -0.0595 -0.4897
13434TIP3   OH261792   5.266   4.930   4.001 -0.1018  0.1248 -0.1205
13434TIP3    H161793   5.337   4.951   4.061 -0.7771 -1.1197  1.1686
13434TIP3    H261794   5.230   5.015   3.975  0.8867  0.7097  0.3803
13435TIP3   OH261795   3.970   4.381  15.802  0.3064 -0.1924 -0.6312
13435TIP3    H161796   4.030   4.410  15.870  0.2845 -1.3485 -0.0879
13435TIP3    H261797   4.018   4.391  15.720  0.8915 -0.2132 -0.2905
13436TIP3   OH261798   2.677   6.293   4.864 -0.1089  0.5132 -0.3098
13436TIP3    H161799   2.671   6.270   4.957  1.4342  1.0659 -0.0499
13436TIP3    H261800   2.588   6.319   4.840 -0.7681 -0.7380  0.7043
13437TIP3   OH261801   0.364   6.071   3.413  0.5716 -0.0212 -0.0343
13437TIP3    H161802   0.363   6.155   3.459 -1.1055  0.1997 -0.3929
13437TIP3    H261803   0.339   6.093   3.323 -4.9487 -1.2609  0.8135
13438TIP3   OH261804   5.941   3.525   6.292  0.0120  0.0503 -0.1638
13438TIP3    H161805   5.962   3.617   6.277 -0.0685 -0.0502 -0.9431
13438TIP3    H261806   6.011   3.477   6.248 -0.2024 -0.2641 -0.1638
13439TIP3   OH261807   6.010   2.367   4.177  0.0900  0.5569  0.2118
13439TIP3    H161808   5.995   2.296   4.115  0.0934  0.2926  0.5077
13439TIP3    H261809   6.088   2.340   4.226 -0.7395  0.0608  1.3120
13440TIP3   OH261810   4.971   2.080  11.893 -0.6396  0.9439  0.9928
13440TIP3    H161811   4.954   2.115  11.980 -1.0442 -1.0025  1.7414
13440TIP3    H261812   5.013   1.996  11.908 -0.2951  0.7653 -0.7129
13441TIP3   OH261813   1.475   1.608   0.242  0.3982 -0.5788  0.0584
13441TIP3    H161814   1.482   1.697   0.277 -0.3000 -0.2383 -0.6223
13441TIP3    H261815   1.472   1.620   0.147  0.4785 -1.3483 -0.0490
13442TIP3   OH261816   3.293   0.546   3.611  0.2721 -1.0184 -0.2241
13442TIP3    H161817   3.298   0.570   3.703 -2.2711 -0.7962 -0.0674
13442TIP3    H261818   3.200   0.527   3.596  0.7632 -1.9751 -2.5223
13443TIP3   OH261819   6.795   3.661   2.034  0.5010 -0.2292 -0.5217
13443TIP3    H161820   6.846   3.584   2.059 -0.7208 -0.7714  0.3627
13443TIP3    H261821   6.776   3.648   1.941  0.4067 -0.9498 -0.4089
13444TIP3   OH261822   1.621   3.624   6.734 -0.6905 -0.6719  0.7297
13444TIP3    H161823   1.660   3.682   6.800  0.8100 -0.7240 -0.0631
13444TIP3    H261824   1.584   3.552   6.784 -0.9608  0.0578  1.6131
13445TIP3   OH261825   6.813   0.792   4.149  0.6595 -0.1570  0.6681
13445TIP3    H161826   6.778   0.719   4.097 -0.4833  0.0605  1.0978
13445TIP3    H261827   6.761   0.868   4.121  2.4521  0.7228 -0.4628
13446TIP3   OH261828   0.188   3.957  11.528  0.0220 -0.1956  0.4094
13446TIP3    H161829   0.184   4.009  11.608  1.2134  0.6747 -0.0638
13446TIP3    H261830   0.272   3.911  11.533  0.0142 -0.2982 -0.2301
13447TIP3   OH261831   2.142   5.585   4.219 -0.4864  0.0656  0.1849
13447TIP3    H161832   2.118   5.505   4.266  1.0433 -0.0830  0.7522
13447TIP3    H261833   2.086   5.584   4.141 -2.5610 -0.0464  1.6059
13448TIP3   OH261834   2.997   4.065   1.176  0.2636  0.6054 -0.6323
13448TIP3    H161835   2.989   4.155   1.145  2.4786  0.1539 -2.8394
13448TIP3    H261836   3.084   4.038   1.148  0.0480 -1.9296  0.8480
13449TIP3   OH261837   5.229   6.319   1.600  0.5563 -0.0089 -0.4170
13449TIP3    H161838   5.223   6.288   1.691  2.0153  0.9719  0.0582
13449TIP3    H261839   5.167   6.392   1.596  0.4081 -0.1250 -0.2232
13450TIP3   OH261840   6.318   1.744  16.438 -0.1137  0.6844 -0.2969
13450TIP3    H161841   6.342   1.762  16.348 -2.7526 -0.4169 -1.3145
13450TIP3    H261842   6.319   1.648  16.445 -1.6267  0.6683  0.2688
13451TIP3   OH261843   5.949   1.254  11.021 -0.4190 -0.4967 -0.1212
13451TIP3    H161844   5.906   1.270  10.937  2.1028 -1.2344 -1.6811
13451TIP3    H261845   6.012   1.326  11.029  0.1222 -1.0413  0.6137
13452TIP3   OH261846   3.109   3.419   2.715  0.4805  0.4481 -0.3687
13452TIP3    H161847   3.088   3.512   2.723  0.3684  0.3598  0.4685
13452TIP3    H261848   3.097   3.384   2.804 -1.2539 -0.7420 -1.0235
13453TIP3   OH261849   2.233   0.299  15.305 -0.2329 -0.7861 -0.0877
13453TIP3    H161850   2.296   0.228  15.293  0.4389 -0.1347 -0.5084
13453TIP3    H261851   2.280   0.378  15.278 -0.0975  0.2079  2.6532
13454TIP3   OH261852   1.607   6.300   1.890 -0.0570  0.4469 -0.3048
13454TIP3    H161853   1.597   6.394   1.876 -0.7712  0.4353  0.0700
13454TIP3    H261854   1.702   6.285   1.886 -0.0126  0.9785 -1.5655
13455TIP3   OH261855   3.599   2.911  15.774  0.3242  0.1372  0.3408
13455TIP3    H161856   3.588   2.862  15.856  1.1844 -1.5296 -0.4920
13455TIP3    H261857   3.633   2.996  15.802 -0.4253 -0.0020  1.7838
13456TIP3   OH261858   4.404   2.333  12.461  0.0308  0.1221 -0.2479
13456TIP3    H161859   4.315   2.370  12.456  0.9882  2.5557 -1.4899
13456TIP3    H261860   4.430   2.344  12.552 -0.1972  1.4925 -0.3184
13457TIP3   OH261861   4.097   5.711   3.373  0.0662  0.1638  0.0554
13457TIP3    H161862   4.036   5.782   3.351 -0.2529  0.0430  0.5256
13457TIP3    H261863   4.131   5.682   3.289  0.5403  1.1707 -0.1232
13458TIP3   OH261864   3.797   1.449  14.542  0.2565 -0.3522 -0.0513
13458TIP3    H161865   3.708   1.419  14.558 -0.1584  0.3316 -1.0233
13458TIP3    H261866   3.816   1.508  14.615 -0.3027 -0.0398 -0.1590
13459TIP3   OH261867   0.721   0.102  15.032  0.0013 -0.3549 -0.6651
13459TIP3    H161868   0.683   0.174  15.082 -0.0117 -2.1002  2.0484
13459TIP3    H261869   0.647   0.064  14.984 -1.1656 -1.7369  2.0443
13460TIP3   OH261870   6.382   3.380   6.502 -0.7821  0.0078 -0.5428
13460TIP3    H161871   6.429   3.330   6.568  1.7743  0.4416 -1.9147
13460TIP3    H261872   6.407   3.340   6.419 -1.4799  1.3699 -1.4548
13461TIP3   OH261873   4.907   3.685  11.326  0.1768  0.0576  0.1530
13461TIP3    H161874   4.909   3.685  11.230 -2.7170  0.0730 -0.0140
13461TIP3    H261875   4.828   3.635  11.347 -0.0661  1.3002  2.4840
13462TIP3   OH261876   0.274   4.063  13.140 -0.2735  0.1488  0.3726
13462TIP3    H161877   0.266   4.124  13.067  0.3640  0.0517  0.2150
13462TIP3    H261878   0.311   4.114  13.211 -0.6618  0.1828  0.5509
13463TIP3   OH261879   2.929   1.031  16.028 -0.1933  0.5856 -0.2571
13463TIP3    H161880   2.889   0.999  15.947 -0.5294  1.0741 -0.2880
13463TIP3    H261881   3.007   0.976  16.039 -1.6164 -1.3972  0.5871
13464TIP3   OH261882   6.752   6.225   1.703  0.3901  0.3217  0.1952
13464TIP3    H161883   6.825   6.286   1.694  2.0524 -1.7763 -1.3932
13464TIP3    H261884   6.790   6.148   1.747 -1.0294 -0.5583 -0.0649
13465TIP3   OH261885   4.249   5.677  16.953  0.0003 -0.1589 -0.0470
13465TIP3    H161886   4.229   5.738  17.024 -0.8845 -0.4717 -0.0191
13465TIP3    H261887   4.256   5.592  16.995 -3.2875 -0.8226 -0.6399
13466TIP3   OH261888   4.278   6.600   0.084 -0.2074 -0.5045  0.5762
13466TIP3    H161889   4.305   6.553   0.163 -0.9846 -0.3608  0.9398
13466TIP3    H261890   4.198   6.647   0.110 -0.7023 -0.7780 -0.4009
13467TIP3   OH261891   2.549   6.096   2.397 -0.2179 -0.0725 -0.0723
13467TIP3    H161892   2.460   6.065   2.382 -0.4274 -1.1373  2.7332
13467TIP3    H261893   2.548   6.128   2.487  2.4045 -0.8122  0.3006
13468TIP3   OH261894   0.566   4.669  15.455 -0.2059 -0.0376 -0.1333
13468TIP3    H161895   0.627   4.728  15.499 -1.5290  0.3000  1.3415
13468TIP3    H261896   0.616   4.589  15.442  0.4567  0.0793  1.4288
13469TIP3   OH261897   4.144   6.284  16.188 -0.0611  0.4340  0.0323
13469TIP3    H161898   4.165   6.352  16.252  0.5283 -1.1846  1.6617
13469TIP3    H261899   4.229   6.253  16.158 -0.2591 -0.7293  0.6184
13470TIP3   OH261900   3.905   1.992  13.269  0.5940  0.4706  0.3469
13470TIP3    H161901   3.822   1.969  13.226 -0.1404  1.8441  0.9801
13470TIP3    H261902   3.949   2.050  13.208 -0.2275  2.0259  1.1716
13471TIP3   OH261903   0.632   4.781  12.375  0.1764 -0.4993  0.1458
13471TIP3    H161904   0.590   4.745  12.297 -2.6178  0.2535  1.1868
13471TIP3    H261905   0.652   4.704  12.429 -2.2204 -0.8309  0.6774
13472TIP3   OH261906   4.130   5.636   0.623  0.3460  0.1091  0.0725
13472TIP3    H161907   4.160   5.579   0.552 -0.3128 -1.3258  0.9151
13472TIP3    H261908   4.134   5.581   0.701 -0.0622  1.3096  0.9592
13473TIP3   OH261909   5.501   6.494   0.193  0.7138 -0.1681 -0.3173
13473TIP3    H161910   5.540   6.456   0.272  2.7543 -0.1630 -1.2636
13473TIP3    H261911   5.511   6.426   0.127  2.7330  1.2589 -1.5648
13474TIP3   OH261912   4.743   3.838  11.628 -0.0315  0.0443  0.6993
13474TIP3    H161913   4.783   3.909  11.678 -1.6657  1.7060 -0.2305
13474TIP3    H261914   4.649   3.849  11.640 -0.3606 -1.8077  0.2652
13475TIP3   OH261915   1.266   3.288  14.132 -0.1111  0.5252  0.2320
13475TIP3    H161916   1.249   3.194  14.126  1.4952  0.1877  0.4412
13475TIP3    H261917   1.210   3.327  14.064 -1.4650 -0.4569  0.7329
13476TIP3   OH261918   1.852   1.051  11.382  0.1956  0.1836  0.4638
13476TIP3    H161919   1.785   1.098  11.432 -0.4668  1.0830 -1.2044
13476TIP3    H261920   1.846   0.961  11.414 -1.3829  0.3762  0.8213
13477TIP3   OH261921   1.977   0.057  15.952 -0.4800 -0.0240  0.1486
13477TIP3    H161922   2.056   0.099  15.985 -0.5836  0.1647  0.1584
13477TIP3    H261923   1.958   0.104  15.870 -0.0136 -0.7295 -0.3747
13478TIP3   OH261924   2.048   5.671  11.658 -0.2141  0.1597  0.1476
13478TIP3    H161925   2.003   5.754  11.673  0.5481  0.3720  1.4009
13478TIP3    H261926   2.005   5.634  11.581 -2.0415  0.6883  0.8611
13479TIP3   OH261927   1.046   3.088   5.578 -0.0702 -0.2358  0.2638
13479TIP3    H161928   0.972   3.080   5.518 -1.1823 -0.1060  1.5863
13479TIP3    H261929   1.122   3.060   5.526 -1.4948 -4.1323 -0.0946
13480TIP3   OH261930   3.305   6.483  12.546  0.1083  0.0236 -0.4321
13480TIP3    H161931   3.278   6.503  12.635 -0.2261 -0.3422 -0.4462
13480TIP3    H261932   3.391   6.441  12.555  0.4224  0.6823 -0.3416
13481TIP3   OH261933   3.074   0.714   2.111  0.6182 -0.0826 -0.0241
13481TIP3    H161934   3.064   0.749   2.200  1.1067  1.6393 -0.6128
13481TIP3    H261935   3.153   0.757   2.077  0.4900 -0.7867 -1.2568
13482TIP3   OH261936   2.908   4.356  12.193  0.1385  0.2691  0.3261
13482TIP3    H161937   2.961   4.286  12.155  0.6991 -0.3612  2.1513
13482TIP3    H261938   2.819   4.337  12.163  0.4253 -0.6900  0.0268
13483TIP3   OH261939   6.749   5.229   5.898 -0.5018 -0.2291  0.4774
13483TIP3    H161940   6.808   5.209   5.825 -1.8585  0.7548 -0.9371
13483TIP3    H261941   6.807   5.265   5.966  0.6413 -0.0754 -0.5418
13484TIP3   OH261942   2.492   2.410  13.841 -0.3110  0.4518 -0.6011
13484TIP3    H161943   2.445   2.369  13.914 -1.2889 -0.5477 -1.7409
13484TIP3    H261944   2.583   2.382  13.852 -0.4400  0.3341  0.2439
13485TIP3   OH261945   2.217   2.224   6.064  0.2919  0.4218  0.9753
13485TIP3    H161946   2.124   2.216   6.085  0.3006 -0.5704  0.6773
13485TIP3    H261947   2.220   2.288   5.993 -0.5364 -1.8850 -1.3192
13486TIP3   OH261948   4.068   3.298  14.214 -0.5013 -0.1842 -1.1907
13486TIP3    H161949   4.114   3.360  14.157 -0.0384 -1.3467 -2.1194
13486TIP3    H261950   4.129   3.281  14.286  0.1130 -0.8973 -1.8607
13487TIP3   OH261951   0.612   3.849  14.826 -0.0533  0.4432 -0.4285
13487TIP3    H161952   0.537   3.828  14.771  0.5915  1.3238 -1.7100
13487TIP3    H261953   0.645   3.763  14.854 -1.7517  0.0567  0.5190
13488TIP3   OH261954   6.043   6.252  10.517 -0.0662 -0.0469 -0.2867
13488TIP3    H161955   5.993   6.185  10.471 -0.1282  0.1602 -0.5250
13488TIP3    H261956   5.976   6.310  10.554 -0.0034  0.3929 -0.8484
13489TIP3   OH261957   4.232   3.697   3.389 -0.2543  0.3305 -0.0963
13489TIP3    H161958   4.141   3.668   3.394  0.0662 -1.2216 -1.9010
13489TIP3    H261959   4.281   3.631   3.437  0.2064 -0.7366 -1.9344
13490TIP3   OH261960   3.526   3.009   1.217 -0.7703 -0.5930  0.8203
13490TIP3    H161961   3.568   3.095   1.210  2.2345 -1.9986 -0.3001
13490TIP3    H261962   3.530   2.988   1.310  1.0395 -0.6018  0.7810
13491TIP3   OH261963   3.878   6.728  11.190 -0.1730 -0.0356 -0.0883
13491TIP3    H161964   3.968   6.747  11.214  0.3867  0.0343 -2.1027
13491TIP3    H261965   3.832   6.812  11.199  0.0647  0.0402  0.4391
13492TIP3   OH261966   0.563   1.992  11.114 -0.1828 -0.3195  0.4059
13492TIP3    H161967   0.572   2.016  11.022 -1.2119 -0.2594  0.3094
13492TIP3    H261968   0.566   1.896  11.114 -0.8787 -0.3413  0.2275
13493TIP3   OH261969   0.059   2.720   5.771  0.4154  0.5686  0.2024
13493TIP3    H161970   0.107   2.744   5.692  1.8970  0.4708  1.0410
13493TIP3    H261971  -0.023   2.683   5.739  0.3875  1.8118 -1.2368
13494TIP3   OH261972   0.448   0.719   2.123  0.2769 -0.5463  0.1015
13494TIP3    H161973   0.536   0.688   2.144  0.1112  0.0117  1.7425
13494TIP3    H261974   0.463   0.799   2.072  0.7669  0.1412  1.2709
13495TIP3   OH261975   2.149   4.010  10.791  0.3226 -0.8414 -0.2913
13495TIP3    H161976   2.081   4.068  10.822  0.9724 -0.6736  0.8560
13495TIP3    H261977   2.138   4.009  10.696 -0.5145  0.1168 -0.2172
13496TIP3   OH261978   0.666   3.590  16.344  0.8673  0.6252  0.3419
13496TIP3    H161979   0.695   3.501  16.363 -0.6775 -0.0926 -0.4411
13496TIP3    H261980   0.607   3.612  16.416 -1.6165 -0.4442 -1.2439
13497TIP3   OH261981   3.687   3.364  12.167 -0.1039  0.1999  0.2210
13497TIP3    H161982   3.624   3.292  12.158 -0.2684  0.2875  0.6490
13497TIP3    H261983   3.673   3.418  12.089  0.8742 -0.8785 -0.7421
13498TIP3   OH261984   0.268   5.633  16.567  0.1448 -0.0348 -0.1561
13498TIP3    H161985   0.266   5.715  16.617 -0.5181 -0.1995  0.0892
13498TIP3    H261986   0.202   5.644  16.499  1.1679  0.2598 -1.1392
13499TIP3   OH261987   6.090   4.273  11.457  0.4458  0.3536 -0.5908
13499TIP3    H161988   6.147   4.201  11.484 -0.5830 -0.3562 -0.2365
13499TIP3    H261989   6.144   4.327  11.400  0.9109 -1.3473 -1.8446
13500TIP3   OH261990   1.288   1.636   1.189  0.8028 -0.2326 -0.0822
13500TIP3    H161991   1.307   1.589   1.270 -2.5114  0.7853  1.4961
13500TIP3    H261992   1.194   1.623   1.177  0.9138  1.0389 -2.8926
13501TIP3   OH261993   5.451   0.409   5.415 -0.1744  0.0181 -0.6504
13501TIP3    H161994   5.464   0.329   5.363  1.1875  0.5823 -1.2266
13501TIP3    H261995   5.360   0.432   5.400 -0.2976 -0.8464 -1.3434
13502TIP3   OH261996   1.560   0.751  12.853 -0.1955 -0.0542  0.0780
13502TIP3    H161997   1.636   0.721  12.803  0.3166 -0.1486  0.9126
13502TIP3    H261998   1.575   0.720  12.942 -0.6531  0.9053  0.5089
13503TIP3   OH261999   5.556   4.108  15.191  0.3866  0.1028 -0.1169
13503TIP3    H162000   5.557   4.196  15.154  1.0544  0.7214  1.2993
13503TIP3    H262001   5.611   4.056  15.132 -0.3763  0.4904 -1.2117
13504TIP3   OH262002   0.631   3.224   1.305  0.2190 -0.0775 -0.2485
13504TIP3    H162003   0.667   3.147   1.349  1.3534 -0.1246 -1.1920
13504TIP3    H262004   0.696   3.293   1.320 -2.4354  1.9500  3.8294
13505TIP3   OH262005   3.997   4.030   4.485 -0.2913 -0.4832 -0.3572
13505TIP3    H162006   4.059   4.081   4.433  0.0513 -2.4228 -1.9883
13505TIP3    H262007   4.050   3.993   4.556 -0.3838  0.7216  0.3704
13506TIP3   OH262008   3.219   4.016   4.941  0.0750 -0.0839 -0.4456
13506TIP3    H162009   3.259   4.013   5.028 -0.7286  1.3075  0.0020
13506TIP3    H262010   3.133   3.976   4.952 -0.2296  0.5503 -0.4699
13507TIP3   OH262011   1.443   0.012   2.501  0.2049 -0.6610  0.2567
13507TIP3    H162012   1.385   0.073   2.547 -1.1335 -0.8623 -1.0681
13507TIP3    H262013   1.477   0.062   2.427  2.5350 -0.2591  1.5139
13508TIP3   OH262014   2.446   2.606   4.125  0.0214 -0.0339  0.0605
13508TIP3    H162015   2.411   2.659   4.054  0.1537 -0.7824 -0.5718
13508TIP3    H262016   2.527   2.651   4.151  1.0580 -0.8374 -1.6404
13509TIP3   OH262017   4.524   5.713  15.357 -0.4312  0.3496 -0.3077
13509TIP3    H162018   4.494   5.762  15.433 -0.0629  1.9289 -1.1194
13509TIP3    H262019   4.444   5.682  15.315 -0.6752  0.2571  0.2255
13510TIP3   OH262020   0.002   4.816  14.718  0.2814 -0.1069  0.0703
13510TIP3    H162021  -0.012   4.736  14.668  0.7413  0.0680 -0.3364
13510TIP3    H262022  -0.051   4.804  14.797  2.1165 -1.8075  1.1279
13511TIP3   OH262023   3.183   0.023   3.101  0.5412 -0.3761 -1.0035
13511TIP3    H162024   3.259   0.049   3.153  1.0617  1.7146 -2.6180
13511TIP3    H262025   3.184  -0.072   3.101  2.1097 -0.3947  0.4910
13512TIP3   OH262026   5.987   5.108   4.882 -0.0039  0.1679  0.2892
13512TIP3    H162027   6.024   5.186   4.924  0.9686 -0.8040  1.2767
13512TIP3    H262028   5.895   5.131   4.867  0.2097  1.4231  0.7721
13513TIP3   OH262029   4.755   5.759  16.593 -0.3945  0.1408  0.2360
13513TIP3    H162030   4.813   5.786  16.664 -0.3001  0.7380 -0.0586
13513TIP3    H262031   4.688   5.706  16.635 -0.6392  0.9180  0.8616
13514TIP3   OH262032   5.274   5.209  16.091  0.0554 -0.4755  0.3578
13514TIP3    H162033   5.208   5.268  16.054 -0.5498 -0.5844  1.2375
13514TIP3    H262034   5.307   5.159  16.016 -2.2326 -1.7959  0.1486
13515TIP3   OH262035   2.428   6.491   3.514  0.8304  0.1169  0.4570
13515TIP3    H162036   2.423   6.397   3.498 -0.5112 -0.0192  1.4982
13515TIP3    H262037   2.462   6.498   3.603 -0.1403  0.5629  0.8090
13516TIP3   OH262038   5.772   3.215  12.763 -0.4869  0.4616 -0.4969
13516TIP3    H162039   5.854   3.264  12.773  0.2285 -0.3425 -1.9878
13516TIP3    H262040   5.798   3.123  12.772 -0.7121  0.0257 -3.4220
13517TIP3   OH262041   1.559   2.623  13.660  0.0932 -0.2750 -0.0073
13517TIP3    H162042   1.489   2.647  13.721 -0.4480 -1.1774 -0.2535
13517TIP3    H262043   1.519   2.635  13.574  0.4209 -0.2626 -0.1553
13518TIP3   OH262044   6.286   0.022  16.924  0.6703  0.8645 -0.1790
13518TIP3    H162045   6.251   0.016  17.013 -0.4442  2.1571 -0.4878
13518TIP3    H262046   6.237  -0.044  16.875  1.5950 -0.1562  0.2261
13519TIP3   OH262047   3.446   6.325   2.541  0.3061 -0.3685  0.4916
13519TIP3    H162048   3.371   6.318   2.599  0.7031  1.7434  1.3744
13519TIP3    H262049   3.423   6.395   2.480  1.4315  0.1367  0.6147
13520TIP3   OH262050   2.166   0.539  15.677 -0.0259  0.1545 -0.0860
13520TIP3    H162051   2.088   0.588  15.702  1.1842  1.4435  1.3772
13520TIP3    H262052   2.234   0.605  15.669  1.1951 -1.0660 -0.1443
13521TIP3   OH262053   0.892   3.589   2.315 -0.0727 -0.5218 -0.1251
13521TIP3    H162054   0.824   3.647   2.348  1.6281  2.0519 -0.8401
13521TIP3    H262055   0.884   3.594   2.220  0.4748 -0.9627 -0.2009
13522TIP3   OH262056   5.786   5.201  14.036 -0.0539 -0.3594 -0.6043
13522TIP3    H162057   5.780   5.294  14.058 -0.9006 -0.6516  0.4696
13522TIP3    H262058   5.843   5.164  14.103 -0.6852 -0.8280 -0.3253
13523TIP3   OH262059   6.213   6.244  16.575  1.0523 -0.6736 -0.0327
13523TIP3    H162060   6.287   6.192  16.542  0.0480 -1.2207 -1.5259
13523TIP3    H262061   6.204   6.218  16.666  3.5360  0.4066  0.6096
13524TIP3   OH262062   1.954   1.721  17.033 -0.0359  0.2655 -0.1305
13524TIP3    H162063   1.938   1.765  17.117 -0.2690  0.4710 -0.2828
13524TIP3    H262064   1.868   1.716  16.992 -0.1895 -1.2440  0.3245
13525TIP3   OH262065   0.808   0.747   1.254  0.2450 -0.4066 -0.8157
13525TIP3    H162066   0.872   0.819   1.248  0.3144 -0.4403 -0.5266
13525TIP3    H262067   0.859   0.668   1.237  0.5824 -0.5653  0.7405
13526TIP3   OH262068   1.756   6.459   5.430  0.1579  0.1692 -0.0563
13526TIP3    H162069   1.788   6.414   5.351  0.7758 -0.3602  0.4843
13526TIP3    H262070   1.730   6.388   5.489  0.7651  0.5237  0.6512
13527TIP3   OH262071   3.768   3.744  11.941 -0.3262  0.1878 -0.0051
13527TIP3    H162072   3.792   3.831  11.907  1.3223  0.1704  0.9717
13527TIP3    H262073   3.827   3.731  12.016 -1.1707 -1.3967  0.4244
13528TIP3   OH262074   5.807   5.652  14.958 -0.1071  0.1600  0.2326
13528TIP3    H162075   5.768   5.739  14.950  0.8018  0.7996  2.1274
13528TIP3    H262076   5.733   5.593  14.967 -0.7066  0.8528 -0.0509
13529TIP3   OH262077   4.502   0.238   4.832  0.5417 -0.0110 -0.2829
13529TIP3    H162078   4.511   0.194   4.916  0.6350 -0.2312 -0.4057
13529TIP3    H262079   4.411   0.268   4.830  0.7870  0.7840  0.2718
13530TIP3   OH262080   5.912   1.144   0.795  0.2457 -0.0904 -0.1761
13530TIP3    H162081   5.912   1.119   0.888 -1.3958 -0.3648 -0.2231
13530TIP3    H262082   5.938   1.236   0.796  1.9153 -0.5314  0.3861
13531TIP3   OH262083   3.438   3.028   0.566 -0.3121  0.3055  0.5374
13531TIP3    H162084   3.409   2.944   0.601 -3.4214  0.7740 -0.5289
13531TIP3    H262085   3.462   3.080   0.642 -0.1482 -0.9460  1.3577
13532TIP3   OH262086   3.812   3.214   1.468 -0.2399 -0.2476  0.5791
13532TIP3    H162087   3.849   3.279   1.528 -0.0608  1.1504 -0.9886
13532TIP3    H262088   3.768   3.266   1.401 -0.8333 -1.7901 -0.2687
13533TIP3   OH262089   3.216   2.253   3.177 -0.2635 -0.1856 -0.8364
13533TIP3    H162090   3.307   2.276   3.192 -0.3131 -0.1499 -0.5794
13533TIP3    H262091   3.218   2.158   3.163 -0.0222  0.0054 -2.2129
13534TIP3   OH262092   2.839   5.588  13.251 -0.4066 -0.1873  0.4412
13534TIP3    H162093   2.786   5.613  13.326 -0.8677  1.8236 -0.5028
13534TIP3    H262094   2.894   5.664  13.233  0.2358 -0.9018 -0.7910
13535TIP3   OH262095   2.666   2.111   2.898 -0.4303  0.4461 -0.3256
13535TIP3    H162096   2.656   2.022   2.862 -0.1362  0.3822 -0.2516
13535TIP3    H262097   2.741   2.147   2.851  0.5316  0.0312  0.8629
13536TIP3   OH262098   0.231   2.111   1.330 -0.2363 -0.1517 -0.3773
13536TIP3    H162099   0.295   2.043   1.308 -0.4563 -0.3763 -0.3263
13536TIP3    H262100   0.181   2.074   1.402  1.0659  0.9163  1.1666
13537TIP3   OH262101   0.058   6.392   3.101 -0.3990 -0.5908  0.8572
13537TIP3    H162102   0.108   6.469   3.130  1.0532 -0.6936 -1.1817
13537TIP3    H262103   0.113   6.317   3.126 -0.8163 -0.8597  0.9807
13538TIP3   OH262104   2.752   2.826  16.696  0.3329 -0.0878 -0.4856
13538TIP3    H162105   2.744   2.912  16.653  0.9689 -0.3501 -1.1665
13538TIP3    H262106   2.753   2.764  16.623  2.8893 -0.4465 -0.2346
13539TIP3   OH262107   5.554   0.632  17.265  0.1354 -0.1276  0.1300
13539TIP3    H162108   5.552   0.538  17.246  2.5227 -0.1684 -0.3306
13539TIP3    H262109   5.647   0.655  17.258 -0.3536  2.2113  0.5582
13540TIP3   OH262110   5.798   3.163   3.417  0.2055 -0.3689 -0.1252
13540TIP3    H162111   5.760   3.081   3.449 -0.5383 -0.6986 -1.7490
13540TIP3    H262112   5.888   3.140   3.392  0.4146 -0.3669  0.5826
13541TIP3   OH262113   5.766   6.686  13.507 -0.0819 -0.1830  0.6763
13541TIP3    H162114   5.759   6.637  13.426 -1.2470 -2.0505  1.8373
13541TIP3    H262115   5.860   6.688  13.526  0.1502 -0.2044 -0.4023
13542TIP3   OH262116   2.654   3.867   5.911 -0.0587 -0.7317 -0.0537
13542TIP3    H162117   2.652   3.776   5.882  2.2249 -1.5031  1.8482
13542TIP3    H262118   2.587   3.873   5.978 -1.4792 -0.4480 -1.4357
13543TIP3   OH262119   2.173   4.595   3.334  0.2335 -0.1601  0.1208
13543TIP3    H162120   2.098   4.552   3.375 -0.1369  0.4316  0.0772
13543TIP3    H262121   2.162   4.578   3.240 -0.5375  0.9500 -0.0194
13544TIP3   OH262122   4.886   5.833  16.836 -0.1816 -0.6040 -0.3412
13544TIP3    H162123   4.965   5.811  16.787  0.2734  0.5306 -0.1514
13544TIP3    H262124   4.878   5.765  16.902 -0.0903 -1.4458 -1.1821
13545TIP3   OH262125   5.305   3.298  13.825  0.3062  0.2399 -0.7874
13545TIP3    H162126   5.380   3.304  13.765 -1.2148  0.6416 -2.7296
13545TIP3    H262127   5.236   3.257  13.773 -1.5791  2.0643  0.1751
13546TIP3   OH262128   4.521   3.565   0.963 -0.5973 -0.5083 -0.3248
13546TIP3    H162129   4.440   3.612   0.944 -2.0189 -2.3994  0.6768
13546TIP3    H262130   4.497   3.502   1.031  1.9569 -0.5045  0.6926
13547TIP3   OH262131   1.168   1.258  14.976 -0.0470  0.0857  0.4025
13547TIP3    H162132   1.169   1.214  15.061  0.8897 -0.6567  0.0294
13547TIP3    H262133   1.119   1.198  14.919  2.8344 -1.5218 -0.5864
13548TIP3   OH262134   4.926   1.090   0.347  0.2235  0.0307  0.5368
13548TIP3    H162135   4.877   1.170   0.326  0.6600 -0.4737 -3.0867
13548TIP3    H262136   4.868   1.041   0.404 -1.5394  1.4454  0.0732
13549TIP3   OH262137   4.258   2.987   3.778  0.2550  0.1417  0.2691
13549TIP3    H162138   4.179   3.023   3.819 -1.5272 -1.1435 -1.8188
13549TIP3    H262139   4.275   2.906   3.826  1.5161  1.3089  1.9378
13550TIP3   OH262140   4.054   5.318   2.521  0.1558 -0.3439  0.4008
13550TIP3    H162141   3.966   5.286   2.536  0.2668 -1.3647 -0.9280
13550TIP3    H262142   4.081   5.277   2.438  1.0706  1.6164 -0.3411
13551TIP3   OH262143   3.729   3.816   4.789  0.3657 -0.1802  0.3104
13551TIP3    H162144   3.741   3.876   4.862  1.0098  0.1143 -0.0247
13551TIP3    H262145   3.645   3.774   4.805 -0.8109  1.8549 -0.1985
13552TIP3   OH262146   0.973   2.224  16.116  0.2439  0.6366 -0.1713
13552TIP3    H162147   1.036   2.214  16.189 -1.1264 -2.0664  0.8049
13552TIP3    H262148   1.015   2.179  16.043  1.7741  3.6521 -1.2812
13553TIP3   OH262149   3.471   2.840   1.750 -0.0828 -0.0387  0.4163
13553TIP3    H162150   3.395   2.823   1.694  0.6682  1.9747 -1.3415
13553TIP3    H262151   3.543   2.793   1.708  0.5550  1.7474 -0.5691
13554TIP3   OH262152   6.743   1.198  13.025  0.0989 -0.1738 -1.2088
13554TIP3    H162153   6.701   1.245  12.953 -0.0885  1.4755 -0.0498
13554TIP3    H262154   6.830   1.238  13.032  0.0559 -0.2169 -0.4049
13555TIP3   OH262155   2.756   5.322  16.145  0.4873 -0.2469  0.2634
13555TIP3    H162156   2.694   5.279  16.204  1.6765  0.2888  1.9622
13555TIP3    H262157   2.840   5.280  16.164  0.7100 -1.0449 -2.0812
13556TIP3   OH262158   6.652   5.664  12.749  0.1175  0.5154 -0.6463
13556TIP3    H162159   6.656   5.575  12.783  0.5328  1.5836  2.3206
13556TIP3    H262160   6.617   5.716  12.821  1.4200  3.0240 -1.7140
13557TIP3   OH262161   6.714   4.294   0.148  0.1002  0.8636  0.1288
13557TIP3    H162162   6.689   4.202   0.161 -0.7604  0.9390 -0.8652
13557TIP3    H262163   6.795   4.304   0.198 -0.5014 -0.0821  1.3565
13558TIP3   OH262164   1.459   4.849  14.750  0.1375  0.5470 -0.6680
13558TIP3    H162165   1.486   4.789  14.681 -1.1227 -1.3557  0.4163
13558TIP3    H262166   1.528   4.842  14.817  0.1385  0.5375 -0.6698
13559TIP3   OH262167   4.697   6.451  13.596  0.3716 -0.1483  0.2689
13559TIP3    H162168   4.756   6.489  13.661 -0.0464  0.5547  0.2521
13559TIP3    H262169   4.700   6.513  13.523  2.5388 -1.9903 -1.3604
13560TIP3   OH262170   0.109   2.285  16.220  0.2744  0.3179 -0.2458
13560TIP3    H162171   0.134   2.236  16.298  2.6511  0.6436 -0.7324
13560TIP3    H262172   0.054   2.225  16.170  0.7568 -0.7813  0.5125
13561TIP3   OH262173   5.787   0.074   0.378  0.4309  0.0271  0.2587
13561TIP3    H162174   5.871   0.042   0.346  0.3828 -1.0580  1.1601
13561TIP3    H262175   5.749  -0.000   0.424  0.2412  1.3317  2.3274
13562TIP3   OH262176   2.807   5.043  14.350  0.2533 -0.2213 -0.2247
13562TIP3    H162177   2.837   5.007  14.267  0.2174 -0.6296 -0.0624
13562TIP3    H262178   2.718   5.073  14.333  0.6655  0.8109 -0.6562
13563TIP3   OH262179   5.375   0.656   0.820 -0.7005  0.0792  0.0661
13563TIP3    H162180   5.322   0.599   0.763 -2.4060  1.2121  0.4495
13563TIP3    H262181   5.459   0.664   0.774 -0.8897 -1.6270 -0.6575
13564TIP3   OH262182   1.748   0.247   2.584 -0.3036 -0.0310 -0.1446
13564TIP3    H162183   1.709   0.173   2.632  0.1642  0.6406  1.3222
13564TIP3    H262184   1.711   0.324   2.626  1.7097  0.6122  0.5208
13565TIP3   OH262185   3.229   4.872   4.741  0.3897 -0.1764  0.2984
13565TIP3    H162186   3.311   4.861   4.788 -0.0656 -1.9162  0.7349
13565TIP3    H262187   3.237   4.958   4.699  1.2237  0.9891  2.6616
13566TIP3   OH262188   5.804   6.806  16.385  0.4170 -0.3040 -0.7358
13566TIP3    H162189   5.777   6.733  16.330  1.3938  0.7086 -2.6634
13566TIP3    H262190   5.875   6.770  16.439  0.4484 -0.9545 -1.1984
13567TIP3   OH262191   6.101   5.039  12.482 -0.4407 -0.3101  0.1423
13567TIP3    H162192   6.136   4.982  12.413 -0.4148 -0.1311  0.0084
13567TIP3    H262193   6.147   5.010  12.561  1.1368  0.9015 -0.2767
13568TIP3   OH262194   3.141   1.122  14.363  0.0638  0.0168  0.7186
13568TIP3    H162195   3.057   1.137  14.408 -0.8559  0.7176 -1.1165
13568TIP3    H262196   3.116   1.095  14.274  1.7601  1.2544 -0.1862
13569TIP3   OH262197   0.080   0.018  15.072  0.0395  0.2699 -0.1132
13569TIP3    H162198   0.103  -0.065  15.114 -0.8772 -0.3170 -0.7365
13569TIP3    H262199   0.006   0.051  15.122 -2.0551 -1.1745 -2.0484
13570TIP3   OH262200   2.547   5.948   3.811  0.2923  0.2366  0.1021
13570TIP3    H162201   2.514   5.898   3.736 -2.7142  0.2465  1.2464
13570TIP3    H262202   2.574   6.032   3.774 -0.0150 -0.1839 -1.1246
13571TIP3   OH262203   4.296   5.840   5.395 -0.0904  0.1446  0.1263
13571TIP3    H162204   4.301   5.780   5.470 -0.3201 -0.7936 -0.5782
13571TIP3    H262205   4.359   5.805   5.333 -1.8175 -0.7329 -1.2177
13572TIP3   OH262206   0.187   4.485  11.797 -0.3023 -0.5095  0.3896
13572TIP3    H162207   0.127   4.504  11.870 -0.3372  0.9060  0.0282
13572TIP3    H262208   0.142   4.519  11.720  1.0743  0.8931  0.1538
13573TIP3   OH262209   3.249   4.730  15.914 -0.0121 -0.0313 -0.4890
13573TIP3    H162210   3.265   4.655  15.857 -2.2377 -0.3438 -0.8161
13573TIP3    H262211   3.272   4.806  15.861 -1.3211 -0.3497 -1.5726
13574TIP3   OH262212   0.383   6.770  17.176 -0.0361  0.4744 -0.1453
13574TIP3    H162213   0.416   6.684  17.150  0.1769  0.4749  0.1301
13574TIP3    H262214   0.315   6.790  17.111 -0.0988  0.0926 -0.1974
13575TIP3   OH262215   5.491   2.852   1.547 -0.6896  0.0320  0.1110
13575TIP3    H162216   5.446   2.767   1.543 -1.3381  0.2906  1.4161
13575TIP3    H262217   5.508   2.865   1.640  0.4115  0.8293 -0.1896
13576TIP3   OH262218   3.081   3.304  12.886  0.4969  0.0203  0.4055
13576TIP3    H162219   3.003   3.251  12.901 -1.9010  2.4572 -2.2010
13576TIP3    H262220   3.105   3.285  12.795  1.2912  1.2730  0.3403
13577TIP3   OH262221   4.809   1.988   2.490 -0.2030  0.1280  1.1762
13577TIP3    H162222   4.774   1.982   2.401 -1.1999  1.4466  1.4476
13577TIP3    H262223   4.897   2.024   2.479  0.1055 -0.7436  0.6691
13578TIP3   OH262224   3.164   0.605  11.818 -0.5610  0.2899  0.1825
13578TIP3    H162225   3.236   0.542  11.816 -2.4155 -2.0720  1.9084
13578TIP3    H262226   3.189   0.668  11.886  0.5145  0.4019 -0.2975
13579TIP3   OH262227   1.948   5.056   5.945  0.0548  0.3510 -0.0397
13579TIP3    H162228   1.870   5.056   6.001 -0.1321  0.8852 -0.2971
13579TIP3    H262229   1.993   4.974   5.968 -0.4629  0.1448  0.2723
13580TIP3   OH262230   1.353   5.613   0.306  0.1409 -0.3274 -0.2289
13580TIP3    H162231   1.332   5.623   0.213  2.9700  0.5327 -0.8686
13580TIP3    H262232   1.395   5.527   0.311 -0.2456 -0.4902  0.3427
13581TIP3   OH262233   3.170   0.232   0.048 -0.0891  0.4495  0.4411
13581TIP3    H162234   3.264   0.235   0.063  0.3465 -0.6504 -1.6335
13581TIP3    H262235   3.155   0.295  -0.023 -0.8748  0.4394  0.5895
13582TIP3   OH262236   5.858   4.717   2.917  0.5052 -0.0057  0.0384
13582TIP3    H162237   5.938   4.671   2.943  0.8612  1.9277  2.8538
13582TIP3    H262238   5.787   4.661   2.948  0.7178 -1.3453 -1.7542
13583TIP3   OH262239   2.912   3.184   5.307 -0.2208 -0.1490  0.2003
13583TIP3    H162240   2.917   3.092   5.283  0.8978  0.7847 -3.8881
13583TIP3    H262241   2.842   3.219   5.252  1.0159  1.8552 -0.2077
13584TIP3   OH262242   3.051   2.591  13.347 -0.0952  0.4382  0.4965
13584TIP3    H162243   2.995   2.548  13.283  2.5060 -1.7388 -0.5264
13584TIP3    H262244   3.007   2.578  13.431 -2.3815  1.2445 -0.4963
13585TIP3   OH262245   1.436   3.950   1.867  0.0639 -0.2170 -0.1108
13585TIP3    H162246   1.358   3.913   1.826 -1.4944  3.2666 -0.7166
13585TIP3    H262247   1.401   4.013   1.930  2.3209  2.0412 -0.9655
13586TIP3   OH262248   3.724   4.299   4.067 -0.2253 -0.2537  0.4720
13586TIP3    H162249   3.775   4.335   3.994  0.2589  0.5514  1.1867
13586TIP3    H262250   3.785   4.296   4.140 -0.7665 -0.8457  0.9151
13587TIP3   OH262251   5.603   1.338   4.563 -0.6812  0.2827  0.0073
13587TIP3    H162252   5.628   1.256   4.520 -0.7561 -0.9054  2.1107
13587TIP3    H262253   5.510   1.348   4.542 -0.9219 -0.7105  0.5098
13588TIP3   OH262254   0.828   3.918   5.729  0.5013  0.8271 -0.0175
13588TIP3    H162255   0.762   3.898   5.795  0.4609  0.2830 -0.2138
13588TIP3    H262256   0.910   3.885   5.767  0.5676  1.0023 -0.0089
13589TIP3   OH262257   0.620   5.714  11.817  0.2703 -0.1306 -0.4502
13589TIP3    H162258   0.698   5.731  11.764  1.2442  1.0092  1.2516
13589TIP3    H262259   0.628   5.622  11.843  1.2102  0.0610 -0.0427
13590TIP3   OH262260   5.621   5.395  16.917 -0.2904  0.3289 -0.0334
13590TIP3    H162261   5.623   5.390  17.013 -0.4431  0.4861 -0.0214
13590TIP3    H262262   5.644   5.307  16.888 -1.5638 -0.0816  0.1593
13591TIP3   OH262263   1.569   0.677   4.742 -0.1835 -0.7608  0.4346
13591TIP3    H162264   1.516   0.673   4.822  1.0935  0.6217  1.3884
13591TIP3    H262265   1.658   0.659   4.771  0.2918 -0.3060 -0.7027
13592TIP3   OH262266   1.136   0.896   4.659 -0.4664  0.6057  0.3744
13592TIP3    H162267   1.210   0.936   4.613 -1.0200  1.2678  0.0455
13592TIP3    H262268   1.175   0.858   4.738  0.4834 -0.4291 -0.5482
13593TIP3   OH262269   6.384   2.871   1.131  0.4872 -0.0792  0.0748
13593TIP3    H162270   6.394   2.939   1.064  1.8209  0.7178  1.0230
13593TIP3    H262271   6.313   2.816   1.099 -0.4668  1.6036 -0.8773
13594TIP3   OH262272   3.575   1.536  11.363 -0.7882 -0.3783  1.1273
13594TIP3    H162273   3.520   1.614  11.358 -0.6901 -0.3494  0.3048
13594TIP3    H262274   3.536   1.475  11.300  0.4914 -0.1071  0.0095
13595TIP3   OH262275   3.595   2.128   1.238 -0.6203 -0.0706 -0.0413
13595TIP3    H162276   3.584   2.033   1.247 -2.0091  0.1130  0.4681
13595TIP3    H262277   3.679   2.138   1.195 -1.4413 -1.6293 -2.1734
13596TIP3   OH262278   4.689   6.052  15.174  0.0968 -0.4210  0.6613
13596TIP3    H162279   4.624   6.120  15.157  0.0966 -0.5532  0.1121
13596TIP3    H262280   4.717   6.067  15.264  0.9616  1.0353  0.1837
13597TIP3   OH262281   4.693   5.506   0.109  0.3780 -0.3101 -0.5054
13597TIP3    H162282   4.779   5.547   0.114  0.8445 -1.3661  0.8549
13597TIP3    H262283   4.709   5.420   0.071  0.0653 -0.8299  0.5126
13598TIP3   OH262284   2.537   3.165   3.277  0.6558 -0.1631 -0.0581
13598TIP3    H162285   2.526   3.218   3.356  0.5082  1.1789 -0.9488
13598TIP3    H262286   2.630   3.172   3.256  1.1999 -2.4672  1.2859
13599TIP3   OH262287   5.269   5.044  16.308 -0.6587 -0.0732  0.1102
13599TIP3    H162288   5.269   5.105  16.235 -1.3357 -0.7474 -0.4731
13599TIP3    H262289   5.299   4.961  16.270 -0.4592 -0.2949  0.7265
13600TIP3   OH262290   0.219   3.932  12.025  0.6344 -0.0728 -0.3150
13600TIP3    H162291   0.304   3.974  12.040  0.1429  0.1602  2.5065
13600TIP3    H262292   0.162   4.002  11.994  0.1445  1.2680  3.1714
13601TIP3   OH262293   2.194   3.784   2.797  0.2324  0.5476  0.1451
13601TIP3    H162294   2.228   3.748   2.879  0.9691  2.0775  0.5418
13601TIP3    H262295   2.133   3.717   2.766  0.0521 -0.1551  1.8565
13602TIP3   OH262296   6.406   0.576   0.147 -0.0271 -0.1519  0.0438
13602TIP3    H162297   6.344   0.510   0.177  1.9676 -2.0777  0.1945
13602TIP3    H262298   6.377   0.598   0.059 -1.7416  0.1285  0.6395
13603TIP3   OH262299   5.828   4.379   0.717  0.2041 -0.0751 -0.1505
13603TIP3    H162300   5.847   4.364   0.625  2.4576 -2.1481  0.5417
13603TIP3    H262301   5.888   4.450   0.743 -1.2247  1.2969 -0.4859
13604TIP3   OH262302   2.775   4.088   5.819 -0.1513  0.1725 -0.2331
13604TIP3    H162303   2.751   3.996   5.822 -1.8925  0.5716 -0.3323
13604TIP3    H262304   2.791   4.112   5.910 -0.7250  0.0112 -0.0867
13605TIP3   OH262305   2.590   6.072   1.601  0.5940  0.8120  0.0994
13605TIP3    H162306   2.573   5.980   1.581  0.7033  0.7992  0.0625
13605TIP3    H262307   2.506   6.107   1.629  0.2203  1.0569 -1.2528
13606TIP3   OH262308   1.262   0.304   5.714 -0.5596 -0.2736  0.1736
13606TIP3    H162309   1.241   0.237   5.650 -0.7816 -0.6338  0.6172
13606TIP3    H262310   1.184   0.311   5.768 -0.7080  0.6663 -0.1430
13607TIP3   OH262311   0.363   2.620  12.395 -0.0760  0.6528  0.0803
13607TIP3    H162312   0.270   2.611  12.412  0.0987 -1.5261  0.1682
13607TIP3    H262313   0.402   2.538  12.428  2.1133  2.1968  1.6182
13608TIP3   OH262314   6.675   6.239  11.633 -0.3142 -0.4118  0.8479
13608TIP3    H162315   6.718   6.280  11.708  0.7537 -2.3778  1.3571
13608TIP3    H262316   6.727   6.266  11.557  0.2153 -0.6100  1.1417
13609TIP3   OH262317   1.824   5.793   4.200 -0.3427  0.2405  0.2793
13609TIP3    H162318   1.769   5.823   4.272 -0.4145  0.9154 -0.0478
13609TIP3    H262319   1.833   5.870   4.143  0.1121 -0.1457 -0.1798
13610TIP3   OH262320   0.310   5.920   5.390 -0.3986  0.1719 -0.6256
13610TIP3    H162321   0.332   5.973   5.313 -1.2993  0.0563 -0.9717
13610TIP3    H262322   0.362   5.957   5.461 -1.2437  1.7320 -0.7854
13611TIP3   OH262323   6.767   0.180  14.597  0.0500 -0.6655  0.4256
13611TIP3    H162324   6.845   0.142  14.636  1.2909  0.7917 -0.5463
13611TIP3    H262325   6.783   0.181  14.503 -0.3688  1.1919  0.3257
13612TIP3   OH262326   1.063   1.340   1.317  0.3841  0.0794 -0.1672
13612TIP3    H162327   1.058   1.394   1.238 -0.2190 -0.0206 -0.2067
13612TIP3    H262328   0.971   1.317   1.336  0.7381 -2.7291 -1.3908
13613TIP3   OH262329   3.487   3.131  11.794  0.2546 -0.0158 -0.4715
13613TIP3    H162330   3.539   3.055  11.768 -1.2119 -0.6613 -1.6798
13613TIP3    H262331   3.396   3.103  11.784 -0.3551  2.0297 -1.4443
13614TIP3   OH262332   4.080   2.491  11.208  0.6501  0.0968  0.5662
13614TIP3    H162333   4.127   2.470  11.127 -0.1140 -0.6079  0.2973
13614TIP3    H262334   4.041   2.577  11.191  0.4755 -0.0560  0.1689
13615TIP3   OH262335   6.630   3.072   6.264  0.3013  0.3692 -0.0856
13615TIP3    H162336   6.566   3.100   6.331 -1.0382  1.1057 -1.6030
13615TIP3    H262337   6.604   2.983   6.243 -0.6930  0.8755 -1.1486
13616TIP3   OH262338   4.140   2.090  13.822 -0.2552 -0.0921  0.0369
13616TIP3    H162339   4.074   2.031  13.785  0.4714 -0.1304 -1.2756
13616TIP3    H262340   4.148   2.160  13.758  1.4911 -0.4767 -0.2219
13617TIP3   OH262341   1.867   2.868  17.089  0.3064 -0.5593  0.3477
13617TIP3    H162342   1.943   2.921  17.113  0.1040  0.4484 -1.0717
13617TIP3    H262343   1.877   2.852  16.995 -1.3603 -0.1408  0.0551
13618TIP3   OH262344   4.979   6.728   0.975 -0.2426  0.4375 -0.4951
13618TIP3    H162345   4.976   6.634   0.959 -0.5447  0.3758 -0.0943
13618TIP3    H262346   5.011   6.736   1.065  0.4122  0.7417 -0.7481
13619TIP3   OH262347   6.277   0.859  15.345 -0.7531 -0.1778  0.7050
13619TIP3    H162348   6.342   0.789  15.353 -1.2792 -0.8441 -0.4007
13619TIP3    H262349   6.279   0.883  15.252 -1.9870 -0.1451  0.6576
13620TIP3   OH262350   3.348   1.537   2.348 -0.2116 -0.5931 -0.1373
13620TIP3    H162351   3.253   1.534   2.335 -0.3883 -0.8788  1.1412
13620TIP3    H262352   3.364   1.624   2.384  0.1903 -0.0744 -1.4879
13621TIP3   OH262353   0.893   4.941  15.459 -0.7152  0.1486 -0.0131
13621TIP3    H162354   0.921   4.986  15.379 -1.7392 -2.0605 -1.7104
13621TIP3    H262355   0.839   5.007  15.504  0.2160  1.5950 -0.9035
13622TIP3   OH262356   3.697   4.905  11.247  0.1972  0.2078  0.4203
13622TIP3    H162357   3.728   4.816  11.232 -1.6405 -0.6840  1.4981
13622TIP3    H262358   3.658   4.932  11.164  0.7438  0.0261  0.0974
13623TIP3   OH262359   1.381   2.109   5.171 -0.1288 -0.0075  0.1489
13623TIP3    H162360   1.386   2.126   5.265 -0.2716 -1.7932  0.5111
13623TIP3    H262361   1.301   2.058   5.159 -0.3872  0.6268 -1.0327
13624TIP3   OH262362   2.525   5.302   3.742  0.3787  0.1572 -0.8567
13624TIP3    H162363   2.600   5.246   3.762  0.2084 -0.1077 -0.9456
13624TIP3    H262364   2.531   5.374   3.805  0.5973  0.0348 -0.7371
13625TIP3   OH262365   5.966   3.917   5.546  0.4454  0.0833  0.1201
13625TIP3    H162366   5.893   3.862   5.517  0.7797 -0.6805  0.6705
13625TIP3    H262367   6.032   3.854   5.576  0.9503  0.7867  0.5027
13626TIP3   OH262368   3.615   4.901  14.824 -0.0894  0.4405 -0.5267
13626TIP3    H162369   3.570   4.824  14.859  2.0580  0.1399  1.9552
13626TIP3    H262370   3.565   4.925  14.746 -0.4667 -3.8766 -1.9014
13627TIP3   OH262371   4.937   4.990   4.158 -0.3293  0.4625  0.0483
13627TIP3    H162372   4.854   5.027   4.189  0.8442  1.6270  2.0228
13627TIP3    H262373   4.970   5.053   4.094 -0.5090  0.4973 -0.0096
13628TIP3   OH262374   0.369   4.293  17.158 -0.3546 -0.0868  0.5073
13628TIP3    H162375   0.299   4.355  17.177  0.2519  0.2523  1.7696
13628TIP3    H262376   0.449   4.340  17.182  0.1689 -1.0795  0.7551
13629TIP3   OH262377   1.927   4.834  13.302 -0.4594 -0.1696  0.0506
13629TIP3    H162378   1.938   4.897  13.373 -1.2146  2.6102 -2.0953
13629TIP3    H262379   1.991   4.863  13.236 -2.9393  0.3901 -2.2615
13630TIP3   OH262380   6.063   2.460   0.774  0.0871 -0.0980  0.0155
13630TIP3    H162381   5.989   2.473   0.834  0.1346 -0.9211  0.2716
13630TIP3    H262382   6.022   2.434   0.691  0.0618  0.1436 -0.0490
13631TIP3   OH262383   0.675   0.494  11.489  0.5888 -0.1880 -0.0686
13631TIP3    H162384   0.623   0.477  11.410 -0.8376  0.4645  0.6927
13631TIP3    H262385   0.610   0.511  11.557  1.8055 -0.3011  1.1514
13632TIP3   OH262386   5.772   1.807  14.725  0.0593  0.0866  0.7249
13632TIP3    H162387   5.726   1.773  14.649  0.0710  0.1537  0.6876
13632TIP3    H262388   5.705   1.813  14.793  0.0282  0.1145  0.6921
13633TIP3   OH262389   4.230   6.794  10.934 -0.1791  0.1109  0.0192
13633TIP3    H162390   4.297   6.821  10.871  0.2386 -0.8352  0.0521
13633TIP3    H262391   4.147   6.817  10.891  0.0923 -0.6978 -0.9617
13634TIP3   OH262392   2.304   1.653   1.252  0.1028  0.6283 -0.0676
13634TIP3    H162393   2.298   1.578   1.311  2.9548 -0.5438 -1.1114
13634TIP3    H262394   2.332   1.616   1.168  2.7143  2.8653 -0.3299
13635TIP3   OH262395   1.195   4.632   1.104  0.3177  0.3973  0.0312
13635TIP3    H162396   1.272   4.678   1.136  0.4463  0.4411 -0.3324
13635TIP3    H262397   1.229   4.565   1.045  0.2579 -1.3554  1.8689
13636TIP3   OH262398   0.897   4.760  17.004 -0.3075  0.4222  0.2115
13636TIP3    H162399   0.954   4.732  17.075  0.0762  1.1172  0.1902
13636TIP3    H262400   0.828   4.694  17.000  0.6468 -0.5807  0.0415
13637TIP3   OH262401   0.387   3.226   1.179 -0.0480  0.5263 -0.1074
13637TIP3    H162402   0.343   3.310   1.189 -0.1784  0.4077  0.2952
13637TIP3    H262403   0.480   3.246   1.194  0.1980  0.9604 -1.8822
13638TIP3   OH262404   1.343   1.104   1.724 -0.0269  0.4602  0.5448
13638TIP3    H162405   1.372   1.015   1.745  0.1264  0.2056 -0.6903
13638TIP3    H262406   1.421   1.147   1.687 -0.2406  0.9484  0.6499
13639TIP3   OH262407   3.621   3.780   3.427 -0.2382 -0.2174  0.5253
13639TIP3    H162408   3.583   3.829   3.354 -0.0304 -0.6120  0.1492
13639TIP3    H262409   3.680   3.718   3.386  1.1637  0.6767  1.1261
13640TIP3   OH262410   5.719   1.048  11.911  0.1552  0.5363 -0.0053
13640TIP3    H162411   5.684   1.068  11.824  2.1002  1.9145 -0.5291
13640TIP3    H262412   5.738   0.955  11.909  0.6110  0.6394 -1.2296
13641TIP3   OH262413   5.497   3.416   1.945  0.4837  0.1426 -0.3032
13641TIP3    H162414   5.461   3.331   1.921  0.8156 -0.3138  0.7712
13641TIP3    H262415   5.579   3.422   1.896  1.4909 -1.0677  1.1341
13642TIP3   OH262416   1.431   1.562   5.542  0.2045  0.1556  0.5483
13642TIP3    H162417   1.345   1.588   5.577  0.3855 -0.0526  1.1663
13642TIP3    H262418   1.429   1.590   5.451 -0.6728 -0.1865  0.4480
13643TIP3   OH262419   5.499   6.113   0.256 -0.4459 -0.4352 -0.4135
13643TIP3    H162420   5.536   6.200   0.269  0.8040 -0.6651 -2.1573
13643TIP3    H262421   5.530   6.086   0.170 -2.5686 -1.7384 -0.8511
13644TIP3   OH262422   1.755   1.106  10.479 -0.2840  0.7101 -0.5913
13644TIP3    H162423   1.790   1.194  10.495 -0.3896  0.5908  0.3937
13644TIP3    H262424   1.820   1.062  10.425 -0.0735  1.2877 -0.8088
13645TIP3   OH262425   2.102   0.590   3.124 -0.2139  0.1159 -0.4215
13645TIP3    H162426   2.037   0.531   3.162  2.2089 -1.6518  1.3167
13645TIP3    H262427   2.100   0.571   3.031 -1.4112 -0.6909 -0.2601
13646TIP3   OH262428   5.264   6.677  11.056  0.4201 -0.0590  0.3756
13646TIP3    H162429   5.181   6.634  11.037 -0.6139  1.4065  1.3117
13646TIP3    H262430   5.284   6.728  10.978 -0.6887  1.2282  0.8910
13647TIP3   OH262431   5.178   5.664   3.496  0.2097 -0.5338 -0.0968
13647TIP3    H162432   5.120   5.605   3.448 -0.9448  0.5205 -0.0567
13647TIP3    H262433   5.257   5.669   3.442  0.6655 -2.6773  0.2763
13648TIP3   OH262434   2.163   3.114  12.230 -0.3752 -0.4382  0.4731
13648TIP3    H162435   2.090   3.152  12.281 -0.1999  0.7187 -0.1016
13648TIP3    H262436   2.233   3.179  12.238  0.2193 -1.0325  0.1220
13649TIP3   OH262437   5.541   0.502  16.801 -0.1372  0.5371  0.4794
13649TIP3    H162438   5.492   0.551  16.868 -1.7154 -0.2322 -0.0528
13649TIP3    H262439   5.479   0.494  16.728  0.9594 -0.1221 -0.4105
13650TIP3   OH262440   2.800   0.742  13.962  0.1755  0.5985 -0.4625
13650TIP3    H162441   2.813   0.648  13.951  0.6014  0.6408 -0.3479
13650TIP3    H262442   2.748   0.769  13.887 -4.5686 -0.6407  1.9975
13651TIP3   OH262443   4.013   3.562   1.500  0.5306 -0.2387  0.2645
13651TIP3    H162444   3.977   3.530   1.417 -1.5707  0.0818  0.9948
13651TIP3    H262445   4.075   3.630   1.474 -0.3839  0.1458 -1.0440
13652TIP3   OH262446   1.037   5.659  12.293  0.3283  0.6140 -0.3351
13652TIP3    H162447   1.071   5.666  12.203  0.6322 -0.0898 -0.2811
13652TIP3    H262448   0.943   5.642  12.282  0.3847  0.4135 -0.5266
13653TIP3   OH262449   3.425   2.463  12.230 -0.0549 -0.0419  0.4864
13653TIP3    H162450   3.358   2.514  12.276 -1.3312  0.2253 -1.5549
13653TIP3    H262451   3.426   2.498  12.141  3.0182  0.1055  0.4832
13654TIP3   OH262452   6.751   1.754   2.606  0.1014  0.1215 -0.1305
13654TIP3    H162453   6.729   1.777   2.516  2.0368  1.0976 -0.4106
13654TIP3    H262454   6.800   1.672   2.599 -0.0632  0.0030  0.0794
13655TIP3   OH262455   3.589   0.713  13.091 -0.6161  0.4488  0.5371
13655TIP3    H162456   3.558   0.692  13.003  1.3793  0.9159 -0.3427
13655TIP3    H262457   3.539   0.791  13.116 -2.0015 -0.3452  0.3018
13656TIP3   OH262458   4.424   4.635  15.933  0.3077  0.9089  0.4833
13656TIP3    H162459   4.504   4.625  15.985  0.5723 -0.6153 -0.1598
13656TIP3    H262460   4.422   4.557  15.877 -1.0732  1.4594 -0.2784
13657TIP3   OH262461   5.426   4.373   6.324 -0.6016  0.1502  0.2296
13657TIP3    H162462   5.426   4.337   6.413 -0.4246  2.5768  1.3133
13657TIP3    H262463   5.489   4.445   6.328 -0.2345  0.0093 -2.0362
13658TIP3   OH262464   3.006   5.794  13.243 -0.1300  0.1287 -0.8837
13658TIP3    H162465   3.072   5.789  13.311 -0.1934 -1.9446 -0.9054
13658TIP3    H262466   3.003   5.887  13.219  1.0555  0.6391  0.7566
13659TIP3   OH262467   2.191   1.604   4.635  0.0182 -0.5046  1.1021
13659TIP3    H162468   2.139   1.621   4.557 -0.3093  0.4106  1.4992
13659TIP3    H262469   2.270   1.560   4.603 -0.1527 -0.2256  0.2742
13660TIP3   OH262470   4.168   6.693  13.144  0.0183 -0.5195  0.1050
13660TIP3    H162471   4.143   6.648  13.225 -1.5620  1.7372  0.9602
13660TIP3    H262472   4.229   6.632  13.101  0.3249 -2.1199  2.5894
13661TIP3   OH262473   2.347   5.146  12.039 -0.4109 -0.0383 -0.3035
13661TIP3    H162474   2.279   5.103  11.989 -2.8523  1.8239  1.1720
13661TIP3    H262475   2.326   5.126  12.131 -0.3846  2.3678  0.3052
13662TIP3   OH262476   5.120   6.125   4.698  0.0140  0.0389 -0.2707
13662TIP3    H162477   5.053   6.155   4.637  0.5799 -0.6808 -1.2699
13662TIP3    H262478   5.196   6.181   4.681  0.1823 -0.1808 -0.2556
13663TIP3   OH262479   1.183   4.912   4.950 -0.2345  0.2244  0.1718
13663TIP3    H162480   1.125   4.912   5.026 -1.9243  0.5780 -1.0535
13663TIP3    H262481   1.231   4.830   4.957 -0.5565  0.1230  1.4678
13664TIP3   OH262482   0.429   6.559  15.696  0.1468  0.0432 -0.2478
13664TIP3    H162483   0.474   6.620  15.753 -0.4594  0.3673 -0.1051
13664TIP3    H262484   0.400   6.613  15.622  1.3751 -0.4638 -1.1422
13665TIP3   OH262485   3.820   6.389  14.510  0.1613 -0.7849 -0.4753
13665TIP3    H162486   3.884   6.362  14.577 -0.5929 -0.1782  0.5259
13665TIP3    H262487   3.758   6.316  14.506 -0.8017 -0.0828  0.8358
13666TIP3   OH262488   0.263   5.392  13.929  0.5957 -0.0879 -0.4638
13666TIP3    H162489   0.280   5.337  14.006 -1.6735  0.3179  0.4134
13666TIP3    H262490   0.187   5.351  13.887  0.1830  1.1600 -0.9822
13667TIP3   OH262491   1.429   0.533   5.842  0.3252  0.2261 -0.1681
13667TIP3    H162492   1.465   0.445   5.854 -1.6986 -0.7109 -0.6470
13667TIP3    H262493   1.376   0.549   5.920  0.9348  1.2048  0.0786
13668TIP3   OH262494   6.331   4.847  16.869  0.6397  0.2181 -0.6298
13668TIP3    H162495   6.299   4.758  16.860 -1.8283  0.9910 -0.3490
13668TIP3    H262496   6.426   4.838  16.876  0.4348 -2.4010 -0.1574
13669TIP3   OH262497   4.488   3.187   3.393 -0.1450 -0.7310  0.3389
13669TIP3    H162498   4.527   3.220   3.474  0.2103 -1.0428  0.3006
13669TIP3    H262499   4.470   3.095   3.412 -1.4157 -0.4591  0.5533
13670TIP3   OH262500   5.331   3.787  13.714 -0.1384  0.1753  0.3007
13670TIP3    H162501   5.330   3.765  13.807  1.1314 -2.4116 -0.1829
13670TIP3    H262502   5.420   3.766  13.685 -0.8620 -0.3634 -1.7331
13671TIP3   OH262503   4.865   2.544   3.506 -0.0966 -0.0344 -0.3224
13671TIP3    H162504   4.919   2.564   3.583 -0.9748 -0.3197  0.3920
13671TIP3    H262505   4.827   2.458   3.526 -1.0604  0.2970 -0.6588
13672TIP3   OH262506   4.329   6.783  12.399  0.5033 -0.1419 -0.7550
13672TIP3    H162507   4.259   6.788  12.464  0.2189 -0.1875 -1.0585
13672TIP3    H262508   4.353   6.690  12.395  2.7899  0.2160  1.6835
13673TIP3   OH262509   1.517   4.809   2.118  0.2216  0.2176 -0.4217
13673TIP3    H162510   1.567   4.804   2.036  0.6666  1.9307 -0.2851
13673TIP3    H262511   1.579   4.781   2.186 -0.1462 -1.1983 -0.6377
13674TIP3   OH262512   1.806   4.261  16.133  0.0583 -0.6108 -0.6639
13674TIP3    H162513   1.785   4.182  16.182 -1.0214 -2.6363 -4.0335
13674TIP3    H262514   1.899   4.278  16.152  0.6058 -3.3363 -0.5594
13675TIP3   OH262515   6.763   0.964  16.522  0.2250 -0.3593 -0.1415
13675TIP3    H162516   6.705   1.012  16.462  1.3359 -0.1822 -1.1154
13675TIP3    H262517   6.707   0.897  16.560 -0.7934  0.2482 -0.5194
13676TIP3   OH262518   0.068   5.577   2.167  0.5190 -0.1136 -0.1441
13676TIP3    H162519   0.001   5.521   2.127 -1.2805  0.5206  1.8533
13676TIP3    H262520   0.120   5.608   2.093 -1.8479 -0.0330 -1.8817
13677TIP3   OH262521   2.005   5.275  13.443 -0.2439  0.2286  0.7799
13677TIP3    H162522   2.077   5.310  13.391 -0.9440  1.0748  0.3441
13677TIP3    H262523   1.954   5.352  13.468 -0.4575 -0.2604  1.9141
13678TIP3   OH262524   3.224   2.594  12.343 -0.2195  0.4680  0.1286
13678TIP3    H162525   3.157   2.540  12.301  0.0131  0.2337  0.0549
13678TIP3    H262526   3.185   2.620  12.427 -0.0640 -0.4082  0.4814
13679TIP3   OH262527   0.980   1.482  14.522  0.1636 -0.8089  0.6318
13679TIP3    H162528   0.961   1.568  14.558 -0.3163 -0.0410 -1.3505
13679TIP3    H262529   1.066   1.491  14.482 -0.2597 -0.9755 -0.3423
13680TIP3   OH262530   6.374   4.875   4.756 -0.2714  0.3178 -0.7777
13680TIP3    H162531   6.389   4.802   4.696 -0.9530 -0.0194 -0.5441
13680TIP3    H262532   6.285   4.862   4.788 -0.6514  1.6310 -1.2486
13681TIP3   OH262533   3.613   1.902   5.574  0.0889  0.0581  0.1371
13681TIP3    H162534   3.550   1.903   5.646  1.1170  0.2216  1.0715
13681TIP3    H262535   3.610   1.991   5.539  0.1668  0.2168  0.5191
13682TIP3   OH262536   1.932   0.216  16.583 -0.2989  0.1518  0.3980
13682TIP3    H162537   1.882   0.296  16.599 -0.3960  0.3299 -0.7432
13682TIP3    H262538   1.877   0.146  16.619 -0.7149  0.4897  0.4215
13683TIP3   OH262539   6.609   5.691  14.594  0.6802 -0.1595  0.3086
13683TIP3    H162540   6.566   5.765  14.637  2.0855  1.4603 -0.9248
13683TIP3    H262541   6.544   5.657  14.533  0.6358  1.4358 -0.6049
13684TIP3   OH262542   4.680   5.191  16.798 -0.2909  0.1354  0.2063
13684TIP3    H162543   4.648   5.111  16.757 -0.3502  0.8107 -1.1040
13684TIP3    H262544   4.608   5.254  16.788  0.9235  1.3303 -1.7468
13685TIP3   OH262545   5.633   2.206  14.246 -0.1524  0.2045  0.0480
13685TIP3    H162546   5.598   2.262  14.176  2.2483  0.6834 -0.8838
13685TIP3    H262547   5.670   2.267  14.309  2.3335 -0.1942 -0.8916
13686TIP3   OH262548   4.605   2.987   5.145  0.7706 -0.0074 -0.3987
13686TIP3    H162549   4.698   2.995   5.166  0.6484  0.6679 -0.0823
13686TIP3    H262550   4.562   2.978   5.230  0.7165 -2.4967 -0.6197
13687TIP3   OH262551   0.900   2.246   5.680  0.1825  0.5150  0.1481
13687TIP3    H162552   0.807   2.246   5.658 -0.2808  0.7500  1.9355
13687TIP3    H262553   0.915   2.161   5.721  1.3210 -0.4618 -2.0963
13688TIP3   OH262554   0.800   5.520   3.938 -0.4586 -0.0010  0.1574
13688TIP3    H162555   0.834   5.455   4.000 -0.1417 -0.6553 -0.6742
13688TIP3    H262556   0.854   5.598   3.953  1.0469 -0.8299 -0.7207
13689TIP3   OH262557   4.812   6.135  11.797  0.8444  0.9065  0.2935
13689TIP3    H162558   4.857   6.150  11.715  0.5206 -0.5118 -0.1753
13689TIP3    H262559   4.881   6.114  11.860  0.8818 -3.3814 -0.8983
13690TIP3   OH262560   6.754   0.229  13.778  0.0093  0.1622 -0.2734
13690TIP3    H162561   6.706   0.308  13.800  1.0531  0.8792 -0.5125
13690TIP3    H262562   6.709   0.195  13.700  0.6920  1.5721 -1.3209
13691TIP3   OH262563   1.868   3.226  14.627 -0.3147  0.0928 -0.4471
13691TIP3    H162564   1.821   3.225  14.711 -2.6426  1.9392 -1.6425
13691TIP3    H262565   1.926   3.302  14.633 -1.2730  0.8734 -0.8843
13692TIP3   OH262566   0.573   0.422   5.026  0.0346 -0.7306  0.5479
13692TIP3    H162567   0.484   0.446   5.003 -0.1103 -0.4246  1.4257
13692TIP3    H262568   0.572   0.408   5.120  1.1293  0.2609  0.7321
13693TIP3   OH262569   0.344   0.405   2.707 -0.4831 -0.6094  0.9551
13693TIP3    H162570   0.264   0.427   2.659 -0.4066 -1.2939  0.4985
13693TIP3    H262571   0.361   0.314   2.683  0.3484 -0.5116  1.1753
13694TIP3   OH262572   2.211   2.972  16.133  0.4779 -0.1935  0.2020
13694TIP3    H162573   2.260   2.958  16.214  0.5383  0.1896  0.2330
13694TIP3    H262574   2.134   2.917  16.142 -1.3271  2.4071  2.0725
13695TIP3   OH262575   3.143   4.030   0.792 -0.8445  0.6023  0.0791
13695TIP3    H162576   3.125   4.101   0.731 -2.5652 -1.5012 -2.0667
13695TIP3    H262577   3.057   3.990   0.808  0.2847 -2.5541 -0.9604
13696TIP3   OH262578   4.708   2.438  12.627 -0.7946 -0.2527  0.3506
13696TIP3    H162579   4.773   2.368  12.615 -1.6363 -0.7499 -1.8581
13696TIP3    H262580   4.631   2.392  12.661 -0.2635  0.2185  2.2716
13697TIP3   OH262581   5.124   0.604  16.132  0.3539  0.3512 -0.5350
13697TIP3    H162582   5.167   0.683  16.165  0.8792 -0.2225  0.1970
13697TIP3    H262583   5.041   0.635  16.097 -0.2319  1.0397  1.3152
13698TIP3   OH262584   5.735   5.950  11.303 -0.1321 -0.5799  0.1804
13698TIP3    H162585   5.696   5.972  11.218  0.8571  1.4274  0.1953
13698TIP3    H262586   5.811   6.008  11.311  0.4454 -1.5033  1.9566
13699TIP3   OH262587   0.729   1.761  12.174 -0.0082  0.6862  0.6321
13699TIP3    H162588   0.787   1.836  12.185  0.2589  0.5386  0.2642
13699TIP3    H262589   0.751   1.703  12.247 -1.6033  1.8331  2.0824
13700TIP3   OH262590   4.235   6.415  13.773  0.2233 -0.1093  0.2940
13700TIP3    H162591   4.191   6.330  13.776  1.0969 -0.6191 -0.4888
13700TIP3    H262592   4.246   6.440  13.865  1.1003 -1.4783  0.5954
13701TIP3   OH262593   2.405   5.537  10.776  0.3364  0.0659 -0.0512
13701TIP3    H162594   2.347   5.609  10.754  0.1461 -0.8591 -3.0085
13701TIP3    H262595   2.485   5.579  10.809 -0.0335  1.5781 -1.0242
13702TIP3   OH262596   6.493   5.706   4.895  0.2600 -0.0256 -0.2676
13702TIP3    H162597   6.497   5.704   4.990  1.5214 -0.9656 -0.3079
13702TIP3    H262598   6.469   5.796   4.874 -0.6406  0.0416  0.9342
13703TIP3   OH262599   1.859   1.887   4.251  0.0408 -0.1519 -0.0406
13703TIP3    H162600   1.811   1.840   4.182  1.4277 -0.3605 -0.9132
13703TIP3    H262601   1.798   1.890   4.325 -1.7759  0.6837 -1.4699
13704TIP3   OH262602   4.879   2.563   5.941  0.1084 -0.6667  0.0792
13704TIP3    H162603   4.957   2.519   5.975 -0.5234 -0.5824  1.6996
13704TIP3    H262604   4.896   2.571   5.847  1.6925 -1.3702  0.2664
13705TIP3   OH262605   3.006   0.793   2.377 -0.4836  0.0565 -0.1799
13705TIP3    H162606   2.979   0.708   2.413 -2.9305  1.0645  0.6071
13705TIP3    H262607   3.049   0.837   2.450  0.1961 -0.2366 -0.3951
13706TIP3   OH262608   5.911   1.846  14.359  0.0075 -0.8160  0.1900
13706TIP3    H162609   5.821   1.855  14.390  0.0858  0.9296  0.0065
13706TIP3    H262610   5.923   1.918  14.298  2.0686  0.0970  1.5427
13707TIP3   OH262611   5.339   1.328   2.853 -0.3804  0.2566 -0.6083
13707TIP3    H162612   5.416   1.287   2.814 -1.1833 -2.3737  0.2974
13707TIP3    H262613   5.332   1.413   2.810  3.7047  1.2002  0.1595
13708TIP3   OH262614   6.388   6.239   5.876  0.0946 -0.0398  0.0721
13708TIP3    H162615   6.480   6.265   5.884  0.3631 -1.0144  0.2733
13708TIP3    H262616   6.339   6.311   5.916  0.8171  0.0841  0.7470
13709TIP3   OH262617   6.201   3.742   3.853 -0.3525 -0.8628  0.4310
13709TIP3    H162618   6.241   3.660   3.824 -0.2209 -0.9585  0.8789
13709TIP3    H262619   6.192   3.732   3.948 -0.0814 -0.2487  0.5234
13710TIP3   OH262620   1.874   5.537   4.846 -0.0324  0.3076 -0.0968
13710TIP3    H162621   1.913   5.616   4.883 -1.1442  1.3675 -1.0958
13710TIP3    H262622   1.883   5.548   4.751 -0.1176 -0.8231 -0.2483
13711TIP3   OH262623   4.081   4.204   2.625 -0.4906 -0.2411  0.1491
13711TIP3    H162624   4.127   4.124   2.651 -3.2190 -2.1226 -0.3952
13711TIP3    H262625   4.018   4.220   2.695  1.1327  2.5497  1.1175
13712TIP3   OH262626   4.552   0.191  15.865  0.1838  0.1651  0.1980
13712TIP3    H162627   4.642   0.221  15.854 -0.0334  0.7384 -0.0997
13712TIP3    H262628   4.510   0.260  15.917 -0.0262 -0.2063  0.5247
13713TIP3   OH262629   6.120   1.439  10.868  0.1343  0.4678  1.1684
13713TIP3    H162630   6.212   1.419  10.852  0.4261  1.3169  1.7581
13713TIP3    H262631   6.078   1.425  10.783  0.8298  0.2175  0.8567
13714TIP3   OH262632   6.565   6.147   3.400  0.1901 -0.8658  0.6301
13714TIP3    H162633   6.616   6.224   3.371 -1.4292 -0.0039 -0.0412
13714TIP3    H262634   6.602   6.074   3.349 -0.1385 -0.0059 -0.9168
13715TIP3   OH262635   4.504   1.139  11.064 -0.1593 -0.1915 -0.0922
13715TIP3    H162636   4.588   1.095  11.077 -0.3946 -0.9645 -1.0689
13715TIP3    H262637   4.525   1.219  11.016 -0.1297 -1.3269 -2.1092
13716TIP3   OH262638   0.888   3.631   2.978  0.0786  0.3122 -0.2293
13716TIP3    H162639   0.800   3.603   2.952  0.2728  0.7429 -1.4075
13716TIP3    H262640   0.947   3.573   2.930  0.4722 -0.7805  1.4746
13717TIP3   OH262641   4.586   2.679  13.468  0.2736 -0.2146 -0.3996
13717TIP3    H162642   4.652   2.613  13.445 -1.0124 -1.6151 -0.2569
13717TIP3    H262643   4.592   2.687  13.563 -0.8079 -1.5715 -0.1796
13718TIP3   OH262644   2.384   3.817   2.236 -0.4187  0.3549  0.1932
13718TIP3    H162645   2.423   3.730   2.222 -0.2116  0.4995 -0.1360
13718TIP3    H262646   2.290   3.800   2.242 -0.2321 -0.1783  2.3395
13719TIP3   OH262647   4.289   6.220   1.262  0.0793 -0.4160  0.2556
13719TIP3    H162648   4.310   6.166   1.338 -1.5882  0.2821  1.2652
13719TIP3    H262649   4.199   6.195   1.239  0.2934 -0.0788 -1.0402
13720TIP3   OH262650   6.396   3.014   4.781 -0.2472 -0.3223  0.1250
13720TIP3    H162651   6.442   3.091   4.746 -0.2183 -0.3620  0.0751
13720TIP3    H262652   6.439   2.939   4.738 -1.0651 -0.3122 -0.7583
13721TIP3   OH262653   5.642   6.542  10.725 -0.3388 -0.1710  0.3085
13721TIP3    H162654   5.709   6.562  10.659 -0.6135 -0.0894  0.0550
13721TIP3    H262655   5.595   6.625  10.736 -1.2527 -0.5793 -0.4828
13722TIP3   OH262656   5.090   1.205  16.655  0.4366 -0.1777 -0.7040
13722TIP3    H162657   5.101   1.295  16.685  0.8905 -0.2662 -0.5986
13722TIP3    H262658   5.029   1.166  16.718 -1.5049  0.6536 -1.9834
13723TIP3   OH262659   1.962   3.657   6.920 -0.5886 -0.1075  0.4000
13723TIP3    H162660   1.965   3.618   6.832 -0.7807  0.4527  0.1399
13723TIP3    H262661   2.038   3.620   6.965 -0.1745  0.0145 -0.1843
13724TIP3   OH262662   1.642   0.442  13.243  0.3421  0.5033 -1.1110
13724TIP3    H162663   1.557   0.401  13.224  0.0198 -0.3886  1.7034
13724TIP3    H262664   1.690   0.436  13.161 -1.5282 -0.9991 -2.2010
13725TIP3   OH262665   4.447   0.068  11.531  0.4270 -0.1001 -0.4172
13725TIP3    H162666   4.358   0.042  11.508  1.0331  0.0713 -3.4664
13725TIP3    H262667   4.438   0.116  11.613 -2.2136 -0.4492 -0.4141
13726TIP3   OH262668   2.728   1.090   1.431  0.2197 -0.1283 -0.3234
13726TIP3    H162669   2.794   1.064   1.495 -0.5221 -2.2312 -0.3389
13726TIP3    H262670   2.645   1.079   1.478 -0.1935  2.7592 -0.1898
13727TIP3   OH262671   4.758   1.227  13.380 -0.4523 -0.2778  0.4508
13727TIP3    H162672   4.782   1.317  13.402 -0.0371  0.3077 -2.0689
13727TIP3    H262673   4.686   1.206  13.440 -0.0472  1.4317  1.6107
13728TIP3   OH262674   4.495   2.215   0.917  0.2551 -0.1015 -0.4403
13728TIP3    H162675   4.407   2.243   0.895  0.4100  0.4962 -0.3254
13728TIP3    H262676   4.526   2.169   0.839 -0.5239 -1.2308 -0.1044
13729TIP3   OH262677   6.212   4.346   1.824 -0.2914  0.1206  0.2547
13729TIP3    H162678   6.172   4.275   1.774 -0.8091  0.7510 -0.2396
13729TIP3    H262679   6.198   4.425   1.770 -1.5028  0.9455  1.6983
13730TIP3   OH262680   6.824   1.079  12.615  0.8212 -0.8983  0.4795
13730TIP3    H162681   6.858   0.991  12.631  0.6908 -0.6670  2.3629
13730TIP3    H262682   6.755   1.090  12.681  1.1280  0.7703  0.5723
13731TIP3   OH262683   6.581   0.225   2.945  0.1681 -0.0768 -0.0492
13731TIP3    H162684   6.547   0.227   2.855  1.8442 -0.8668 -0.7328
13731TIP3    H262685   6.514   0.270   2.996 -0.1127  1.7954 -1.9204
13732TIP3   OH262686   0.493   4.603  16.105 -0.3132 -0.0941  0.1835
13732TIP3    H162687   0.578   4.566  16.128 -0.7045 -0.7817  0.5345
13732TIP3    H262688   0.436   4.527  16.091 -1.1737  0.3584  1.0912
13733TIP3   OH262689   4.431   0.080   3.553 -0.2782  0.1075 -0.1168
13733TIP3    H162690   4.340   0.099   3.573 -0.3214  1.2676 -1.2374
13733TIP3    H262691   4.475   0.166   3.558  1.2344 -0.7005  2.5580
13734TIP3   OH262692   2.407   6.706   1.583 -0.1914 -0.1217  0.4658
13734TIP3    H162693   2.386   6.617   1.555 -1.3483 -0.0606  1.0744
13734TIP3    H262694   2.424   6.753   1.502  0.6084 -0.9178  0.1451
13735TIP3   OH262695   4.808   5.534   4.080  0.5224  0.0151  0.1992
13735TIP3    H162696   4.860   5.475   4.134 -2.2102 -1.8208  1.0337
13735TIP3    H262697   4.870   5.600   4.049  3.0151 -1.2661  2.1515
13736TIP3   OH262698   1.248   2.588   5.428 -0.4599 -0.3436 -0.1869
13736TIP3    H162699   1.254   2.667   5.374 -0.8839  0.0520  0.3348
13736TIP3    H262700   1.172   2.604   5.485  0.0778 -0.6751  0.6407
13737TIP3   OH262701   5.011   2.564  14.005 -0.4307 -0.1014  0.6000
13737TIP3    H162702   4.980   2.587  13.917  1.1607 -1.7780 -0.4685
13737TIP3    H262703   4.971   2.478  14.023  1.1400 -0.8982  0.4490
13738TIP3   OH262704   1.499   1.819   0.047  0.0218 -0.0880  0.0882
13738TIP3    H162705   1.489   1.845   0.139  1.4353  0.9761 -0.0088
13738TIP3    H262706   1.493   1.901  -0.002 -2.6743 -0.8399 -1.0212
13739TIP3   OH262707   3.768   4.041  16.120  0.1343  0.9120 -0.6639
13739TIP3    H162708   3.681   4.075  16.100 -0.9577 -1.4223 -0.1263
13739TIP3    H262709   3.756   3.987  16.198  2.1953  0.9664 -0.2482
13740TIP3   OH262710   1.151   5.001  14.803  0.0081  0.0352  0.1656
13740TIP3    H162711   1.075   5.037  14.757 -0.8053  0.5893  1.8873
13740TIP3    H262712   1.133   4.907  14.811 -0.8606  0.2773  1.1965
13741TIP3   OH262713   0.935   4.639   4.966  0.3831  0.6277  0.0981
13741TIP3    H162714   0.885   4.561   4.993  1.7106 -0.4319 -0.3870
13741TIP3    H262715   0.898   4.710   5.018  0.6047 -0.7186  2.2090
13742TIP3   OH262716   4.212   3.159  10.855  0.3864 -0.4448  0.0963
13742TIP3    H162717   4.297   3.139  10.815 -0.1273 -0.2310 -1.1431
13742TIP3    H262718   4.164   3.205  10.787 -1.0940 -1.4354  0.4255
13743TIP3   OH262719   3.879   2.786  16.437 -0.1780  0.1153  0.3168
13743TIP3    H162720   3.910   2.801  16.526 -1.4984 -1.4557  1.1061
13743TIP3    H262721   3.935   2.716  16.404 -0.7134 -0.4268  0.5318
13744TIP3   OH262722   1.573   4.195   2.086 -0.1491  0.0918 -0.6592
13744TIP3    H162723   1.481   4.184   2.062 -0.7351  1.8845  0.5917
13744TIP3    H262724   1.581   4.153   2.171  0.6646 -1.6113 -1.5202
13745TIP3   OH262725   4.381   0.807  14.518  0.7324  0.5962 -0.3261
13745TIP3    H162726   4.352   0.834  14.605  0.7090 -0.5560  0.0368
13745TIP3    H262727   4.444   0.738  14.534 -2.5474 -2.9558 -1.1970
13746TIP3   OH262728   2.674   0.419  11.940  0.4646  0.7751 -0.6359
13746TIP3    H162729   2.748   0.478  11.953  0.2137  0.7029  1.5923
13746TIP3    H262730   2.642   0.401  12.029 -0.9606 -0.8104 -1.4082
13747TIP3   OH262731   5.998   3.398  12.773  0.1752 -0.0284  0.0924
13747TIP3    H162732   5.964   3.409  12.684 -1.3789  1.0677  0.7829
13747TIP3    H262733   6.045   3.479  12.791  1.2733 -0.6205 -0.0375
13748TIP3   OH262734   5.572   1.464   3.968  0.0051  0.7093 -0.1835
13748TIP3    H162735   5.557   1.413   3.888  0.5603  1.4803 -0.8007
13748TIP3    H262736   5.639   1.416   4.016 -1.6261 -0.7402  0.7441
13749TIP3   OH262737   5.855   3.887  12.093  0.2239  0.0189  0.6064
13749TIP3    H162738   5.808   3.925  12.019 -0.5995 -3.2425 -0.7349
13749TIP3    H262739   5.912   3.957  12.124  0.3575  1.6804 -2.8933
13750TIP3   OH262740   5.543   1.074   2.254  0.0089 -0.0894  0.1873
13750TIP3    H162741   5.606   1.086   2.183 -0.7522  0.6414 -0.3838
13750TIP3    H262742   5.477   1.015   2.218 -0.7050  0.7706  0.0655
13751TIP3   OH262743   1.540   3.281   6.682 -0.5628  0.5686  0.4152
13751TIP3    H162744   1.527   3.357   6.738  0.8604 -0.5648  2.4248
13751TIP3    H262745   1.466   3.223   6.702 -0.4378  0.4652  0.5767
13752TIP3   OH262746   2.278   2.641  16.052 -0.6008 -0.1967 -0.4555
13752TIP3    H162747   2.203   2.695  16.030 -1.1949 -0.5524  0.6493
13752TIP3    H262748   2.311   2.676  16.134 -0.7541 -1.2485  0.0750
13753TIP3   OH262749   3.037   0.539   5.519  0.8179 -0.5020  0.1455
13753TIP3    H162750   3.027   0.558   5.612 -0.2907 -0.8220  0.1059
13753TIP3    H262751   3.090   0.612   5.485 -1.8842  1.6854  0.3211
13754TIP3   OH262752   0.795   1.770   4.013  0.2653 -0.7154  0.2458
13754TIP3    H162753   0.838   1.854   3.999 -0.5367 -0.3987 -0.4140
13754TIP3    H262754   0.843   1.730   4.086  0.0841  0.7295  1.2077
13755TIP3   OH262755   5.871   1.712   6.474  0.2027  0.5050  0.1031
13755TIP3    H162756   5.804   1.676   6.533  1.4547 -0.2118  1.1269
13755TIP3    H262757   5.843   1.803   6.460 -1.1115  0.1579  0.3054
13756TIP3   OH262758   4.556   3.878  11.033  0.3254  0.1323 -0.6524
13756TIP3    H162759   4.529   3.968  11.017  0.3871  0.3921  0.5503
13756TIP3    H262760   4.626   3.862  10.971 -1.2269  0.1115 -2.4787
13757TIP3   OH262761   4.031   6.130   5.303 -0.8343  0.3149  0.6390
13757TIP3    H162762   3.943   6.120   5.341 -0.2076 -2.1961  1.6474
13757TIP3    H262763   4.019   6.108   5.210 -1.6394  2.4306  0.1767
13758TIP3   OH262764   6.205   3.617  12.259  0.6793 -0.4033  0.1663
13758TIP3    H162765   6.232   3.526  12.249  0.1755 -0.7392  1.6483
13758TIP3    H262766   6.115   3.619  12.224  0.0512 -0.8850  1.6860
13759TIP3   OH262767   2.796   4.277   3.815 -0.6044 -0.2401  0.7318
13759TIP3    H162768   2.844   4.196   3.831 -3.3159 -2.1144  0.1017
13759TIP3    H262769   2.726   4.277   3.880 -1.7939  0.5816 -0.4897
13760TIP3   OH262770   4.867   5.730   3.605 -0.1464  0.0148 -0.3292
13760TIP3    H162771   4.803   5.701   3.670  0.0765 -0.6643 -0.4017
13760TIP3    H262772   4.949   5.739   3.654 -0.0159 -0.3380 -0.4804
13761TIP3   OH262773   5.691   6.815   4.086 -0.1226 -0.5315  0.3557
13761TIP3    H162774   5.679   6.724   4.113  0.2961 -1.1919 -1.5504
13761TIP3    H262775   5.728   6.810   3.998 -1.9861  1.4681 -0.6447
13762TIP3   OH262776   3.191   0.304  11.338  0.1734 -0.5607  0.7681
13762TIP3    H162777   3.105   0.337  11.310  0.7798 -0.6019 -1.3726
13762TIP3    H262778   3.191   0.212  11.311  0.6635 -0.7265  1.3210
13763TIP3   OH262779   3.595   4.038   4.315 -0.3087 -0.3180  0.8223
13763TIP3    H162780   3.637   3.988   4.384 -2.8467 -1.9081  1.3682
13763TIP3    H262781   3.648   4.117   4.306  2.3616 -1.8865  1.7746
13764TIP3   OH262782   0.751   6.272  12.604  0.4466 -0.8156 -0.7640
13764TIP3    H162783   0.824   6.314  12.560  0.8641  0.0639  0.7338
13764TIP3    H262784   0.790   6.226  12.678 -0.4307 -0.9808 -0.3932
13765TIP3   OH262785   6.154   3.720  14.864 -0.3152 -0.2529 -0.5297
13765TIP3    H162786   6.075   3.688  14.821 -0.7743 -0.6971  0.6258
13765TIP3    H262787   6.224   3.703  14.800 -1.0762 -0.2155 -1.3997
13766TIP3   OH262788   0.586   3.795  12.238 -0.1724 -0.9805  0.2324
13766TIP3    H162789   0.617   3.708  12.212  0.1931 -0.9909  0.6938
13766TIP3    H262790   0.666   3.843  12.260 -0.2851 -0.2041 -0.9609
13767TIP3   OH262791   3.429   5.656  13.570  0.1676  0.8800  0.0910
13767TIP3    H162792   3.489   5.691  13.504 -0.1899  1.7804  0.2292
13767TIP3    H262793   3.433   5.561  13.558 -0.2716  1.0451 -1.5609
13768TIP3   OH262794   0.214   1.094   5.375  0.2497  0.0633  0.1714
13768TIP3    H162795   0.211   1.043   5.294  0.3268  1.6433 -0.8799
13768TIP3    H262796   0.278   1.164   5.357  1.5306 -0.4867  2.1930
13769TIP3   OH262797   2.595   5.497  13.131 -0.4470 -0.5268 -0.1946
13769TIP3    H162798   2.637   5.411  13.126 -1.8494 -1.3592  1.1747
13769TIP3    H262799   2.633   5.537  13.210  1.2539  0.7707 -1.5951
13770TIP3   OH262800   2.646   2.735  15.703  0.1144  0.1758 -0.3081
13770TIP3    H162801   2.725   2.687  15.729  0.4457  0.3719 -0.9382
13770TIP3    H262802   2.664   2.825  15.728  0.2419  0.2843 -0.7875
13771TIP3   OH262803   5.014   3.760  11.909 -0.0237 -0.3112  0.2490
13771TIP3    H162804   4.994   3.729  11.820  2.0066 -1.4927  0.1460
13771TIP3    H262805   5.102   3.728  11.926  0.5837  1.9800  1.7922
13772TIP3   OH262806   3.687   5.893   4.977 -0.0309 -0.0594  0.3114
13772TIP3    H162807   3.635   5.947   4.917 -0.0314 -1.4767 -1.0368
13772TIP3    H262808   3.700   5.811   4.930 -1.1536 -1.7731  2.7769
13773TIP3   OH262809   4.621   5.255  17.269  0.1172  0.1832 -0.5259
13773TIP3    H162810   4.561   5.226  17.337  0.9060  0.6306  0.3805
13773TIP3    H262811   4.570   5.251  17.188 -0.4865 -1.4430 -0.0829
13774TIP3   OH262812   4.867   3.300   2.542  0.4053  0.0589  0.9147
13774TIP3    H162813   4.831   3.355   2.611 -1.0951 -0.6498  0.7240
13774TIP3    H262814   4.878   3.214   2.582 -0.6455 -0.4054  0.2618
13775TIP3   OH262815   1.217   4.110   3.438  0.2198  0.1310  0.0956
13775TIP3    H162816   1.199   4.134   3.347  0.1137 -1.5584 -0.3702
13775TIP3    H262817   1.141   4.059   3.465 -1.4909  3.4959  2.3842
13776TIP3   OH262818   0.870   1.167  16.372  0.1905  0.3872 -0.3986
13776TIP3    H162819   0.960   1.163  16.340 -0.3029 -0.1291 -1.7963
13776TIP3    H262820   0.825   1.224  16.309 -0.8092 -0.6440 -0.6512
13777TIP3   OH262821   6.185   5.009   4.377 -0.0056 -0.2609  0.1496
13777TIP3    H162822   6.188   5.043   4.466  1.2452  1.2609 -0.4353
13777TIP3    H262823   6.108   5.050   4.337 -2.3922 -3.2444  1.3318
13778TIP3   OH262824   2.444   2.449   0.702  0.0898 -0.4442  0.3507
13778TIP3    H162825   2.445   2.532   0.749  1.3907 -0.7793  0.9381
13778TIP3    H262826   2.507   2.461   0.631  0.5634 -1.0492  0.6603
13779TIP3   OH262827   1.329   1.809  14.004 -0.1907 -0.3239 -0.6857
13779TIP3    H162828   1.267   1.737  14.008 -0.9252  0.2355 -1.5784
13779TIP3    H262829   1.277   1.887  14.019  0.7074 -0.0017  0.9200
13780TIP3   OH262830   0.780   2.915   2.177 -0.5816 -0.1009  0.1000
13780TIP3    H162831   0.818   2.919   2.090  0.5177  1.9696  0.6156
13780TIP3    H262832   0.693   2.954   2.168 -0.5517 -0.0870 -0.1125
13781TIP3   OH262833   4.195   2.045  14.393 -0.2323 -0.3246 -0.2883
13781TIP3    H162834   4.242   2.012  14.316 -0.8114 -2.1870  0.1115
13781TIP3    H262835   4.108   2.067  14.360 -0.5417 -1.3018 -0.1575
13782TIP3   OH262836   1.844   0.695  12.489 -0.4343 -0.7171 -0.1052
13782TIP3    H162837   1.834   0.790  12.499 -0.5109 -0.8554  1.3959
13782TIP3    H262838   1.798   0.674  12.409 -1.0604  0.4217 -0.0617
13783TIP3   OH262839   0.901   5.802  13.767 -0.0520  0.2285  0.2895
13783TIP3    H162840   0.901   5.886  13.722  0.5864 -0.8426 -1.8525
13783TIP3    H262841   0.938   5.820  13.853  0.0782  2.1295 -0.1307
13784TIP3   OH262842   0.952   0.285   0.261  0.4023  0.1015 -0.0743
13784TIP3    H162843   0.927   0.289   0.169  0.5195  2.3627 -0.0600
13784TIP3    H262844   1.017   0.215   0.266  2.4614  1.7122 -2.2573
13785TIP3   OH262845   0.815   5.931   5.260  0.1764 -0.0740 -0.3394
13785TIP3    H162846   0.809   5.843   5.297  1.8720 -0.9159 -1.9294
13785TIP3    H262847   0.895   5.968   5.298  0.1392  0.3106 -0.6246
13786TIP3   OH262848   0.075   3.004  16.132  0.1627  0.3822 -0.1229
13786TIP3    H162849   0.084   2.928  16.073 -0.1865 -1.6387  2.2665
13786TIP3    H262850   0.084   3.080  16.074  0.9761 -1.4502 -2.5918
13787TIP3   OH262851   5.661   0.777   1.978  0.0734 -0.4406 -0.7232
13787TIP3    H162852   5.650   0.846   1.913  2.9570  0.1484 -0.6799
13787TIP3    H262853   5.587   0.717   1.962 -2.6722  2.6321 -0.6290
13788TIP3   OH262854   6.280   6.716  17.166  0.5223  0.3751  0.0858
13788TIP3    H162855   6.315   6.669  17.090 -0.2532  2.2857 -1.5082
13788TIP3    H262856   6.213   6.658  17.201 -0.1288  0.0778 -1.5850
13789TIP3   OH262857   2.505   6.299  17.018  0.6888  0.1728  0.2277
13789TIP3    H162858   2.522   6.362  16.948  0.4170  0.1133  0.1089
13789TIP3    H262859   2.458   6.227  16.976  1.5997 -0.4356  0.2177
13790TIP3   OH262860   3.407   3.843   3.682  0.0732  0.3789  0.4128
13790TIP3    H162861   3.399   3.780   3.753 -0.6116 -0.7517 -0.6076
13790TIP3    H262862   3.467   3.802   3.620 -0.4232  0.6888 -0.2944
13791TIP3   OH262863   5.824   6.698   3.865 -0.1769 -0.0420  0.1574
13791TIP3    H162864   5.914   6.669   3.879  0.5604  1.3569 -1.4118
13791TIP3    H262865   5.783   6.627   3.815  0.0559 -0.6501  0.8173
13792TIP3   OH262866   0.576   5.423   1.778  0.6762  0.3787 -0.1097
13792TIP3    H162867   0.621   5.365   1.839  1.6386  1.5991  0.3822
13792TIP3    H262868   0.624   5.413   1.696  2.7464  2.5949  0.7260
13793TIP3   OH262869   1.816   1.239  12.854 -0.0665  0.1976  0.2774
13793TIP3    H162870   1.756   1.310  12.832  0.6627  0.4395 -0.9725
13793TIP3    H262871   1.849   1.262  12.941 -1.3400  0.3457  0.7483
13794TIP3   OH262872   6.075   3.683   0.328  0.0807 -0.4127  0.0952
13794TIP3    H162873   6.019   3.722   0.395  2.2962 -0.1028  1.9061
13794TIP3    H262874   6.048   3.591   0.325 -3.3158  0.4710 -2.2242
13795TIP3   OH262875   2.638   3.851  14.066 -0.4175 -0.7456 -0.5728
13795TIP3    H162876   2.617   3.800  13.987  0.1832 -1.2794 -0.3988
13795TIP3    H262877   2.629   3.942  14.039  0.2154 -0.9113 -1.3969
13796TIP3   OH262878   0.935   6.571  12.318  0.2784  0.2011 -0.0869
13796TIP3    H162879   0.843   6.559  12.342  0.7625 -0.7366  1.4532
13796TIP3    H262880   0.935   6.646  12.258 -1.5164  0.0073 -0.3674
13797TIP3   OH262881   1.821   0.803   0.217  0.1540 -0.4383  0.5271
13797TIP3    H162882   1.778   0.784   0.133 -1.5100 -1.0842  1.4822
13797TIP3    H262883   1.856   0.891   0.207 -1.0756 -0.0386 -0.4473
13798TIP3   OH262884   3.947   1.248  14.108 -0.0390  0.2212  0.2820
13798TIP3    H162885   3.964   1.307  14.181 -1.2932  0.6754  0.2334
13798TIP3    H262886   3.930   1.306  14.033  3.5484 -0.2031 -1.0362
13799TIP3   OH262887   1.334   3.149   0.011  0.3133 -0.0325  0.4915
13799TIP3    H162888   1.430   3.146   0.010  0.5100  2.8586 -0.1155
13799TIP3    H262889   1.313   3.235  -0.027 -2.4732  0.0022  1.8743
13800TIP3   OH262890   6.038   3.260  16.081 -0.6322  0.1929  0.4812
13800TIP3    H162891   6.006   3.190  16.025 -0.4174  0.8060 -0.4413
13800TIP3    H262892   6.133   3.249  16.081 -0.5273  0.9591 -0.3532
13801TIP3   OH262893   1.004   0.274   5.113  0.5042 -0.9411  0.1930
13801TIP3    H162894   0.943   0.212   5.073 -0.1930  0.1523 -0.4839
13801TIP3    H262895   0.956   0.311   5.187  0.2242  0.0861 -0.4743
13802TIP3   OH262896   3.537   6.423  13.188 -0.2616 -0.3035  0.3966
13802TIP3    H162897   3.472   6.358  13.216 -2.6724  2.1068  0.9067
13802TIP3    H262898   3.523   6.497  13.247  0.5842  1.6247 -1.6729
13803TIP3   OH262899   2.454   5.521  13.406 -0.1275  0.1870  0.7970
13803TIP3    H162900   2.405   5.451  13.365  2.4046 -1.3783  0.1914
13803TIP3    H262901   2.527   5.477  13.450  0.2251  2.2577  2.4749
13804TIP3   OH262902   1.628   0.546   1.763  0.0797 -0.4522  0.9870
13804TIP3    H162903   1.716   0.582   1.760  0.6671 -1.8591  0.1144
13804TIP3    H262904   1.631   0.480   1.832 -0.9693  1.0500  2.5559
13805TIP3   OH262905   2.711   4.956   5.624  0.3368  0.7706 -0.3029
13805TIP3    H162906   2.734   4.864   5.637  0.6360  0.9303  0.3415
13805TIP3    H262907   2.774   5.004   5.677  0.3303  1.3634 -0.8222
13806TIP3   OH262908   3.692   4.011   5.563  0.0549 -0.8546 -0.3091
13806TIP3    H162909   3.750   4.057   5.502  0.3692 -1.0204 -0.1390
13806TIP3    H262910   3.749   3.947   5.606 -0.2689 -1.0607 -0.1835
13807TIP3   OH262911   0.233   1.740  15.221 -0.6312 -0.4091 -0.1706
13807TIP3    H162912   0.208   1.689  15.144  1.3314 -0.0900 -1.0943
13807TIP3    H262913   0.240   1.830  15.189  1.9425 -0.5171 -0.1621
13808TIP3   OH262914   6.170   2.228  15.411  0.5294  0.8590  0.4094
13808TIP3    H162915   6.172   2.303  15.352  1.8138  0.8921  0.4735
13808TIP3    H262916   6.086   2.236  15.457 -0.7917  0.4836 -1.7982
13809TIP3   OH262917   6.574   1.394  13.959 -0.3889  0.7203  0.2158
13809TIP3    H162918   6.521   1.358  13.888  0.7503  0.0894 -0.3421
13809TIP3    H262919   6.564   1.489  13.951 -2.7172  0.6090  1.1506
13810TIP3   OH262920   3.396   6.293  14.422  0.0338  0.2429 -0.0805
13810TIP3    H162921   3.314   6.325  14.461 -0.8875 -0.6764 -1.1725
13810TIP3    H262922   3.373   6.207  14.387  1.8289 -0.6144  0.7258
13811TIP3   OH262923   1.988   6.418  17.171  0.0538 -0.7110 -0.4935
13811TIP3    H162924   2.024   6.479  17.235 -4.1730  0.2084  1.4029
13811TIP3    H262925   2.024   6.333  17.196  0.8481  0.0696  1.2132
13812TIP3   OH262926   3.028   1.632   3.938 -0.1998  0.1518  0.8763
13812TIP3    H162927   2.993   1.551   3.901 -2.2619  1.8358 -1.1634
13812TIP3    H262928   3.122   1.628   3.919 -0.3303 -1.5610  0.4565
13813TIP3   OH262929   2.331   3.634   1.052  0.0783  0.3979  0.3183
13813TIP3    H162930   2.337   3.719   1.094 -0.5604  0.3579  0.4917
13813TIP3    H262931   2.325   3.572   1.125 -2.2157  0.4088  0.2034
13814TIP3   OH262932   4.352   4.014   5.949 -0.1041 -0.1179  0.1435
13814TIP3    H162933   4.268   4.021   5.995  0.4299 -0.5070  1.2055
13814TIP3    H262934   4.417   4.009   6.019  0.5863 -2.6312 -0.5709
13815TIP3   OH262935   1.016   3.247   3.275 -0.6181  0.1088 -0.7033
13815TIP3    H162936   1.009   3.334   3.315 -1.1899 -0.8092  1.3632
13815TIP3    H262937   1.047   3.264   3.186 -0.6003  2.4050 -0.3355
13816TIP3   OH262938   6.465   1.979   2.201  0.0731 -0.2006  0.1758
13816TIP3    H162939   6.464   2.053   2.262  2.3891  0.0290  0.0141
13816TIP3    H262940   6.547   1.988   2.153 -0.9081 -1.3085 -1.8499
13817TIP3   OH262941   3.383   4.799   2.725 -0.5375 -0.0967 -0.0918
13817TIP3    H162942   3.429   4.863   2.671 -0.4909 -1.2379 -1.4804
13817TIP3    H262943   3.294   4.833   2.733 -0.3742  0.3942 -0.3599
13818TIP3   OH262944   1.614   3.263  17.294  0.2039  0.2374 -0.4931
13818TIP3    H162945   1.689   3.206  17.280  0.6018  1.2206 -2.8318
13818TIP3    H262946   1.652   3.346  17.324 -0.0180  0.4360 -0.7513
13819TIP3   OH262947   4.297   2.201  14.603  0.1042  0.3536 -0.0644
13819TIP3    H162948   4.270   2.292  14.591 -0.5833  0.2153  0.3809
13819TIP3    H262949   4.271   2.158  14.522 -0.2452  0.4011  0.0213
13820TIP3   OH262950   3.525   3.634  16.972  0.6558  0.5845  0.6205
13820TIP3    H162951   3.523   3.729  16.988  0.8630  0.7363 -0.2410
13820TIP3    H262952   3.611   3.617  16.936  0.5866  0.0751  0.6894
13821TIP3   OH262953   2.263   6.320  11.648 -0.7282  0.6407  0.4742
13821TIP3    H162954   2.307   6.346  11.729 -1.1806  0.3860  0.8059
13821TIP3    H262955   2.182   6.278  11.677 -0.0423 -1.1278 -0.0385
13822TIP3   OH262956   2.754   6.072   5.147  0.4119 -0.7862 -0.0780
13822TIP3    H162957   2.793   5.985   5.141  3.9837  0.6241  0.2338
13822TIP3    H262958   2.813   6.129   5.098  0.3323  2.0241  2.7364
13823TIP3   OH262959   6.156   3.032  14.304  0.0990 -0.1376 -0.2291
13823TIP3    H162960   6.213   3.062  14.375 -0.8235 -0.8167  0.8289
13823TIP3    H262961   6.080   3.090  14.309 -0.3378 -0.7113 -0.1096
13824TIP3   OH262962   3.485   4.827   4.793 -0.2018 -0.1327 -0.2819
13824TIP3    H162963   3.509   4.916   4.765 -0.6749  0.3366  0.7689
13824TIP3    H262964   3.489   4.830   4.888 -3.2330 -0.3743 -0.0666
13825TIP3   OH262965   4.817   2.169   1.385 -0.3435  0.1782  0.2475
13825TIP3    H162966   4.782   2.258   1.396 -1.0578  0.0696 -0.9650
13825TIP3    H262967   4.740   2.116   1.364  0.0437 -0.7862  1.1971
13826TIP3   OH262968   3.097   1.019  16.903 -0.5237  0.1696  0.0992
13826TIP3    H162969   3.068   1.017  16.812  0.7548  0.0448 -0.3263
13826TIP3    H262970   3.124   1.110  16.918 -1.0504  0.2712  0.4684
13827TIP3   OH262971   1.253   1.342  13.973  0.5446 -0.3050 -0.0537
13827TIP3    H162972   1.277   1.257  14.010  0.6495 -1.0982 -1.8149
13827TIP3    H262973   1.331   1.370  13.925 -0.5239 -0.8598 -2.2603
13828TIP3   OH262974   1.817   4.346   3.186 -0.0617 -0.6339 -0.0834
13828TIP3    H162975   1.783   4.434   3.168  1.9578  0.1303 -0.4182
13828TIP3    H262976   1.765   4.288   3.129 -1.2887  0.3447 -0.0060
13829TIP3   OH262977   1.552   3.666   1.778  0.2495 -0.1368 -0.5857
13829TIP3    H162978   1.497   3.739   1.751  0.1023  0.5847  1.4541
13829TIP3    H262979   1.589   3.693   1.862  1.5411 -1.7359 -0.5750
13830TIP3   OH262980   2.372   1.314  14.397 -0.1533 -0.0057 -0.5018
13830TIP3    H162981   2.285   1.274  14.406 -0.6312  1.0076 -0.4826
13830TIP3    H262982   2.409   1.273  14.319 -0.8579 -0.0924 -0.8002
13831TIP3   OH262983   2.483   3.614   4.945  0.0081 -0.2495 -0.4952
13831TIP3    H162984   2.467   3.612   5.039  0.6167 -1.6261 -0.4036
13831TIP3    H262985   2.398   3.637   4.907 -0.5137 -0.7525  0.3418
13832TIP3   OH262986   1.774   5.355   2.836 -0.0076 -0.3402  0.0331
13832TIP3    H162987   1.748   5.367   2.927 -0.3521  0.3399 -0.1522
13832TIP3    H262988   1.692   5.341   2.789 -0.0042  1.1090 -0.4451
13833TIP3   OH262989   5.968   2.088  11.132 -0.1650 -0.3037 -0.5603
13833TIP3    H162990   6.015   2.103  11.050  0.4367 -2.2415 -0.6276
13833TIP3    H262991   5.896   2.029  11.108  0.0855 -0.9856  0.2974
13834TIP3   OH262992   2.823   3.519  12.620 -0.0418 -0.1067 -0.1285
13834TIP3    H162993   2.817   3.563  12.535 -3.6590 -2.1113 -1.0983
13834TIP3    H262994   2.844   3.428  12.600  2.8965  0.0823  1.5227
13835TIP3   OH262995   6.127   5.111   3.942  0.3530 -0.3482  0.2001
13835TIP3    H162996   6.148   5.200   3.970 -1.8911  0.2384  0.2334
13835TIP3    H262997   6.181   5.096   3.864  1.3755  0.7156  0.6897
13836TIP3   OH262998   2.476   0.757  11.055 -0.6421  0.0950  0.0565
13836TIP3    H162999   2.453   0.668  11.079  2.6508 -0.4555  1.6629
13836TIP3    H263000   2.451   0.765  10.963  0.5265 -3.0721 -0.6296
13837TIP3   OH263001   1.786   4.047   6.788  0.3029  0.0212  0.2638
13837TIP3    H163002   1.833   4.097   6.855  0.7455  0.8867 -0.6664
13837TIP3    H263003   1.829   4.070   6.706  0.0544 -1.3643 -0.2848
13838TIP3   OH263004   5.461   6.787   5.978  0.5835 -0.4027  0.1621
13838TIP3    H163005   5.418   6.779   5.893  0.2696 -1.8387  0.4256
13838TIP3    H263006   5.532   6.850   5.963  0.0465 -0.0234 -0.9463
13839TIP3   OH263007   4.689   1.843  14.106 -1.0146  0.2121 -0.0387
13839TIP3    H163008   4.691   1.771  14.043  0.1436  0.2697 -0.0833
13839TIP3    H263009   4.598   1.871  14.107 -1.1758 -0.2321 -1.1848
13840TIP3   OH263010   0.072   0.945  11.535  0.5419  0.7079  0.2608
13840TIP3    H163011   0.069   0.901  11.450 -0.7555 -1.2362  1.2698
13840TIP3    H263012   0.065   1.038  11.513  2.0884  0.4143 -1.8520
13841TIP3   OH263013   0.642   3.510   6.215 -0.2834  0.7407 -0.1374
13841TIP3    H163014   0.601   3.431   6.178  0.1252  1.4328 -2.1797
13841TIP3    H263015   0.736   3.490   6.215 -0.1768  1.2341 -0.6929
13842TIP3   OH263016   1.115   5.494  16.753  0.2619  0.1466  0.0871
13842TIP3    H163017   1.208   5.469  16.755  0.1568 -0.2663  1.5633
13842TIP3    H263018   1.092   5.495  16.660  1.7257  0.1987 -0.2989
13843TIP3   OH263019   1.275   6.275  11.556  0.4700 -0.3210 -0.7247
13843TIP3    H163020   1.300   6.237  11.639  0.1833  0.7773 -0.1140
13843TIP3    H263021   1.215   6.211  11.517 -2.4788  0.7666  1.6542
13844TIP3   OH263022   0.797   2.647  13.844 -0.5005  0.1516 -0.2365
13844TIP3    H163023   0.797   2.615  13.934 -1.3625  1.3267  0.2084
13844TIP3    H263024   0.817   2.570  13.791 -0.2793 -0.6231  0.9358
13845TIP3   OH263025   1.907   1.326   1.945 -0.0470 -0.3471 -0.0219
13845TIP3    H163026   1.860   1.379   2.010 -2.0425  2.5100 -3.4464
13845TIP3    H263027   1.992   1.369   1.936 -0.5920  0.5861 -0.7961
13846TIP3   OH263028   3.167   6.151   4.501  0.4422 -0.4616 -0.0225
13846TIP3    H163029   3.226   6.168   4.574 -1.2305  1.0949  1.0499
13846TIP3    H263030   3.091   6.109   4.541  0.1330 -1.0041 -1.1329
13847TIP3   OH263031   6.447   6.232  15.487 -0.3094  0.0362  0.0320
13847TIP3    H163032   6.540   6.217  15.507 -0.5727 -0.6743  0.8110
13847TIP3    H263033   6.434   6.191  15.402  0.3164  1.0632 -0.5864
13848TIP3   OH263034   2.097   0.835  13.229 -0.4958 -0.0560 -0.8720
13848TIP3    H163035   2.132   0.880  13.152  0.1716 -0.9523 -1.1074
13848TIP3    H263036   2.129   0.886  13.303  1.4498 -0.8911 -1.0721
13849TIP3   OH263037   1.414   2.879  15.910  0.2089 -0.1932 -0.4488
13849TIP3    H163038   1.450   2.874  15.822 -0.8817 -2.5126 -0.8383
13849TIP3    H263039   1.319   2.874  15.898 -0.3856  4.4109  0.6271
13850TIP3   OH263040   4.859   5.422  16.494  0.0185 -0.4822 -0.1209
13850TIP3    H163041   4.827   5.332  16.482  1.2485 -0.9036 -0.3706
13850TIP3    H263042   4.820   5.450  16.576 -2.5507 -0.2578 -1.3218
13851TIP3   OH263043   6.538   2.382  16.322 -0.3465 -0.0559 -0.5204
13851TIP3    H163044   6.608   2.414  16.266 -0.6190  1.2868 -0.1464
13851TIP3    H263045   6.582   2.336  16.393  0.0230 -1.3003 -1.5269
13852TIP3   OH263046   4.879   2.032  15.148  0.1050  0.1437  0.6365
13852TIP3    H163047   4.924   1.968  15.203 -0.0091  0.1421  0.7288
13852TIP3    H263048   4.789   2.002  15.145 -0.0524  0.5694  1.0805
13853TIP3   OH263049   5.999   3.420  15.855 -0.4359 -0.2025  0.1411
13853TIP3    H163050   6.000   3.375  15.939  1.3766 -1.0010 -0.2422
13853TIP3    H263051   5.946   3.498  15.869 -0.8159 -0.7304  1.7924
13854TIP3   OH263052   0.852   4.305  10.776  0.0964 -0.2291 -0.2730
13854TIP3    H163053   0.891   4.392  10.786 -1.7977  0.5126  1.2645
13854TIP3    H263054   0.848   4.270  10.865 -2.7407 -0.2011 -0.3036
13855TIP3   OH263055   2.757   1.996   2.548 -0.5529  0.4032  0.6049
13855TIP3    H163056   2.714   1.956   2.624  2.0762  0.1436  2.0909
13855TIP3    H263057   2.740   1.935   2.476 -2.2017  0.0881  1.2311
13856TIP3   OH263058   4.233   4.002  17.139  0.4075  0.7265  0.4852
13856TIP3    H163059   4.210   4.094  17.129  1.9932  1.0285 -0.7586
13856TIP3    H263060   4.318   3.994  17.096  0.2119 -1.3686  0.4046
13857TIP3   OH263061   4.945   1.509   3.892  0.5336 -0.5357 -0.3204
13857TIP3    H163062   4.879   1.535   3.956  0.3034 -0.5255 -0.5585
13857TIP3    H263063   5.013   1.466   3.944 -0.5661 -2.3532 -0.2675
13858TIP3   OH263064   6.716   6.414   3.419 -0.7663 -0.0269 -0.4087
13858TIP3    H163065   6.708   6.485   3.355  1.2957  1.7629  1.1630
13858TIP3    H263066   6.801   6.374   3.400 -0.0648  0.6202  1.2594
13859TIP3   OH263067   0.236   4.004  17.014  0.1274 -0.1866 -0.1617
13859TIP3    H163068   0.224   4.014  17.109 -0.5916 -2.8523  0.1231
13859TIP3    H263069   0.151   3.974  16.982  0.7678 -0.7821 -1.3765
13860TIP3   OH263070   4.833   5.877  14.243  0.1220 -0.6451 -0.0720
13860TIP3    H163071   4.816   5.784  14.227 -1.7442 -0.3070 -0.2631
13860TIP3    H263072   4.821   5.918  14.158 -2.0315  0.1254  0.5363
13861TIP3   OH263073   0.970   6.249   5.607 -0.3803 -0.0441  0.9341
13861TIP3    H163074   1.023   6.226   5.683  0.3331 -0.1681  0.4164
13861TIP3    H263075   0.884   6.213   5.626  0.4149 -2.2965  0.6338
13862TIP3   OH263076   0.130   4.208   6.623 -0.1774  0.0985  0.3788
13862TIP3    H163077   0.171   4.221   6.538 -2.2632  1.2238 -0.5309
13862TIP3    H263078   0.201   4.177   6.680  1.4732  0.2429 -1.5051
13863TIP3   OH263079   3.837   5.903   5.448  0.0096 -0.4852 -0.1851
13863TIP3    H163080   3.758   5.931   5.402 -0.7644  0.4010  1.6080
13863TIP3    H263081   3.806   5.868   5.531  1.4100 -1.5697 -0.0843
13864TIP3   OH263082   4.506   5.193  12.151 -0.3772  0.6253  0.0097
13864TIP3    H163083   4.445   5.253  12.107  0.5110  0.9686 -0.7956
13864TIP3    H263084   4.521   5.233  12.236 -0.9794  0.7383  0.0675
13865TIP3   OH263085   2.772   6.045  16.125  0.0392  0.3940 -0.2988
13865TIP3    H163086   2.859   6.034  16.087  0.4995 -0.5498  0.9540
13865TIP3    H263087   2.712   6.027  16.053  0.8549  1.6048 -1.3313
13866TIP3   OH263088   2.212   3.464  15.466 -0.1190 -0.6636 -0.3782
13866TIP3    H163089   2.202   3.499  15.554  0.2909 -1.5076  0.0213
13866TIP3    H263090   2.150   3.391  15.462 -0.8250 -0.0502 -1.1269
13867TIP3   OH263091   6.382   0.600  16.238 -0.0837 -0.3505 -0.8039
13867TIP3    H163092   6.349   0.512  16.219  0.6853 -1.2955  1.7976
13867TIP3    H263093   6.328   0.658  16.184 -1.3948 -2.2975 -1.7219
13868TIP3   OH263094   2.616   0.944  16.221 -0.2434  0.3249 -0.1268
13868TIP3    H163095   2.535   0.902  16.247 -0.4389  0.3755 -0.6572
13868TIP3    H263096   2.658   0.882  16.161 -1.1575  1.4103 -1.9629
13869TIP3   OH263097   2.699   0.500  13.890 -0.2746  0.2575  0.4648
13869TIP3    H163098   2.609   0.498  13.923 -0.6238  1.1108 -0.4001
13869TIP3    H263099   2.739   0.421  13.928 -1.5623 -0.4993  0.3427
13870TIP3   OH263100   1.632   0.373  12.704 -0.4501 -0.7320 -0.0424
13870TIP3    H163101   1.647   0.287  12.745  1.2059 -1.2634 -1.6070
13870TIP3    H263102   1.540   0.371  12.679  0.0304 -3.0643 -2.0605
13871TIP3   OH263103   2.676   1.254  12.373 -0.7475  0.0837 -0.1134
13871TIP3    H163104   2.663   1.285  12.462 -1.2012  1.3034 -0.5854
13871TIP3    H263105   2.711   1.329  12.326 -1.0886 -0.3545 -1.1079
13872TIP3   OH263106   3.025   5.618  16.743 -0.0009 -0.1813 -0.4189
13872TIP3    H163107   2.937   5.638  16.712 -1.6387 -0.3197  3.4793
13872TIP3    H263108   3.053   5.697  16.788  0.7449 -0.9606  0.5316
13873TIP3   OH263109   0.945   1.159  13.642  0.0752  0.1836  0.7709
13873TIP3    H163110   0.979   1.105  13.713  0.9284  1.2379  1.2010
13873TIP3    H263111   1.004   1.235  13.640  0.2378  0.0699 -1.2192
13874TIP3   OH263112   0.346   3.055   3.508  0.4768 -0.3033  0.1221
13874TIP3    H163113   0.293   3.004   3.569  1.0660 -1.2104 -0.0884
13874TIP3    H263114   0.390   2.989   3.455  1.4200  0.4308 -0.0374
13875TIP3   OH263115   6.119   3.003   4.695  1.1325  0.4674  0.1697
13875TIP3    H163116   6.063   3.063   4.744  1.2858 -0.2795  1.2930
13875TIP3    H263117   6.208   3.023   4.725  1.1618 -0.4964  0.7848
13876TIP3   OH263118   0.002   0.601  12.945  0.3322 -0.3006 -0.6182
13876TIP3    H163119   0.054   0.568  12.872 -0.5294 -2.3741 -0.3704
13876TIP3    H263120  -0.049   0.525  12.974  1.3501  0.1705  2.7649
13877TIP3   OH263121   1.092   4.615   1.732 -0.0574  0.2439 -0.0777
13877TIP3    H163122   1.183   4.588   1.749  0.0755  0.9307  0.3399
13877TIP3    H263123   1.073   4.580   1.646  0.7438  0.4024 -0.3347
13878TIP3   OH263124   2.721   6.095   3.327  0.3104 -0.5667 -0.9195
13878TIP3    H163125   2.683   6.008   3.335 -1.0144  0.0904  0.3671
13878TIP3    H263126   2.704   6.121   3.237 -2.1372 -0.4101 -0.4687
13879TIP3   OH263127   0.452   3.229  11.045 -0.1442 -0.0033 -0.2604
13879TIP3    H163128   0.367   3.195  11.073  0.7899 -0.4522  2.2463
13879TIP3    H263129   0.430   3.309  10.996 -1.9803  0.4074  1.1068
13880TIP3   OH263130   4.617   2.073   1.622 -0.5010 -0.5516  0.0033
13880TIP3    H163131   4.638   1.980   1.609  0.4245 -0.2194 -1.0633
13880TIP3    H263132   4.681   2.119   1.567 -1.0081  0.7139  0.4551
13881TIP3   OH263133   2.105   3.221   1.088  0.4507 -0.4403 -0.2205
13881TIP3    H163134   2.043   3.288   1.060 -2.4032 -1.7099  2.3908
13881TIP3    H263135   2.169   3.215   1.017 -2.5535  0.8207 -3.2983
13882TIP3   OH263136   0.885   2.997   5.820  0.7063 -0.0377 -0.2863
13882TIP3    H163137   0.831   2.955   5.753  0.1356  0.5265 -0.1872
13882TIP3    H263138   0.973   2.996   5.783  0.8212 -1.7771 -0.0785
13883TIP3   OH263139   2.129   2.479   4.729 -0.3652 -0.7072  0.2676
13883TIP3    H163140   2.124   2.566   4.688 -0.5002 -0.4990  0.7230
13883TIP3    H263141   2.116   2.418   4.656 -0.7121 -0.3384  0.0138
13884TIP3   OH263142   4.058   1.095  13.010 -0.1126  0.3500 -0.7440
13884TIP3    H163143   4.056   1.177  12.961  0.4640  0.0781 -1.2412
13884TIP3    H263144   4.142   1.096  13.056  1.0590 -1.0132 -2.6744
13885TIP3   OH263145   0.679   4.927  14.000 -0.3786  0.0467 -0.7342
13885TIP3    H163146   0.627   5.001  13.968 -2.2387 -0.7998  0.1681
13885TIP3    H263147   0.629   4.849  13.976  0.5227 -0.8207  0.0756
13886TIP3   OH263148   6.581   0.649  14.811 -0.1516 -0.2111 -0.2122
13886TIP3    H163149   6.557   0.730  14.766  1.5519  0.8160  0.6374
13886TIP3    H263150   6.676   0.648  14.809  0.0308 -0.2608  3.0290
13887TIP3   OH263151   0.863   1.819  11.033  0.1447  0.0109 -0.2042
13887TIP3    H163152   0.845   1.846  10.944 -1.0053  0.0278  0.0127
13887TIP3    H263153   0.847   1.897  11.086  1.7967  0.2778 -0.0667
13888TIP3   OH263154   1.091   4.259  15.197  0.2496  0.0170 -0.0630
13888TIP3    H163155   1.017   4.314  15.169  0.7326 -0.1950 -1.9148
13888TIP3    H263156   1.169   4.308  15.169  0.7279 -0.8861 -0.3438
13889TIP3   OH263157   0.841   1.720  14.524 -0.1642  0.1047 -0.3832
13889TIP3    H163158   0.791   1.693  14.447 -1.3156 -0.5064  0.5417
13889TIP3    H263159   0.884   1.801  14.497 -2.5976  1.3273 -0.8823
13890TIP3   OH263160   4.169   2.109  11.491 -0.2888 -0.0945 -0.1328
13890TIP3    H163161   4.116   2.159  11.553 -0.0315 -0.3508  0.2993
13890TIP3    H263162   4.180   2.024  11.533  1.8974  0.4886  0.6066
13891TIP3   OH263163   1.753   5.788  13.858  0.4014 -0.0992 -0.2625
13891TIP3    H163164   1.711   5.872  13.844 -0.6141 -0.6782 -0.7980
13891TIP3    H263165   1.721   5.732  13.787  0.6471 -1.0892  0.3735
13892TIP3   OH263166   5.163   3.740  13.300  0.2244  0.2733  0.4617
13892TIP3    H163167   5.218   3.742  13.222 -0.4985 -1.3800 -0.1443
13892TIP3    H263168   5.220   3.707  13.369  0.1700 -0.9419 -0.0429
13893TIP3   OH263169   4.861   4.228   0.779 -0.2088 -0.1371  0.5445
13893TIP3    H163170   4.879   4.298   0.716 -1.7171  0.3335  0.6087
13893TIP3    H263171   4.893   4.262   0.862 -0.8107  0.4341  0.5504
13894TIP3   OH263172   5.274   1.441   5.441 -0.2465 -0.0414  0.9267
13894TIP3    H163173   5.236   1.356   5.422  0.5299 -0.5786  1.7075
13894TIP3    H263174   5.276   1.446   5.537  1.0790  0.2110  0.9068
13895TIP3   OH263175   3.044   1.750  14.674  0.0582  0.0162 -0.2460
13895TIP3    H163176   2.975   1.801  14.630  0.2726 -0.1951 -0.8268
13895TIP3    H263177   3.118   1.753  14.614  1.2600  1.9039  1.2311
13896TIP3   OH263178   6.412   3.094  15.257 -0.8342 -0.1374 -0.6165
13896TIP3    H163179   6.498   3.050  15.254 -0.6564  0.2092 -0.6554
13896TIP3    H263180   6.353   3.033  15.213 -0.5931 -0.3529 -0.6462
13897TIP3   OH263181   6.516   5.541  15.516 -0.1768 -0.3397  0.3226
13897TIP3    H163182   6.548   5.451  15.523  2.2410  0.4879  0.9610
13897TIP3    H263183   6.565   5.578  15.442 -0.7245  0.6037  0.4123
13898TIP3   OH263184   2.634   1.602   3.881  0.3423  0.0693  0.6215
13898TIP3    H163185   2.562   1.544   3.857  0.9211 -0.7117  0.7353
13898TIP3    H263186   2.630   1.672   3.816  0.4866 -0.8175 -0.3783
13899TIP3   OH263187   0.283   5.451  12.468  0.7024  0.4343  0.3565
13899TIP3    H163188   0.302   5.481  12.380 -0.1626 -0.0352 -0.0038
13899TIP3    H263189   0.327   5.367  12.476 -0.0781 -0.0177 -0.0045
13900TIP3   OH263190   6.680   3.984   3.457  0.4002 -0.0046  0.1405
13900TIP3    H163191   6.626   4.062   3.440  0.6803  0.3161  0.7250
13900TIP3    H263192   6.760   4.018   3.495  1.3419 -0.4106 -1.3686
13901TIP3   OH263193   3.283   5.748   4.359  0.0398  0.1889  0.0527
13901TIP3    H163194   3.249   5.744   4.270 -0.0193  2.1381 -0.0553
13901TIP3    H263195   3.208   5.776   4.412  0.0152 -1.1565  0.7856
13902TIP3   OH263196   2.048   6.611  11.187  0.2717  0.9663  0.2455
13902TIP3    H163197   2.112   6.543  11.210  0.7115  1.7026  1.2503
13902TIP3    H263198   2.016   6.584  11.101 -1.3043 -1.8348  1.5571
13903TIP3   OH263199   6.718   3.345   3.258 -0.2694 -0.2185 -0.1846
13903TIP3    H163200   6.763   3.293   3.324 -0.0261  0.2580  0.0283
13903TIP3    H263201   6.644   3.290   3.230 -1.1619  0.0918  1.4238
13904TIP3   OH263202   0.970   1.429   3.947  0.2052 -0.0510 -0.0350
13904TIP3    H163203   1.001   1.408   4.035 -0.6198  0.6667  0.4514
13904TIP3    H263204   0.883   1.390   3.943 -0.8262  2.0559  0.4269
13905TIP3   OH263205   2.912   6.318   4.450 -0.0252  0.4245 -0.1607
13905TIP3    H163206   2.904   6.228   4.481  0.9722  0.5398  0.5003
13905TIP3    H263207   2.864   6.320   4.367  1.3967 -1.1717 -1.0797
13906TIP3   OH263208   2.668   3.709   4.325  0.0497 -0.0695  0.3646
13906TIP3    H163209   2.593   3.764   4.348  0.5472  0.4818  0.6900
13906TIP3    H263210   2.738   3.737   4.384  1.3263  1.2478 -1.6398
13907TIP3   OH263211   5.532   6.100   6.501  0.0105  0.2834 -0.2921
13907TIP3    H163212   5.454   6.115   6.555  0.4915 -1.6338  1.0556
13907TIP3    H263213   5.592   6.170   6.527 -0.1329 -0.0393  0.9931
13908TIP3   OH263214   5.028   4.829   3.165 -0.5132 -0.0377  0.1856
13908TIP3    H163215   5.013   4.750   3.218 -1.8808 -0.6652 -1.0759
13908TIP3    H263216   5.051   4.896   3.229 -1.1213 -1.0188  1.4809
13909TIP3   OH263217   3.387   3.788   5.479  0.2395 -0.2268  0.3609
13909TIP3    H163218   3.410   3.879   5.461  1.0788 -0.4228  0.4234
13909TIP3    H263219   3.312   3.794   5.539 -1.1698  0.4201 -1.3691
13910TIP3   OH263220   1.030   3.244  14.758 -0.0171 -0.0002 -0.1071
13910TIP3    H163221   1.109   3.292  14.784 -0.6446  2.1473 -1.9263
13910TIP3    H263222   1.045   3.155  14.791  2.7036  0.5750  0.4640
13911TIP3   OH263223   2.376   2.210   2.570 -0.0555 -0.5926  0.1498
13911TIP3    H163224   2.292   2.197   2.526 -0.1981 -1.4357  0.6548
13911TIP3    H263225   2.365   2.168   2.655  0.7948 -0.4780  0.3220
13912TIP3   OH263226   4.710   5.846   1.999  0.0705 -0.0451 -0.1165
13912TIP3    H163227   4.783   5.864   2.059  1.5482 -1.0659 -1.5261
13912TIP3    H263228   4.681   5.758   2.024  0.0995 -0.1130 -0.3243
13913TIP3   OH263229   0.453   2.688  13.797  0.3126 -0.6151  0.1892
13913TIP3    H163230   0.420   2.708  13.884 -0.8434  1.4204 -0.6451
13913TIP3    H263231   0.486   2.771  13.763  0.4514 -1.2729 -1.4222
13914TIP3   OH263232   6.469   4.022   2.875  0.0614  0.0619 -0.3505
13914TIP3    H163233   6.505   3.967   2.945  0.8716  0.0901 -0.7254
13914TIP3    H263234   6.430   3.960   2.814 -0.1700 -0.0012 -0.1411
13915TIP3   OH263235   3.909   6.746  16.262  0.8045 -0.4943  0.4973
13915TIP3    H163236   3.922   6.812  16.330  1.3104  0.0102 -0.0670
13915TIP3    H263237   3.985   6.756  16.204  0.1016 -0.5100 -0.4509
13916TIP3   OH263238   1.234   6.769  13.455 -0.1070  0.2485  0.1088
13916TIP3    H163239   1.189   6.808  13.381 -0.1557  1.0502  0.5550
13916TIP3    H263240   1.313   6.823  13.467  1.1550 -1.2844 -0.8351
13917TIP3   OH263241   3.654   4.701   2.241 -0.1816  0.5733  0.1123
13917TIP3    H163242   3.736   4.717   2.287  0.0882 -2.5176  0.8751
13917TIP3    H263243   3.599   4.656   2.305 -1.6948  0.6622 -1.0558
13918TIP3   OH263244   1.660   2.187  16.901  0.4051 -0.0790 -0.1575
13918TIP3    H163245   1.633   2.277  16.916 -0.8192 -0.3838 -0.4456
13918TIP3    H263246   1.756   2.191  16.898  0.3643  1.2075 -0.1944
13919TIP3   OH263247   3.595   0.606   4.172 -0.1063 -0.2518  0.7806
13919TIP3    H163248   3.690   0.597   4.168 -0.1029 -1.5070  2.7790
13919TIP3    H263249   3.564   0.527   4.216 -2.0366  0.3895  0.6955
13920TIP3   OH263250   4.469   2.238  14.099 -0.0698 -0.1792 -0.1617
13920TIP3    H163251   4.508   2.281  14.023 -0.7787  0.2822 -0.2684
13920TIP3    H263252   4.394   2.292  14.122 -0.2162 -0.6487  0.5005
13921TIP3   OH263253   0.768   6.216  14.195  0.1735 -0.5646 -0.5482
13921TIP3    H163254   0.746   6.264  14.116 -0.2705  0.2143  0.0380
13921TIP3    H263255   0.774   6.125  14.167  0.3695 -0.2576 -1.5401
13922TIP3   OH263256   2.101   6.766   6.067 -0.0654 -0.4173  0.3908
13922TIP3    H163257   2.154   6.711   6.124  1.3806  0.3526 -0.1654
13922TIP3    H263258   2.071   6.837   6.124  0.3774 -0.2941  0.4748
13923TIP3   OH263259   0.425   0.119  10.936 -0.1712  0.0663 -0.8019
13923TIP3    H163260   0.516   0.089  10.932 -0.4074 -0.6110 -1.4061
13923TIP3    H263261   0.374   0.038  10.935 -0.7591  0.4004  0.6091
13924TIP3   OH263262   0.955   5.664  15.232  0.5733 -0.8628 -0.3658
13924TIP3    H163263   0.884   5.634  15.175 -0.3549 -1.3350  0.9822
13924TIP3    H263264   0.954   5.759  15.223  0.4985 -0.9324 -1.1843
13925TIP3   OH263265   5.665   0.682   2.280  0.3118  0.0421 -0.6488
13925TIP3    H163266   5.607   0.646   2.348 -0.3326  1.1663 -0.5782
13925TIP3    H263267   5.607   0.697   2.205  0.8624 -0.4390 -1.1764
13926TIP3   OH263268   1.783   4.486  11.693  0.3293 -0.4915  0.2457
13926TIP3    H163269   1.730   4.559  11.662  1.3554  0.8332  1.4669
13926TIP3    H263270   1.872   4.505  11.663  1.3468  0.7649  3.5273
13927TIP3   OH263271   5.580   1.254  16.147 -0.4577  0.2313  0.3742
13927TIP3    H163272   5.497   1.291  16.118 -0.2908  0.2349 -0.1099
13927TIP3    H263273   5.645   1.321  16.125 -0.3435  0.2925  0.8835
13928TIP3   OH263274   5.684   5.214  11.140  0.3911 -0.4975 -0.4591
13928TIP3    H163275   5.694   5.240  11.231 -1.6989  0.3688 -0.4199
13928TIP3    H263276   5.718   5.288  11.090 -0.9814  0.2357 -0.3498
13929TIP3   OH263277   0.515   2.179  14.848 -0.3058 -0.2893 -0.2684
13929TIP3    H163278   0.542   2.220  14.766  0.5598 -0.1762  0.0549
13929TIP3    H263279   0.435   2.132  14.827  0.3533 -0.9581 -1.3923
13930TIP3   OH263280   6.071   6.006   3.835 -0.2204 -0.3090 -0.3370
13930TIP3    H163281   6.078   6.028   3.742  0.4038 -0.5186 -0.3409
13930TIP3    H263282   6.153   6.036   3.874 -1.3537  1.8324  0.5851
13931TIP3   OH263283   2.114   2.860  13.683 -0.0466 -0.1268 -0.0590
13931TIP3    H163284   2.182   2.924  13.705 -0.5101  0.4688 -0.3248
13931TIP3    H263285   2.152   2.775  13.706 -0.1487  0.3642  2.2134
13932TIP3   OH263286   4.316   2.499  15.504 -0.1005 -1.0306  0.1751
13932TIP3    H163287   4.332   2.452  15.422 -1.6502 -2.9373  0.8890
13932TIP3    H263288   4.404   2.521  15.536  0.5517 -0.7300 -1.6806
13933TIP3   OH263289   1.280   5.985   0.251 -0.9195  0.4669 -0.4334
13933TIP3    H163290   1.354   5.973   0.309 -0.0744 -1.2178 -1.7659
13933TIP3    H263291   1.227   5.906   0.262 -2.7637  1.7826  0.7474
13934TIP3   OH263292   0.456   6.540  15.341 -0.1194 -0.3101 -0.1954
13934TIP3    H163293   0.486   6.623  15.304  0.7624 -0.9892 -1.0461
13934TIP3    H263294   0.373   6.562  15.385  0.0822  0.9996 -0.4321
13935TIP3   OH263295   5.534   3.950   4.724 -0.1731  0.1576  0.2494
13935TIP3    H163296   5.458   3.956   4.666  0.1646  0.1237 -0.2052
13935TIP3    H263297   5.570   3.863   4.706  0.5594  0.5632 -0.2849
13936TIP3   OH263298   4.081   4.638   5.847 -0.1562  0.0351 -0.3610
13936TIP3    H163299   4.119   4.669   5.930 -0.0041 -0.0412 -0.4012
13936TIP3    H263300   4.150   4.585   5.808 -0.6477 -0.8789  0.0020
13937TIP3   OH263301   2.817   3.426  11.248 -0.1361  0.0174  0.9159
13937TIP3    H163302   2.902   3.395  11.215  0.3705  3.1635 -1.1220
13937TIP3    H263303   2.814   3.518  11.224 -3.3454  0.5125  2.6988
13938TIP3   OH263304   5.176   4.978  16.565  0.2727  0.1723 -0.3755
13938TIP3    H163305   5.211   4.997  16.478 -2.8935 -0.4877 -1.9266
13938TIP3    H263306   5.116   5.050  16.583  0.3508 -0.0654  0.9991
13939TIP3   OH263307   0.052   2.112  12.397  0.5501  0.8308 -0.0807
13939TIP3    H163308  -0.023   2.147  12.445  0.7085  0.8945  0.1239
13939TIP3    H263309   0.036   2.018  12.391  1.1134  0.6331  1.1616
13940TIP3   OH263310   4.154   6.656   1.311  0.5715 -0.0469 -0.6277
13940TIP3    H163311   4.224   6.609   1.267 -0.1146 -0.6002 -1.1422
13940TIP3    H263312   4.073   6.623   1.271 -0.0047  0.2949  0.2203
13941TIP3   OH263313   0.414   0.729   5.248 -0.0581  0.1469  0.6267
13941TIP3    H163314   0.468   0.776   5.310  0.0155 -0.7038  1.2234
13941TIP3    H263315   0.452   0.748   5.162 -0.3137  1.5300  0.8028
13942TIP3   OH263316   2.694   0.282   5.203  0.2322  0.1664 -0.0052
13942TIP3    H163317   2.639   0.226   5.148  1.0347 -1.5255  0.8513
13942TIP3    H263318   2.751   0.328   5.141 -0.2310 -0.1712 -0.7004
13943TIP3   OH263319   2.593   6.624  10.465 -0.5707  0.4584 -0.1528
13943TIP3    H163320   2.607   6.672  10.384 -0.3510 -1.4913 -1.3181
13943TIP3    H263321   2.502   6.595  10.461 -0.3964 -0.1240  0.0344
13944TIP3   OH263322   0.067   4.864   1.313  0.4416 -0.2027  0.0209
13944TIP3    H163323   0.151   4.865   1.268 -0.6499  0.9342 -2.1407
13944TIP3    H263324   0.074   4.934   1.379  1.4759 -0.7431  0.5048
13945TIP3   OH263325   3.062   4.245   0.653  0.0028  0.3228 -0.2772
13945TIP3    H163326   3.141   4.288   0.619  0.3847  0.3029  0.5430
13945TIP3    H263327   2.990   4.299   0.622  0.4809  1.6760  0.8373
13946TIP3   OH263328   6.729   4.148   1.083  0.1285  0.5812  0.6534
13946TIP3    H163329   6.699   4.099   1.160  2.1168  3.5857  3.6218
13946TIP3    H263330   6.821   4.124   1.073 -0.0565  0.3840 -0.6935
13947TIP3   OH263331   4.636   4.413   2.672  0.4119  0.0822 -0.0607
13947TIP3    H163332   4.709   4.362   2.637  0.7037 -0.7485  1.6591
13947TIP3    H263333   4.647   4.408   2.767 -1.2034  0.9657  0.2003
13948TIP3   OH263334   5.014   6.019   4.262 -0.3005  0.2387  0.1454
13948TIP3    H163335   5.056   6.089   4.212 -0.2630  1.7202  2.1392
13948TIP3    H263336   5.025   6.045   4.353  0.0437 -2.5770  1.0060
13949TIP3   OH263337   4.308   4.176  13.655  0.0068 -0.2863  0.1760
13949TIP3    H163338   4.375   4.200  13.591  1.0356 -2.0547  0.5420
13949TIP3    H263339   4.267   4.098  13.619 -1.8166  0.6845  0.0300
13950TIP3   OH263340   5.562   4.760   1.592 -0.8835  0.0050  0.8884
13950TIP3    H163341   5.635   4.819   1.610  0.4851 -1.2447 -0.3656
13950TIP3    H263342   5.551   4.763   1.497 -1.5641 -0.8744  0.9233
13951TIP3   OH263343   4.469   5.889   0.182  0.2220 -0.1929 -0.6292
13951TIP3    H163344   4.416   5.860   0.256 -0.4221 -1.2565 -1.4794
13951TIP3    H263345   4.518   5.964   0.215 -2.5323  1.4898 -0.0707
13952TIP3   OH263346   0.150   5.316  11.281  0.0385 -0.0526  0.3708
13952TIP3    H163347   0.193   5.398  11.257  0.1571  0.0123  0.7892
13952TIP3    H263348   0.121   5.279  11.198  0.4336  0.1638  0.1301
13953TIP3   OH263349   1.292   3.356   1.507 -0.0045  0.0160  0.5156
13953TIP3    H163350   1.312   3.264   1.518 -0.9375 -0.3776 -0.8358
13953TIP3    H263351   1.292   3.392   1.596  0.1392 -1.3312  1.0698
13954TIP3   OH263352   2.284   5.579   1.462  0.4574 -0.3151 -0.6012
13954TIP3    H163353   2.374   5.548   1.458  0.6316 -0.2915  1.5590
13954TIP3    H263354   2.281   5.634   1.540 -1.1485  0.7015 -1.3193
13955TIP3   OH263355   3.235   2.832  14.943  0.7610 -0.2747  0.0165
13955TIP3    H163356   3.149   2.828  14.902  1.7003 -2.1285 -1.9347
13955TIP3    H263357   3.282   2.901  14.896  1.5071 -1.7300 -1.4509
13956TIP3   OH263358   4.886   0.529  15.229 -0.5845 -0.2526  0.0530
13956TIP3    H163359   4.955   0.463  15.222 -0.9928 -0.5732 -1.3436
13956TIP3    H263360   4.926   0.610  15.197 -1.0492 -0.6336 -1.6414
13957TIP3   OH263361   3.471   6.059   1.274  0.3065 -0.3283 -0.9622
13957TIP3    H163362   3.436   5.972   1.292  1.6564 -0.4244  1.5940
13957TIP3    H263363   3.408   6.119   1.313  2.5672 -0.5025  3.6666
13958TIP3   OH263364   1.552   3.456   3.036 -0.2795 -0.8727 -0.0319
13958TIP3    H163365   1.608   3.490   3.106  0.5130 -1.8841 -0.1406
13958TIP3    H263366   1.552   3.525   2.970  0.0827 -0.4652  0.3884
13959TIP3   OH263367   3.933   5.344   3.162 -0.2168 -0.2840  0.8374
13959TIP3    H163368   3.870   5.413   3.179  1.6680  1.9464 -0.5690
13959TIP3    H263369   3.903   5.304   3.080  0.2213  0.8706  0.0895
13960TIP3   OH263370   3.987   2.588  15.443  0.6511  0.1096  0.2608
13960TIP3    H163371   4.064   2.546  15.406  1.1295  0.2086  1.1130
13960TIP3    H263372   3.961   2.653  15.378  1.5451  0.3709  0.1588
13961TIP3   OH263373   2.130   5.354  12.916 -0.2947 -0.3389  0.8464
13961TIP3    H163374   2.150   5.369  12.824  1.0392  0.7126  1.2790
13961TIP3    H263375   2.080   5.272  12.917 -0.8839 -0.0254 -0.8519
13962TIP3   OH263376   6.273   2.434   0.418  0.6459 -0.4307 -0.0420
13962TIP3    H163377   6.348   2.413   0.472  0.8731  0.0766 -0.1556
13962TIP3    H263378   6.310   2.468   0.337  0.3203 -1.5010 -0.6657
13963TIP3   OH263379   6.649   0.372  15.211  0.1432 -0.4526  0.0503
13963TIP3    H163380   6.603   0.426  15.146  1.4368 -1.1791 -1.5349
13963TIP3    H263381   6.599   0.291  15.215  0.2196 -0.5123 -0.2350
13964TIP3   OH263382   6.020   6.395  16.263 -0.4556 -0.0494 -0.2973
13964TIP3    H163383   5.983   6.326  16.208  0.0463  0.0106 -0.7173
13964TIP3    H263384   6.108   6.409  16.229 -0.7318  1.1742 -0.5680
13965TIP3   OH263385   4.100   1.697   0.837 -0.3775  0.3766 -0.2010
13965TIP3    H163386   4.085   1.735   0.923 -0.2989 -0.9511  0.4221
13965TIP3    H263387   4.195   1.686   0.832 -0.5488 -2.4740  0.9070
13966TIP3   OH263388   1.470   6.153  11.808  0.2280 -0.1633  0.3037
13966TIP3    H163389   1.560   6.121  11.810  0.1363 -0.3923  0.8076
13966TIP3    H263390   1.422   6.093  11.864 -0.1220  0.3260  0.5321
13967TIP3   OH263391   5.130   2.519  14.523  0.2577 -0.2503  0.5134
13967TIP3    H163392   5.133   2.615  14.521  1.9843 -0.2528  0.7957
13967TIP3    H263393   5.139   2.497  14.616  2.8644 -0.6524  0.2556
13968TIP3   OH263394   0.144   5.417  14.471 -0.6685 -0.2231 -0.0539
13968TIP3    H163395   0.169   5.433  14.562  1.1273 -1.1046 -0.3495
13968TIP3    H263396   0.225   5.388  14.428 -1.8131 -1.3644 -1.5752
13969TIP3   OH263397   6.645   2.745  14.113  0.6614 -0.1767 -0.0987
13969TIP3    H163398   6.617   2.830  14.148  3.3849  0.7613  0.0929
13969TIP3    H263399   6.586   2.727  14.041 -0.6861  1.3223  0.5728
13970TIP3   OH263400   4.906   5.700   1.393  0.1870 -0.2194  0.3395
13970TIP3    H163401   4.977   5.654   1.437  1.0354  0.7112 -0.0061
13970TIP3    H263402   4.896   5.782   1.443 -0.8455 -0.4651  0.5603
13971TIP3   OH263403   3.976   6.556   6.220 -0.3328  0.4201 -0.2653
13971TIP3    H163404   3.985   6.647   6.192 -0.0643  0.3800 -0.3053
13971TIP3    H263405   3.969   6.561   6.315  0.0913  0.4524 -0.2332
13972TIP3   OH263406   1.706   2.918   2.436  0.4020  0.2854 -0.3458
13972TIP3    H163407   1.642   2.952   2.373 -0.6418 -0.1779  0.4177
13972TIP3    H263408   1.657   2.853   2.487  0.9470  1.2147  1.4774
13973TIP3   OH263409   5.974   2.931  16.980 -0.3829 -0.0915  0.1495
13973TIP3    H163410   5.926   2.939  16.897 -0.3494  0.3235  0.1667
13973TIP3    H263411   5.927   2.988  17.040 -0.5858 -0.6230  0.5039
13974TIP3   OH263412   1.472   0.901  11.164 -0.2558  0.5391  0.1550
13974TIP3    H163413   1.393   0.954  11.155  0.5263  1.3491 -4.3073
13974TIP3    H263414   1.461   0.829  11.102  1.9286 -0.0553  0.3470
13975TIP3   OH263415   2.158   4.884  16.050 -0.3112  0.6040 -0.2806
13975TIP3    H163416   2.176   4.978  16.055  1.8594  0.2641 -0.5857
13975TIP3    H263417   2.160   4.855  16.141 -1.4495  0.8966 -0.1449
13976TIP3   OH263418   1.520   6.260  11.219  0.4958  0.2363 -0.2068
13976TIP3    H163419   1.452   6.245  11.153  2.0828 -0.2074 -1.7912
13976TIP3    H263420   1.516   6.182  11.275 -0.4427  0.3288 -0.1257
13977TIP3   OH263421   2.410   5.383  16.123 -0.9872  0.1590 -0.6885
13977TIP3    H163422   2.385   5.443  16.053 -1.6555  0.7044  0.0057
13977TIP3    H263423   2.466   5.435  16.181 -1.2816  0.0190 -0.2720
13978TIP3   OH263424   5.311   0.723   5.314 -0.1331 -0.5106  0.0899
13978TIP3    H163425   5.261   0.697   5.237 -1.7415 -0.7905  1.1741
13978TIP3    H263426   5.292   0.655   5.379  0.6599  0.0566  0.9349
13979TIP3   OH263427   0.851   5.613   4.333  0.2184  0.3350  0.3860
13979TIP3    H163428   0.820   5.570   4.413 -0.9409 -0.0272 -0.2374
13979TIP3    H263429   0.773   5.626   4.280  0.8036  1.6072 -0.2231
13980TIP3   OH263430   2.388   3.641  11.789 -0.6884  1.0762  0.5885
13980TIP3    H163431   2.474   3.638  11.830 -0.8552  0.7873  0.9209
13980TIP3    H263432   2.368   3.550  11.768  0.0061  1.3429 -1.4347
13981TIP3   OH263433   1.949   2.612   4.305  0.1004  0.5124 -0.0434
13981TIP3    H163434   2.009   2.552   4.260  0.4383 -0.3601  1.5120
13981TIP3    H263435   1.977   2.699   4.277  0.2534  0.0204 -1.5438
13982TIP3   OH263436   5.273   1.032  12.760 -0.3852 -0.5777 -0.0151
13982TIP3    H163437   5.310   0.944  12.770  0.0480 -0.2704  1.3336
13982TIP3    H263438   5.196   1.032  12.817  0.7116  0.4924  1.5328
13983TIP3   OH263439   3.402   3.736   1.024 -0.1995 -1.0240  0.2791
13983TIP3    H163440   3.415   3.673   1.095 -0.9078 -0.7123  0.6989
13983TIP3    H263441   3.485   3.782   1.017 -0.0032 -1.3178  0.6512
13984TIP3   OH263442   1.324   2.499   4.015  0.2377  0.6433 -0.4284
13984TIP3    H163443   1.297   2.408   4.031  0.1394  0.7394 -0.0297
13984TIP3    H263444   1.420   2.496   4.015  0.2366  0.3719 -1.4225
13985TIP3   OH263445   1.573   0.576  11.356  0.3785 -0.1241  0.1367
13985TIP3    H163446   1.667   0.595  11.348  0.4553  0.5441  2.1395
13985TIP3    H263447   1.540   0.643  11.416 -0.9873 -1.5549  1.0372
13986TIP3   OH263448   5.807   1.010   6.250 -0.1133 -0.8643  0.5499
13986TIP3    H163449   5.801   1.106   6.254  0.5343 -0.8546  1.9151
13986TIP3    H263450   5.902   0.993   6.248 -0.2321 -1.4681 -0.2894
13987TIP3   OH263451   1.223   0.314   4.912 -0.1444 -0.1891 -0.1453
13987TIP3    H163452   1.289   0.275   4.969 -0.0941 -0.5447 -0.4468
13987TIP3    H263453   1.140   0.293   4.955 -0.0165  2.1548  1.4539
13988TIP3   OH263454   4.010   2.448   5.987  0.4199 -0.1486  0.2257
13988TIP3    H163455   4.031   2.378   5.925 -0.2255 -0.2554  0.1212
13988TIP3    H263456   4.030   2.528   5.939 -1.3727 -0.1779 -0.6571
13989TIP3   OH263457   3.798   2.632  15.635 -0.0866  1.0953 -0.2390
13989TIP3    H163458   3.876   2.601  15.589 -0.8001 -0.6035 -0.3693
13989TIP3    H263459   3.739   2.662  15.565  0.1336  1.6313 -0.1960
13990TIP3   OH263460   4.471   3.236  16.652  0.0892 -0.1689 -0.1545
13990TIP3    H163461   4.487   3.264  16.742  0.0292 -0.3432 -0.0899
13990TIP3    H263462   4.426   3.152  16.661  1.0397 -0.7165 -0.3536
13991TIP3   OH263463   0.938   6.773  15.160 -0.1625  0.0496  0.2492
13991TIP3    H163464   0.872   6.800  15.095 -1.3110 -1.4408  0.7408
13991TIP3    H263465   0.951   6.680  15.144 -1.2091 -0.6000  2.7367
13992TIP3   OH263466   1.903   2.408  13.475 -0.6303  0.4574  0.2584
13992TIP3    H163467   1.852   2.421  13.555 -1.1480 -0.6621  0.1355
13992TIP3    H263468   1.988   2.448  13.494 -0.6503 -0.0110  1.4786
13993TIP3   OH263469   4.123   0.672   1.647  0.3663 -0.5769 -0.0891
13993TIP3    H163470   4.161   0.723   1.575 -1.1284 -1.6488 -1.7414
13993TIP3    H263471   4.113   0.734   1.718  1.5346  0.6431 -0.9360
13994TIP3   OH263472   0.190   5.645   1.054 -0.1373  0.2936 -0.6195
13994TIP3    H163473   0.116   5.598   1.016 -1.4913  0.2435  1.9130
13994TIP3    H263474   0.206   5.718   0.993 -2.4107  0.4332 -1.1249
13995TIP3   OH263475   1.114   5.764  12.516  0.5071 -0.0707  0.3336
13995TIP3    H163476   1.081   5.746  12.428 -0.6758 -1.0874  0.9516
13995TIP3    H263477   1.084   5.690  12.568 -0.9517  1.6659  2.1341
13996TIP3   OH263478   2.603   4.817  14.232 -0.3090 -0.1727 -0.3905
13996TIP3    H163479   2.550   4.767  14.293 -0.3094  0.5528  0.2205
13996TIP3    H263480   2.657   4.752  14.188  1.4653 -0.5452  2.1037
13997TIP3   OH263481   2.426   4.947  11.719  0.1768 -0.2991  0.4772
13997TIP3    H163482   2.347   4.932  11.771 -1.6205  0.9867 -1.6757
13997TIP3    H263483   2.410   4.900  11.637  1.6742 -0.0011 -0.0270
13998TIP3   OH263484   6.612   6.337  16.053 -0.6024  0.3934  1.0520
13998TIP3    H163485   6.519   6.343  16.033 -0.0184  0.1546 -2.2269
13998TIP3    H263486   6.635   6.423  16.088 -1.7048  1.0665  0.1520
13999TIP3   OH263487   1.991   2.394   4.106  0.1562  0.5145  0.0411
13999TIP3    H163488   2.078   2.409   4.068 -0.8629  0.2261 -2.5799
13999TIP3    H263489   1.984   2.299   4.115 -0.2925  0.4554 -0.8404
14000TIP3   OH263490   6.395   0.647  15.556 -0.0615  0.4430 -0.7198
14000TIP3    H163491   6.452   0.711  15.596 -0.4910  0.0083  0.6227
14000TIP3    H263492   6.426   0.640  15.465  0.7341  1.6465 -0.5526
14001TIP3   OH263493   5.923   0.530   0.147  0.1524 -0.1373  0.2449
14001TIP3    H163494   6.002   0.477   0.137  1.3875  1.9734 -2.6115
14001TIP3    H263495   5.893   0.513   0.236  2.1240 -3.2529  0.4542
14002TIP3   OH263496   3.382   0.083  13.554 -0.1078 -0.0348  0.0433
14002TIP3    H163497   3.466   0.106  13.592  1.3851 -2.2886 -1.6511
14002TIP3    H263498   3.359   0.158  13.499  0.6397  0.6894  0.6901
14003TIP3   OH263499   3.677   0.855   0.285  0.2295 -0.0339  0.1347
14003TIP3    H163500   3.598   0.908   0.293 -0.2871 -0.3794 -2.1111
14003TIP3    H263501   3.658   0.775   0.334 -1.0350 -0.3379 -0.8110
14004TIP3   OH263502   2.497   4.023  16.295  0.3300  0.0274 -0.0890
14004TIP3    H163503   2.573   4.080  16.283  0.0202  0.4226 -0.1997
14004TIP3    H263504   2.423   4.075  16.263 -0.1196 -0.0044  0.8631
14005TIP3   OH263505   0.585   6.088  14.805 -0.0922 -0.6892  0.1849
14005TIP3    H163506   0.583   6.178  14.838 -0.3214 -0.5263 -0.2696
14005TIP3    H263507   0.538   6.037  14.871 -0.9958 -0.2827 -0.1377
14006TIP3   OH263508   3.130   2.152   5.393  0.0512  0.2589 -0.0511
14006TIP3    H163509   3.036   2.170   5.405  0.0734  0.1378  0.3276
14006TIP3    H263510   3.168   2.167   5.479  0.5832  1.4883 -0.4759
14007TIP3   OH263511   1.937   4.392  10.732 -0.3613 -0.6963  0.0674
14007TIP3    H163512   1.944   4.445  10.811 -2.4781 -1.4898  0.8514
14007TIP3    H263513   1.957   4.303  10.760 -3.8892 -1.5104  0.5011
14008TIP3   OH263514   6.309   4.942  10.658 -0.7013  0.0668  0.1952
14008TIP3    H163515   6.234   4.888  10.635 -1.0492  0.5425  0.2021
14008TIP3    H263516   6.373   4.880  10.694 -0.9215 -0.3975 -0.2043
14009TIP3   OH263517   0.022   4.569   2.006 -0.1994  0.3697  0.4803
14009TIP3    H163518  -0.031   4.493   2.029  2.1065 -1.8485 -0.8676
14009TIP3    H263519   0.006   4.582   1.912 -0.0680  1.1074  0.5557
14010TIP3   OH263520   1.030   3.248   2.196 -0.0178 -0.0086 -0.2550
14010TIP3    H163521   0.942   3.248   2.159  0.9459 -1.8450 -2.7972
14010TIP3    H263522   1.025   3.312   2.267 -4.0266 -1.7692  1.3768
14011TIP3   OH263523   6.583   4.221   4.865 -0.1929  0.0763 -0.3565
14011TIP3    H163524   6.509   4.235   4.924 -1.0465  1.9070 -1.7590
14011TIP3    H263525   6.617   4.309   4.847  1.1721 -0.5797 -1.1903
14012TIP3   OH263526   5.612   0.089  10.976  0.1869 -0.3193  0.5327
14012TIP3    H163527   5.554   0.158  10.942 -0.0258 -1.1551 -0.8486
14012TIP3    H263528   5.586   0.010  10.930  0.8515 -1.2227  1.6442
14013TIP3   OH263529   2.736   1.324   5.496 -0.3721 -0.0770  0.0919
14013TIP3    H163530   2.769   1.234   5.497 -1.6004 -0.5450  0.9957
14013TIP3    H263531   2.808   1.376   5.532 -0.6722 -1.1221  2.3643
14014TIP3   OH263532   5.419   4.028   2.587  0.0867  0.1194  0.0053
14014TIP3    H163533   5.363   4.088   2.537 -0.7057  0.8700  1.7106
14014TIP3    H263534   5.417   3.946   2.538 -2.9844 -0.0496  0.2375
14015TIP3   OH263535   3.386   4.977   0.523 -0.4421  0.3499 -0.1968
14015TIP3    H163536   3.303   4.930   0.516 -0.9498  0.9439  1.2922
14015TIP3    H263537   3.395   4.995   0.617  0.4533  1.9086 -0.5447
14016TIP3   OH263538   0.418   1.814  16.202 -0.2584  0.0366 -0.3429
14016TIP3    H163539   0.465   1.734  16.180 -1.0336 -0.4360 -0.3414
14016TIP3    H263540   0.352   1.823  16.132 -1.2205 -0.2069  0.5097
14017TIP3   OH263541   0.126   2.396   5.818  0.7197  0.2322  0.5039
14017TIP3    H163542   0.187   2.324   5.829 -2.1901 -3.4423 -3.9477
14017TIP3    H263543   0.156   2.442   5.740  0.6174  1.8270  1.3475
14018TIP3   OH263544   1.310   2.078   2.613 -0.5182  0.6328 -0.1519
14018TIP3    H163545   1.278   1.990   2.590  0.9572  0.2276 -0.7397
14018TIP3    H263546   1.290   2.087   2.706 -1.1655 -0.1057 -0.2061
14019TIP3   OH263547   0.813   5.975  16.550 -0.0152  0.0099 -0.0434
14019TIP3    H163548   0.832   6.020  16.467 -0.2370  0.7808  0.3104
14019TIP3    H263549   0.899   5.969  16.594  0.6934 -3.1087 -1.5750
14020TIP3   OH263550   4.870   6.378   1.314 -0.2647 -0.1304  0.3536
14020TIP3    H163551   4.835   6.344   1.231 -0.1301  0.1112  0.1971
14020TIP3    H263552   4.927   6.308   1.346 -0.6659 -0.4085  0.4681
14021TIP3   OH263553   4.239   6.204  11.664  0.4278 -0.4045  0.1121
14021TIP3    H163554   4.271   6.134  11.607  1.8680  1.5237 -1.5763
14021TIP3    H263555   4.259   6.173  11.752 -0.0028 -2.5771 -0.4688
14022TIP3   OH263556   1.122   5.148   1.978 -0.0536 -0.0950  0.2275
14022TIP3    H163557   1.062   5.221   1.998  0.9795  0.4654  1.4509
14022TIP3    H263558   1.081   5.072   2.019 -1.2722 -0.2819 -1.2749
14023TIP3   OH263559   5.743   1.922  12.835 -0.0425 -0.1273 -0.5041
14023TIP3    H163560   5.673   1.878  12.882  0.9173 -0.3282  0.7945
14023TIP3    H263561   5.699   1.983  12.777 -1.2873 -0.3249  0.2044
14024TIP3   OH263562   0.680   5.326  16.564 -0.4806  0.0474 -0.2017
14024TIP3    H163563   0.626   5.401  16.539 -2.5550 -1.7621 -1.4408
14024TIP3    H263564   0.626   5.275  16.623  0.2603 -1.2611 -0.5963
14025TIP3   OH263565   4.525   1.582  12.605  0.2574  0.2314 -0.0962
14025TIP3    H163566   4.494   1.550  12.521  3.8817  1.4929 -2.1376
14025TIP3    H263567   4.491   1.671  12.611  1.1941  0.6739 -1.0275
14026TIP3   OH263568   3.869   6.677  12.344  0.0846 -0.5593  0.1359
14026TIP3    H163569   3.839   6.768  12.351 -0.0172 -0.6759  1.5662
14026TIP3    H263570   3.924   6.676  12.266 -0.0590  0.6907 -0.0055
14027TIP3   OH263571   4.044   2.568   0.632  0.0796 -0.5018 -0.4731
14027TIP3    H163572   4.090   2.485   0.628  2.2177  0.5550  0.2942
14027TIP3    H263573   4.083   2.621   0.562 -1.7446 -0.3328 -1.4243
14028TIP3   OH263574   5.633   2.916   3.488 -0.4800  0.3510 -0.0305
14028TIP3    H163575   5.544   2.886   3.509 -0.6093 -0.1165 -1.1635
14028TIP3    H263576   5.658   2.863   3.412  0.9935  0.0708  0.6295
14029TIP3   OH263577   0.713   5.433   5.535 -0.0474  0.0244 -0.7525
14029TIP3    H163578   0.699   5.343   5.564 -1.5452  0.7015  0.8250
14029TIP3    H263579   0.652   5.444   5.462 -1.1014  0.2103  0.1248
14030TIP3   OH263580   2.648   4.212  16.111 -0.1791  0.0112 -0.1412
14030TIP3    H163581   2.591   4.165  16.052  1.2632 -2.3223  0.1918
14030TIP3    H263582   2.736   4.181  16.090  0.4876 -0.1800  2.5040
14031TIP3   OH263583   3.633   0.070  15.631 -0.8674 -0.5206 -0.0859
14031TIP3    H163584   3.701   0.103  15.690 -1.3678 -0.2016  0.3261
14031TIP3    H263585   3.552   0.105  15.667 -1.3089 -1.3466 -0.2573
14032TIP3   OH263586   2.203   6.397  15.671 -0.3985  1.0208 -0.5009
14032TIP3    H163587   2.241   6.390  15.584  0.5269 -0.5285 -0.0202
14032TIP3    H263588   2.263   6.455  15.718  0.3552  0.1013 -0.2927
14033TIP3   OH263589   4.164   0.039  15.458  0.0073 -0.0673 -0.6540
14033TIP3    H163590   4.091   0.074  15.508  1.2933  1.8918 -0.0316
14033TIP3    H263591   4.181  -0.047  15.497 -0.5279  0.4081  0.6897
14034TIP3   OH263592   4.876   5.658   0.419  0.3457 -0.1634 -0.2816
14034TIP3    H163593   4.896   5.649   0.326  0.1420 -0.2337 -0.3183
14034TIP3    H263594   4.944   5.717   0.453 -1.8526  3.1852 -1.2561
14035TIP3   OH263595   2.447   6.168   5.552 -0.1657  0.2999  0.5248
14035TIP3    H163596   2.495   6.085   5.555 -0.1031  0.3527  1.0777
14035TIP3    H263597   2.355   6.142   5.550 -0.2455  0.0403 -4.3192
14036TIP3   OH263598   1.953   0.670   5.100 -0.0459  0.1591  0.3408
14036TIP3    H163599   1.872   0.624   5.077  0.1289  0.1544 -0.2886
14036TIP3    H263600   1.993   0.692   5.015  1.7277 -1.7662  0.5889
14037TIP3   OH263601   4.115   0.374   0.122 -0.5580  0.6741 -0.3974
14037TIP3    H163602   4.083   0.330   0.200 -1.0363 -0.0561 -0.9991
14037TIP3    H263603   4.137   0.463   0.152 -3.3666  1.3247  0.0084
14038TIP3   OH263604   2.591   2.814   2.857  0.1480 -0.1107 -0.3027
14038TIP3    H163605   2.639   2.778   2.782 -2.6184  0.3680 -2.4975
14038TIP3    H263606   2.512   2.851   2.818 -0.9510  1.0981  2.8076
14039TIP3   OH263607   5.744   3.225   4.677 -0.0606 -0.9084  0.1727
14039TIP3    H163608   5.710   3.285   4.744  1.0280  0.2426 -0.2490
14039TIP3    H263609   5.704   3.256   4.595  0.4000 -0.8307 -0.0283
14040TIP3   OH263610   5.384   3.402  14.682  0.6222 -0.6345  0.0967
14040TIP3    H163611   5.434   3.461  14.738  1.9072 -1.9330  0.3829
14040TIP3    H263612   5.304   3.450  14.662  1.4328  1.0265  0.6341
14041TIP3   OH263613   4.640   0.632   2.060 -0.4075  0.2949 -0.3136
14041TIP3    H163614   4.548   0.652   2.078 -0.2406  0.7940 -0.0095
14041TIP3    H263615   4.651   0.651   1.967 -0.9825 -1.1944 -0.7142
14042TIP3   OH263616   5.939   0.801   5.324 -0.4469  0.0084 -0.7132
14042TIP3    H163617   5.891   0.719   5.332 -2.8230  1.5080  2.4825
14042TIP3    H263618   5.930   0.825   5.231 -0.5747 -2.7731 -1.4859
14043TIP3   OH263619   2.829   4.502  11.917 -0.5947 -0.6247  0.8890
14043TIP3    H163620   2.841   4.565  11.846 -1.2772  1.2577  2.3419
14043TIP3    H263621   2.735   4.483  11.917 -0.6136 -0.5493  1.3252
14044TIP3   OH263622   1.686   0.267  11.235 -0.5251 -0.2624  0.6343
14044TIP3    H163623   1.781   0.249  11.236 -0.7556 -1.8434 -0.7974
14044TIP3    H263624   1.662   0.266  11.142 -1.8912  0.5620  0.9486
14045TIP3   OH263625   5.720   2.034  13.324  0.0858 -0.4081  0.0805
14045TIP3    H163626   5.728   2.036  13.419 -2.0345  0.0364  0.2924
14045TIP3    H263627   5.718   2.127  13.298 -0.3357 -0.5142 -0.2875
14046TIP3   OH263628   5.667   4.786   5.508  0.9728 -0.4019  0.0970
14046TIP3    H163629   5.647   4.733   5.584 -0.4863  0.7306  0.5573
14046TIP3    H263630   5.674   4.875   5.542  0.3193  0.1183 -1.0572
14047TIP3   OH263631   3.421   4.378  11.458  0.0528  0.2037  0.2549
14047TIP3    H163632   3.399   4.470  11.472 -0.0729  0.1140  0.6526
14047TIP3    H263633   3.360   4.329  11.513  0.8809 -0.0673  0.9526
14048TIP3   OH263634   0.329   0.134   5.223  0.2210 -0.3088 -0.0093
14048TIP3    H163635   0.335   0.091   5.138  0.3316  0.3033 -0.3138
14048TIP3    H263636   0.237   0.160   5.229  0.1981 -0.4104  0.0929
14049TIP3   OH263637   1.796   0.936  13.661  0.4746  0.1693  0.0679
14049TIP3    H163638   1.826   0.861  13.609 -1.2963 -0.6159  0.1185
14049TIP3    H263639   1.725   0.901  13.714 -1.8343  2.2844 -1.3967
14050TIP3   OH263640   0.727   5.291   0.278  0.4337 -0.2898  0.2011
14050TIP3    H163641   0.642   5.251   0.294  0.4018 -0.3988 -0.2265
14050TIP3    H263642   0.773   5.285   0.361  0.6747 -1.8138 -0.0280
14051TIP3   OH263643   6.445   2.320  15.206  0.4933  0.3029 -0.8138
14051TIP3    H163644   6.513   2.255  15.187 -0.1962 -1.0316  0.9713
14051TIP3    H263645   6.471   2.359  15.289 -1.4017 -1.0263  0.4830
14052TIP3   OH263646   0.838   2.648   3.217  0.1735 -0.1586  0.1724
14052TIP3    H163647   0.837   2.614   3.128 -1.5123  1.7449 -0.6077
14052TIP3    H263648   0.877   2.735   3.210 -0.7103  0.3490  1.1149
14053TIP3   OH263649   1.297   4.936   5.438 -0.4165  0.0313  0.3305
14053TIP3    H163650   1.349   4.925   5.518 -1.8660  1.5064  1.5322
14053TIP3    H263651   1.244   5.014   5.454 -1.9781 -0.6008 -1.4075
14054TIP3   OH263652   5.810   2.320   5.341 -0.2127 -0.3509  0.3893
14054TIP3    H163653   5.829   2.369   5.261 -0.8763 -0.7729 -0.0391
14054TIP3    H263654   5.783   2.387   5.404 -1.5527 -0.1740 -0.3224
14055TIP3   OH263655   6.543   2.054  16.309  0.0770  0.6886 -0.4206
14055TIP3    H163656   6.454   2.068  16.278  0.7090  2.4203 -1.5798
14055TIP3    H263657   6.559   2.124  16.371  0.6068  0.3507 -0.1660
14056TIP3   OH263658   4.919   4.722  17.283  0.5685 -0.2090  0.4301
14056TIP3    H163659   4.887   4.632  17.293  0.8808 -0.4159 -0.3338
14056TIP3    H263660   4.871   4.772  17.349 -0.1416 -0.8026  0.3825
14057TIP3   OH263661   0.168   2.439   3.698 -0.6072 -0.0388 -0.2901
14057TIP3    H163662   0.153   2.495   3.622  0.1149  0.8139  0.1785
14057TIP3    H263663   0.134   2.489   3.772  0.7826  0.1673  0.2389
14058TIP3   OH263664   3.497   5.055  13.798 -0.1679  0.7363  0.3209
14058TIP3    H163665   3.554   5.076  13.724  0.8099 -0.2694  0.7621
14058TIP3    H263666   3.541   4.983  13.843 -1.9067 -0.2801  0.5288
14059TIP3   OH263667   3.784   1.252   2.844 -0.1631  0.6568 -0.2337
14059TIP3    H163668   3.709   1.221   2.793  0.4558  1.1621 -1.5105
14059TIP3    H263669   3.796   1.343   2.816  0.1047  1.0133  0.9669
14060TIP3   OH263670   3.443   1.509   5.634 -0.2451 -0.2894 -0.2684
14060TIP3    H163671   3.454   1.419   5.665 -0.7485 -0.3499 -0.2702
14060TIP3    H263672   3.503   1.560   5.689  0.8821 -0.7717 -1.0127
14061TIP3   OH263673   4.363   3.774   2.275  0.0012 -0.7643 -0.0150
14061TIP3    H163674   4.441   3.718   2.279  0.1325 -0.6929 -1.3559
14061TIP3    H263675   4.308   3.734   2.208 -0.1324  0.4332 -0.6436
14062TIP3   OH263676   2.709   2.161  11.754  0.1830  0.1219  0.3538
14062TIP3    H163677   2.761   2.215  11.814  0.8118 -0.6492  0.5113
14062TIP3    H263678   2.684   2.085  11.806 -0.3847  0.0714  0.0182
14063TIP3   OH263679   6.545   1.682  13.950  1.0166 -0.7687  0.1357
14063TIP3    H163680   6.567   1.727  14.032 -1.6579  0.4219  0.3164
14063TIP3    H263681   6.543   1.752  13.885 -4.2608 -0.0497  0.6116
14064TIP3   OH263682   1.148   3.830  12.794 -0.6337 -0.7187  0.7164
14064TIP3    H163683   1.160   3.811  12.887  0.3116 -0.1003  0.7349
14064TIP3    H263684   1.209   3.771  12.750 -2.8312 -2.8179  0.2839
14065TIP3   OH263685   5.424   5.117   1.063 -0.1820  0.2429 -0.4732
14065TIP3    H163686   5.449   5.164   0.984  0.2826  1.7805  0.5383
14065TIP3    H263687   5.336   5.084   1.046 -0.3479  1.1340 -1.3801
14066TIP3   OH263688   4.769   5.997  13.696  0.1413  0.4031  0.1013
14066TIP3    H163689   4.820   5.934  13.644  0.2094 -0.8672  1.6478
14066TIP3    H263690   4.679   5.968  13.687 -0.3572  2.3159 -2.1575
14067TIP3   OH263691   6.735   3.021   2.836 -0.1989 -0.3336 -0.4356
14067TIP3    H163692   6.726   3.081   2.762  0.9372  2.5424  1.5914
14067TIP3    H263693   6.813   2.970   2.816 -0.5936 -0.4673 -1.7359
14068TIP3   OH263694   2.328   1.153  16.170  0.0925 -0.3378  0.0954
14068TIP3    H163695   2.358   1.085  16.109 -1.1658 -0.7882 -0.0585
14068TIP3    H263696   2.235   1.135  16.181 -0.1543  1.0723  0.4530
14069TIP3   OH263697   6.515   2.931  12.918 -1.1482 -0.4891  0.3454
14069TIP3    H163698   6.486   2.984  12.843  0.5056 -0.6819 -0.4958
14069TIP3    H263699   6.568   2.992  12.970 -1.0390 -0.7491  0.5385
14070TIP3   OH263700   5.664   4.974   0.724  0.6158 -0.2720  0.6427
14070TIP3    H163701   5.632   5.062   0.704 -0.2261 -0.6182  0.3804
14070TIP3    H263702   5.743   4.964   0.671 -0.2560 -0.2937 -0.7310
14071TIP3   OH263703   2.008   4.839   3.323  0.0917  0.1426  0.1894
14071TIP3    H163704   2.075   4.772   3.305  1.5113  0.9634  2.0457
14071TIP3    H263705   2.005   4.844   3.418 -0.4753  2.2479  0.0922
14072TIP3   OH263706   6.767   0.804   1.121  0.2341 -0.0027  0.9566
14072TIP3    H163707   6.841   0.788   1.179  0.3427 -1.1313  0.5247
14072TIP3    H263708   6.724   0.719   1.112 -0.1489  0.2877 -0.1148
14073TIP3   OH263709   1.272   4.199  14.176  0.2342  0.9986  0.2450
14073TIP3    H163710   1.215   4.166  14.245 -0.3476 -1.0026 -1.1011
14073TIP3    H263711   1.213   4.215  14.102  1.2600 -0.4132 -0.9480
14074TIP3   OH263712   6.608   1.258  17.056  0.3741 -0.4581  0.1270
14074TIP3    H163713   6.587   1.170  17.025  0.0306  0.0256 -1.0418
14074TIP3    H263714   6.680   1.287  17.000 -1.5861  1.2085 -1.6891
14075TIP3   OH263715   2.063   0.131   3.925 -0.1102 -0.6461  0.2247
14075TIP3    H163716   2.091   0.213   3.884 -0.6897 -0.2344  0.6429
14075TIP3    H263717   2.082   0.143   4.018  0.0327 -1.0888  0.2570
14076TIP3   OH263718   3.820   5.438  16.158  0.6596 -0.2937 -0.6086
14076TIP3    H163719   3.871   5.387  16.095  1.0814 -0.6096 -0.0182
14076TIP3    H263720   3.884   5.495  16.201  0.6774 -1.2688  0.7164
14077TIP3   OH263721   4.293   6.671  12.093  0.1261 -0.0072  0.2122
14077TIP3    H163722   4.289   6.682  11.998  0.5653 -0.7895  0.0941
14077TIP3    H263723   4.229   6.734  12.127  0.0345  0.3509 -0.5911
14078TIP3   OH263724   6.654   0.047  14.177 -0.3409  0.0879  0.5675
14078TIP3    H163725   6.593  -0.026  14.170  2.5212 -2.3915 -1.1056
14078TIP3    H263726   6.622   0.112  14.115 -1.8787 -0.6184  0.5801
14079TIP3   OH263727   2.896   2.308  14.497 -1.0819 -0.0683  0.0039
14079TIP3    H163728   2.892   2.232  14.439  0.8043  0.2643 -0.6352
14079TIP3    H263729   2.821   2.362  14.472 -0.9007 -0.4453 -1.3910
14080TIP3   OH263730   2.009   3.368   2.271  0.5336 -0.0054  0.2311
14080TIP3    H163731   2.070   3.377   2.197  0.4367 -0.9546  0.0210
14080TIP3    H263732   1.935   3.319   2.235  0.6556 -0.8160  1.0446
14081TIP3   OH263733   0.109   2.931   3.197 -0.0888 -0.3820  0.4008
14081TIP3    H163734   0.189   2.891   3.161  1.9120  2.6113  1.1543
14081TIP3    H263735   0.121   2.927   3.292  0.4008  2.1116  0.5228
14082TIP3   OH263736   2.430   2.453   1.966 -0.3652  0.0107  0.1345
14082TIP3    H163737   2.356   2.513   1.963 -1.3057 -1.0362  1.0682
14082TIP3    H263738   2.464   2.462   2.055 -0.5047 -0.7840  0.2792
14083TIP3   OH263739   3.956   0.083   4.231  0.0414 -0.0097  0.1757
14083TIP3    H163740   3.926   0.173   4.228  0.8405  0.2298 -1.1309
14083TIP3    H263741   4.034   0.086   4.288 -0.5244 -0.0733  0.9688
14084TIP3   OH263742   3.221   3.347  13.826 -0.0486 -0.7867  0.1708
14084TIP3    H163743   3.228   3.349  13.730 -1.1969 -0.8378  0.0781
14084TIP3    H263744   3.127   3.343  13.843  0.1639 -1.1915  1.3009
14085TIP3   OH263745   0.915   5.539  17.042 -0.5632 -0.3178 -0.1420
14085TIP3    H163746   0.972   5.514  16.969  0.1584  3.2614 -0.9981
14085TIP3    H263747   0.828   5.509  17.015  0.1974 -2.0777 -0.8070
14086TIP3   OH263748   4.394   0.483  15.442 -0.0188  0.3077 -0.1897
14086TIP3    H163749   4.449   0.535  15.384  1.4301 -1.8726 -0.9404
14086TIP3    H263750   4.448   0.469  15.520  0.4383 -1.5388 -0.7727
14087TIP3   OH263751   6.577   3.897  14.729  0.3271 -0.5271  0.0362
14087TIP3    H163752   6.630   3.875  14.805  0.7391  0.6487  0.1095
14087TIP3    H263753   6.528   3.817  14.710  1.0630 -1.1891  0.8347
14088TIP3   OH263754   0.555   3.267  14.524 -0.0519  0.1294  0.1915
14088TIP3    H163755   0.623   3.241  14.587 -0.2704  1.4336  1.0000
14088TIP3    H263756   0.481   3.295  14.578 -0.6919  0.1574 -0.6714
14089TIP3   OH263757   1.868   5.098  15.274  0.8379  0.2460 -0.5183
14089TIP3    H163758   1.870   5.181  15.322 -0.2559 -1.0986  2.0662
14089TIP3    H263759   1.949   5.098  15.222  1.5382  2.3119  0.4615
14090TIP3   OH263760   5.588   4.527   1.948  0.4646  0.2950 -0.5518
14090TIP3    H163761   5.506   4.496   1.910  1.1729 -1.5615 -0.6975
14090TIP3    H263762   5.655   4.505   1.883  1.0635  1.9877 -0.5381
14091TIP3   OH263763   4.267   3.217  11.148 -0.3243  0.2651  0.7078
14091TIP3    H163764   4.273   3.162  11.070 -0.8937 -0.6691  1.2948
14091TIP3    H263765   4.239   3.157  11.217 -2.3416  1.5509  1.0884
14092TIP3   OH263766   6.766   2.092  16.129  0.1332  0.1112  0.0621
14092TIP3    H163767   6.704   2.116  16.060 -1.0938 -3.0431 -0.1140
14092TIP3    H263768   6.716   2.098  16.210  0.6050  0.7330  0.3111
14093TIP3   OH263769   4.394   5.347  16.317 -0.1739  0.3142 -0.9495
14093TIP3    H163770   4.448   5.343  16.396 -0.4993  0.2422 -0.7292
14093TIP3    H263771   4.412   5.434  16.281  1.6061 -0.4293 -1.9758
14094TIP3   OH263772   4.847   0.462  17.140 -0.6144 -0.6776 -0.1800
14094TIP3    H163773   4.818   0.374  17.116 -1.6176 -0.4702  0.2280
14094TIP3    H263774   4.846   0.511  17.058  2.7464 -1.7177 -1.0267
14095TIP3   OH263775   6.085   4.545  12.162 -0.6658  0.3009  0.3358
14095TIP3    H163776   6.070   4.491  12.084  2.2100 -0.4995  0.2379
14095TIP3    H263777   6.002   4.539  12.211 -1.8567 -0.7877 -1.6757
14096TIP3   OH263778   1.792   5.284   1.545 -0.7583  0.3211 -0.5202
14096TIP3    H163779   1.768   5.297   1.453 -1.2925  0.9379 -0.3046
14096TIP3    H263780   1.807   5.190   1.553 -1.8978  0.0879 -0.9634
14097TIP3   OH263781   5.433   3.569  12.172  0.0073  0.8251  0.3322
14097TIP3    H163782   5.470   3.531  12.251  1.3450 -0.5152 -0.8699
14097TIP3    H263783   5.500   3.631  12.142 -0.6251  1.5536  0.3962
14098TIP3   OH263784   1.040   0.203   2.423 -0.6094  0.3779 -0.5504
14098TIP3    H163785   1.026   0.110   2.404 -0.5680  0.4130 -0.7526
14098TIP3    H263786   1.100   0.233   2.355  0.6260  0.1756  0.3986
14099TIP3   OH263787   6.428   6.156   6.187  0.0910  0.0056 -0.4154
14099TIP3    H163788   6.359   6.212   6.221 -0.0326 -0.1000 -0.4916
14099TIP3    H263789   6.446   6.189   6.099  1.3043  1.0984  0.2066
14100TIP3   OH263790   1.271   2.439   5.209  0.0721  0.1090 -0.2518
14100TIP3    H163791   1.366   2.435   5.203  0.0707  1.3632 -1.6720
14100TIP3    H263792   1.253   2.473   5.296  0.8692 -1.0458  0.3892
14101TIP3   OH263793   4.317   5.160   0.561 -0.0994 -0.0106  0.2769
14101TIP3    H163794   4.295   5.242   0.605  0.8147  1.1631 -1.3444
14101TIP3    H263795   4.403   5.136   0.596  0.7221  1.0331 -0.9473
14102TIP3   OH263796   0.944   1.932   3.135 -0.6226 -0.2634  0.1127
14102TIP3    H163797   0.945   1.851   3.187 -2.9767  0.1471  0.9144
14102TIP3    H263798   0.897   1.994   3.190 -1.7524  0.6825 -1.8539
14103TIP3   OH263799   6.614   4.187  15.088 -0.0791  0.3829 -0.5176
14103TIP3    H163800   6.589   4.182  14.996  1.3749  1.5811 -1.0222
14103TIP3    H263801   6.687   4.126  15.097  1.1625  1.7809 -0.7047
14104TIP3   OH263802   4.559   4.906  17.243 -0.1246 -0.6945  0.4415
14104TIP3    H163803   4.528   4.984  17.198  1.4926  0.4065  1.1673
14104TIP3    H263804   4.548   4.836  17.179  2.4645  0.8647 -1.9379
14105TIP3   OH263805   5.464   3.981   2.225  0.3334 -0.2921 -0.0855
14105TIP3    H163806   5.461   3.946   2.314 -0.2994  0.6662  0.2838
14105TIP3    H263807   5.526   4.054   2.230  0.6991 -0.5647 -0.5589
14106TIP3   OH263808   0.644   4.480   4.565 -0.4392  0.6712 -0.1901
14106TIP3    H163809   0.580   4.526   4.511 -0.3715  1.2831  0.2393
14106TIP3    H263810   0.719   4.540   4.568 -0.0582  0.1981 -0.2471
14107TIP3   OH263811   4.233   0.404   4.817 -0.4967  1.0901 -0.1264
14107TIP3    H163812   4.273   0.479   4.860 -0.8536  0.9375  0.4831
14107TIP3    H263813   4.188   0.357   4.887  3.2109 -2.1033  0.4227
14108TIP3   OH263814   6.396   4.297   2.536 -0.2427  0.0091  0.1047
14108TIP3    H163815   6.373   4.209   2.566  1.9789 -0.2072  1.3967
14108TIP3    H263816   6.382   4.352   2.613 -0.4467  0.5892 -0.3416
14109TIP3   OH263817   1.120   1.861  16.545 -0.3707  0.1652  0.0178
14109TIP3    H163818   1.212   1.882  16.559 -0.0786 -0.8419 -0.3218
14109TIP3    H263819   1.117   1.822  16.457 -0.9782 -0.5755  0.3547
14110TIP3   OH263820   3.991   2.743  12.518  0.1224  0.2234 -0.2263
14110TIP3    H163821   3.957   2.672  12.463  0.6018 -1.2590  1.3135
14110TIP3    H263822   3.917   2.768  12.573  0.9148 -1.9343  2.0328
14111TIP3   OH263823   1.476   4.402   2.373 -0.4336  0.6603  0.7784
14111TIP3    H163824   1.401   4.360   2.414 -1.1197  0.4718 -0.6043
14111TIP3    H263825   1.510   4.337   2.312 -0.6513  1.6002 -0.3785
14112TIP3   OH263826   2.262   4.373  13.936 -0.5286  0.1313  0.1114
14112TIP3    H163827   2.339   4.325  13.906 -0.9216 -0.5856  0.2415
14112TIP3    H263828   2.270   4.373  14.032 -0.9880 -0.4542  0.1552
14113TIP3   OH263829   1.640   4.030  13.844  0.0056  0.0510 -0.2470
14113TIP3    H163830   1.673   3.974  13.914 -0.8805 -0.5643 -0.3078
14113TIP3    H263831   1.707   4.023  13.775 -0.1914 -1.1302 -0.3484
14114TIP3   OH263832   6.693   4.797  12.802 -0.1139  0.2140 -0.0420
14114TIP3    H163833   6.710   4.705  12.822  1.3168  0.3591 -0.4543
14114TIP3    H263834   6.723   4.844  12.879  0.6599  0.4238 -0.4550
14115TIP3   OH263835   1.809   6.218  14.396 -0.4529 -0.0432  0.3964
14115TIP3    H163836   1.799   6.158  14.322 -0.7293 -1.0824  1.2525
14115TIP3    H263837   1.903   6.228  14.407 -0.2716 -2.6895  2.0542
14116TIP3   OH263838   6.050   5.782  11.200 -0.1604  0.1457 -0.2662
14116TIP3    H163839   6.035   5.858  11.144  0.6420 -0.8193 -1.8556
14116TIP3    H263840   5.964   5.742  11.210 -0.4978  0.9560  0.1446
14117TIP3   OH263841   5.435   0.131  16.688  0.2184  0.8084  0.2144
14117TIP3    H163842   5.466   0.047  16.654 -0.1909  1.2876 -1.4400
14117TIP3    H263843   5.510   0.189  16.680  0.0032  1.0245 -0.2562
14118TIP3   OH263844   0.817   0.178  13.319 -0.1451 -0.2246 -0.6719
14118TIP3    H163845   0.780   0.092  13.298  1.1642 -0.7651 -0.9036
14118TIP3    H263846   0.911   0.162  13.327  0.2352  1.3479 -1.5521
14119TIP3   OH263847   0.397   1.887   1.556  0.0452 -0.3397  0.0799
14119TIP3    H163848   0.400   1.863   1.648  1.5639 -0.6299 -0.0260
14119TIP3    H263849   0.334   1.825   1.517  1.1194 -1.7354  0.5018
14120TIP3   OH263850   2.289   2.167   5.415 -0.5491 -0.7689  0.2006
14120TIP3    H163851   2.365   2.110   5.405 -1.3386 -1.6502 -1.0342
14120TIP3    H263852   2.221   2.112   5.453 -0.9039 -0.2700  0.3089
14121TIP3   OH263853   1.090   3.481   1.338 -0.1537  0.4958 -0.1102
14121TIP3    H163854   1.145   3.521   1.406  0.8824  0.8197 -1.1121
14121TIP3    H263855   1.116   3.389   1.338 -0.7111  0.3293  0.4440
14122TIP3   OH263856   2.917   1.661   5.261 -0.3439  0.1340 -0.0927
14122TIP3    H163857   2.865   1.626   5.334 -2.1644  2.3232 -0.2510
14122TIP3    H263858   2.988   1.710   5.303  1.0282 -1.9159  0.1235
14123TIP3   OH263859   4.410   5.658   3.831 -0.5471 -0.7881 -0.1523
14123TIP3    H163860   4.504   5.647   3.849 -0.6700  0.1422  1.2820
14123TIP3    H263861   4.401   5.643   3.737  1.1936 -0.0531 -0.4726
14124TIP3   OH263862   5.358   3.930   1.724 -0.4915 -0.2706 -0.0821
14124TIP3    H163863   5.384   3.958   1.812  1.0372 -0.0447 -0.5930
14124TIP3    H263864   5.287   3.867   1.740 -2.1526  1.7707  1.1801
14125TIP3   OH263865   4.457   5.332  12.419  0.2978  0.5045 -0.0320
14125TIP3    H163866   4.499   5.271  12.481 -0.6004 -0.8881 -0.7422
14125TIP3    H263867   4.463   5.417  12.462 -0.8176 -0.5000  2.2735
14126TIP3   OH263868   5.798   2.424  17.269  0.2364 -0.2349  0.0492
14126TIP3    H163869   5.827   2.361  17.204 -1.3526 -0.5085 -0.4275
14126TIP3    H263870   5.703   2.425  17.261  0.2307  3.0241 -0.7130
14127TIP3   OH263871   0.965   6.325  12.417  0.0684 -0.0232 -0.1392
14127TIP3    H163872   0.940   6.267  12.345 -2.2480  0.4575  0.2056
14127TIP3    H263873   0.989   6.407  12.375  0.2339 -0.2217 -0.4370
14128TIP3   OH263874   1.320   0.800   2.456  0.3180  0.2796 -0.3191
14128TIP3    H163875   1.261   0.741   2.504  1.2531  0.6222  1.3343
14128TIP3    H263876   1.303   0.782   2.364  1.0557 -3.0765  0.0992
14129TIP3   OH263877   5.553   4.786   1.030  0.1419  0.2236  0.8687
14129TIP3    H163878   5.565   4.880   1.043  0.4762  0.4788 -1.0513
14129TIP3    H263879   5.540   4.776   0.936 -2.4721 -1.3951  1.3183
14130TIP3   OH263880   3.029   6.097   0.844 -0.0901  0.2071 -0.4240
14130TIP3    H163881   3.008   6.097   0.938  1.3955  4.3792  0.1237
14130TIP3    H263882   2.953   6.056   0.803 -0.7534 -1.8981  2.5561
14131TIP3   OH263883   1.951   1.775   5.361  0.4368  0.3736  0.5917
14131TIP3    H163884   1.885   1.816   5.417  1.2782  0.2676  1.6901
14131TIP3    H263885   1.923   1.683   5.354 -0.9807  0.8731 -1.1749
14132TIP3   OH263886   0.805   5.470  13.937  0.2630 -0.2942  0.0368
14132TIP3    H163887   0.741   5.408  13.970  0.0780 -0.0903  0.0613
14132TIP3    H263888   0.753   5.540  13.897  0.4723 -0.2506 -0.1637
14133TIP3   OH263889   1.718   5.684  12.315  0.0011  0.6071 -0.2686
14133TIP3    H163890   1.812   5.682  12.335  0.0952 -1.0168 -0.7772
14133TIP3    H263891   1.677   5.711  12.397  0.6261 -2.9513  1.4163
14134TIP3   OH263892   5.043   0.721   0.395  0.2919  0.2893  0.3257
14134TIP3    H163893   5.031   0.717   0.490  1.2070  2.3720  0.5789
14134TIP3    H263894   4.987   0.651   0.362 -0.0524 -0.5015  2.3852
14135TIP3   OH263895   4.356   2.692  13.086 -0.3451 -0.0555 -0.3609
14135TIP3    H163896   4.333   2.605  13.119 -0.1959  0.0053 -0.0935
14135TIP3    H263897   4.452   2.693  13.083 -0.2330  0.8355  1.7104
14136TIP3   OH263898   3.215   5.144  14.665 -0.3022 -0.1102  0.3565
14136TIP3    H163899   3.195   5.081  14.734 -0.4951  0.4302  0.7998
14136TIP3    H263900   3.141   5.204  14.665 -0.2916 -0.0888 -0.3058
14137TIP3   OH263901   5.751   5.620   0.391 -0.0402  0.4429  0.1423
14137TIP3    H163902   5.799   5.660   0.464  0.7843  0.4476 -0.3787
14137TIP3    H263903   5.722   5.694   0.338 -3.0283  0.6339  1.8152
14138TIP3   OH263904   6.664   1.714   5.383 -0.9140 -0.3089  0.2786
14138TIP3    H163905   6.642   1.695   5.475 -0.5367  0.8108  0.6197
14138TIP3    H263906   6.734   1.652   5.362  0.3563  0.6769  1.3875
14139TIP3   OH263907   1.849   6.559   5.148  0.4328  0.3823 -0.0605
14139TIP3    H163908   1.837   6.477   5.100 -0.5733 -0.8945  2.1650
14139TIP3    H263909   1.761   6.598   5.152  0.6449  0.8552  0.0490
14140TIP3   OH263910   6.585   2.742  16.145  0.2456  0.9199  0.3262
14140TIP3    H163911   6.635   2.775  16.071 -1.6635 -1.0179 -2.0002
14140TIP3    H263912   6.639   2.671  16.180  0.5315  0.8849 -0.1729
14141TIP3   OH263913   0.270   2.410   6.465 -0.2124  0.2156  0.1576
14141TIP3    H163914   0.240   2.455   6.386  0.2109 -1.0643 -0.7654
14141TIP3    H263915   0.190   2.379   6.507 -0.3959  0.1079 -0.2655
14142TIP3   OH263916   1.627   5.158   2.096  0.1970  0.0402  0.8219
14142TIP3    H163917   1.574   5.096   2.145 -0.5186 -0.3556 -0.4026
14142TIP3    H263918   1.564   5.214   2.050  0.8175  1.7676  1.9597
14143TIP3   OH263919   2.487   1.535   4.464 -0.0490  0.5387 -0.2399
14143TIP3    H163920   2.579   1.544   4.440  0.6702  1.2608  2.3988
14143TIP3    H263921   2.466   1.617   4.510 -1.4693 -0.3068  0.6978
14144TIP3   OH263922   4.463   0.083  15.446  0.3117 -0.1007 -0.0680
14144TIP3    H163923   4.436   0.024  15.516 -0.5629 -0.5725 -0.7898
14144TIP3    H263924   4.381   0.121  15.414  0.7409  0.4145 -0.5673
14145TIP3   OH263925   5.113   6.225   4.106 -0.0702  0.2462  0.2558
14145TIP3    H163926   5.085   6.244   4.016  1.6860  2.8658  0.1564
14145TIP3    H263927   5.193   6.275   4.117  0.8151 -1.5311  2.7225
14146TIP3   OH263928   1.217   2.775  16.384 -0.0302  0.3596 -0.5533
14146TIP3    H163929   1.214   2.703  16.322 -2.1458  0.2946 -0.4349
14146TIP3    H263930   1.226   2.854  16.330 -1.8574  0.3040 -0.9713
14147TIP3   OH263931   3.959   1.363   3.865  1.2753 -0.6348 -0.3414
14147TIP3    H163932   3.871   1.349   3.830  0.7732  0.5770  0.3616
14147TIP3    H263933   3.996   1.432   3.809  1.4016 -0.4519 -0.0374
14148TIP3   OH263934   4.722   4.242   2.457 -0.0625 -0.0855 -0.1446
14148TIP3    H163935   4.719   4.150   2.484  0.3322 -0.2914 -0.7841
14148TIP3    H263936   4.632   4.273   2.465 -0.1604 -0.4786  0.2499
14149TIP3   OH263937   1.751   4.697  10.794  0.0993  0.0666  0.1273
14149TIP3    H163938   1.835   4.705  10.748  0.0101  1.7721  0.2136
14149TIP3    H263939   1.689   4.673  10.725 -0.0400  2.6343 -0.7238
14150TIP3   OH263940   0.285   1.224  14.421  0.2103  0.0523 -0.0861
14150TIP3    H163941   0.256   1.147  14.371 -0.3275  0.9193 -1.1458
14150TIP3    H263942   0.224   1.230  14.494  1.2716 -1.4943  1.0136
14151TIP3   OH263943   5.421   6.237   3.092 -0.1940  0.4386 -0.1885
14151TIP3    H163944   5.460   6.323   3.105 -0.1832  0.3986  0.0431
14151TIP3    H263945   5.327   6.254   3.084 -0.2125  0.4495  0.0621
14152TIP3   OH263946   4.463   3.831   0.418 -0.0740 -0.5280  0.9520
14152TIP3    H163947   4.496   3.921   0.410 -1.3997 -0.1857 -1.0811
14152TIP3    H263948   4.462   3.797   0.329 -1.9752 -1.6900  1.3650
14153TIP3   OH263949   4.206   3.503   6.011 -1.1667  0.1852 -0.1041
14153TIP3    H163950   4.288   3.507   6.061 -1.3811  0.2971  0.2433
14153TIP3    H263951   4.168   3.591   6.020 -1.8530 -0.1724  0.6484
14154TIP3   OH263952   3.840   2.405   3.955 -0.3053  0.1601  0.2993
14154TIP3    H163953   3.879   2.438   4.036 -1.2759  1.3304  0.3203
14154TIP3    H263954   3.749   2.387   3.977 -1.2023  2.5939 -0.9924
14155TIP3   OH263955   2.547   1.683   5.929 -0.1223 -0.2212  0.3057
14155TIP3    H163956   2.488   1.609   5.947  0.4873 -0.7360  0.2286
14155TIP3    H263957   2.622   1.643   5.884 -0.8251  0.7695 -1.8701
14156TIP3   OH263958   0.247   1.429  13.579  0.3937  0.0037 -0.0598
14156TIP3    H163959   0.164   1.445  13.624  0.2069  0.4214 -0.5550
14156TIP3    H263960   0.293   1.513  13.581  1.6073 -0.6255  1.7936
14157TIP3   OH263961   2.523   1.189  14.081 -0.4870 -0.1018 -0.2305
14157TIP3    H163962   2.462   1.136  14.130 -0.3621 -1.2617 -1.2712
14157TIP3    H263963   2.486   1.192  13.992 -0.0449  0.8328 -0.3952
14158TIP3   OH263964   0.363   1.039  16.469  0.2871  0.0024 -0.2925
14158TIP3    H163965   0.458   1.029  16.479 -0.1498 -3.5608  2.6395
14158TIP3    H263966   0.336   1.088  16.546 -0.3120  0.8767 -1.0404
14159TIP3   OH263967   1.399   6.631  13.793 -0.2729  0.4305  0.5839
14159TIP3    H163968   1.456   6.675  13.856  1.0463  0.7323 -0.7424
14159TIP3    H263969   1.369   6.702  13.735 -1.7649  0.2181  1.0552
14160TIP3   OH263970   6.546   3.340   0.984  0.2138 -0.4031 -0.1958
14160TIP3    H163971   6.539   3.311   1.075 -0.3711 -0.7960 -0.3588
14160TIP3    H263972   6.618   3.403   0.984 -0.2349  0.1320  0.6782
14161TIP3   OH263973   3.952   6.335  16.645 -0.3601 -0.0817 -0.0238
14161TIP3    H163974   3.991   6.396  16.582  1.2062 -1.5419 -0.5599
14161TIP3    H263975   4.008   6.341  16.722 -0.0219 -1.0293 -0.1876
14162TIP3   OH263976   3.037   5.254   1.065  0.5353  0.4336  0.2807
14162TIP3    H163977   3.055   5.347   1.046 -1.1475  0.7774  0.2792
14162TIP3    H263978   3.013   5.217   0.981 -1.0944  0.5616  0.6700
14163TIP3   OH263979   0.160   4.560  13.102 -0.3370 -0.1907 -0.8098
14163TIP3    H163980   0.068   4.574  13.080 -0.3768 -0.0155 -0.5460
14163TIP3    H263981   0.162   4.557  13.198 -0.5515 -3.6417 -0.7896
14164TIP3   OH263982   6.400   5.018   0.192 -0.0822 -0.1311  0.1719
14164TIP3    H163983   6.429   5.101   0.229  2.7124 -1.2013  0.5783
14164TIP3    H263984   6.357   4.973   0.265 -1.9696  1.0432 -0.1540
14165TIP3   OH263985   6.766   0.072   1.860 -0.0737 -0.4545  0.3930
14165TIP3    H163986   6.830   0.054   1.929 -1.1728  1.4890  2.0056
14165TIP3    H263987   6.713  -0.008   1.855  0.0334 -0.6353  1.7967
14166TIP3   OH263988   6.368   4.021   3.462  0.5379  0.0830  0.1125
14166TIP3    H163989   6.343   3.937   3.501 -0.3107 -0.0871 -0.7625
14166TIP3    H263990   6.287   4.054   3.422  1.2687  0.4703 -1.0921
14167TIP3   OH263991   6.016   1.531  17.150  0.6538  0.3002  0.0985
14167TIP3    H163992   6.038   1.437  17.150  1.5941  0.5119 -0.2859
14167TIP3    H263993   6.076   1.570  17.213 -0.4560  0.5041  1.0632
14168TIP3   OH263994   2.645   6.608  11.016  0.1531  0.2104  0.7069
14168TIP3    H163995   2.691   6.584  10.935 -1.2694  1.6858 -0.6134
14168TIP3    H263996   2.643   6.704  11.014 -0.3184  0.2567  2.2729
14169TIP3   OH263997   2.347   5.926  14.667 -0.9520 -0.1828  0.2146
14169TIP3    H163998   2.427   5.943  14.718 -1.8345  2.7205  0.8316
14169TIP3    H263999   2.377   5.930  14.576 -0.1023 -1.0319  0.4352
14170TIP3   OH264000   2.377   5.689   4.292  0.4614  0.3513 -0.3093
14170TIP3    H164001   2.288   5.655   4.291  0.4120  0.4168  0.9228
14170TIP3    H264002   2.424   5.635   4.228 -0.3974  0.1690 -0.8030
14171TIP3   OH264003   1.221   1.080  12.597 -0.1896 -0.1920  0.4140
14171TIP3    H164004   1.158   1.097  12.666 -1.1254 -0.4614 -0.3609
14171TIP3    H264005   1.231   0.985  12.596 -0.4083 -0.2130 -0.0168
14172TIP3   OH264006   4.834   6.519  14.805 -0.3180  0.2741  0.1831
14172TIP3    H164007   4.749   6.560  14.822 -0.2554  2.3331 -3.4320
14172TIP3    H264008   4.828   6.489  14.714  2.8599  0.6796 -0.2720
14173TIP3   OH264009   3.919   2.283  14.725  0.4006 -0.1488 -0.1350
14173TIP3    H164010   3.935   2.376  14.708  0.9557 -0.0374  0.9005
14173TIP3    H264011   3.834   2.280  14.768 -0.5640 -0.3430 -1.9321
14174TIP3   OH264012   3.912   0.428   0.944 -0.0093  0.5347  0.7105
14174TIP3    H164013   3.904   0.335   0.965 -0.4732 -0.0480 -1.7748
14174TIP3    H264014   3.986   0.459   0.997  0.4695 -1.3565  1.1988
14175TIP3   OH264015   3.076   1.536   2.308  0.0613 -0.9007  0.0878
14175TIP3    H164016   3.057   1.624   2.339  0.8637 -0.6051 -0.2343
14175TIP3    H264017   2.990   1.498   2.290 -0.2996 -0.2673  0.4453
14176TIP3   OH264018   3.224   3.402  11.432  0.5991  0.0996  0.0190
14176TIP3    H164019   3.231   3.459  11.355  0.4920 -0.3112 -0.2966
14176TIP3    H264020   3.203   3.316  11.397  0.9305 -0.1772  0.4833
14177TIP3   OH264021   3.149   4.382   3.198  0.0960 -0.1097 -0.0013
14177TIP3    H164022   3.111   4.301   3.231  2.4198 -1.2600  0.1075
14177TIP3    H264023   3.165   4.435   3.277  0.9679 -0.6980  0.2346
14178TIP3   OH264024   2.829   5.476  12.047  0.1738  0.0251  0.8157
14178TIP3    H164025   2.772   5.400  12.059 -0.5812  0.5380  0.5359
14178TIP3    H264026   2.915   5.439  12.025 -0.5360 -0.7219 -0.8362
14179TIP3   OH264027   5.081   4.480  12.866  0.0582 -0.4043 -0.7473
14179TIP3    H164028   4.986   4.481  12.873  0.0788 -0.7343 -0.4085
14179TIP3    H264029   5.104   4.570  12.843 -0.2990 -0.1930 -0.2949
14180TIP3   OH264030   1.135   2.396  16.423 -0.1529  0.3155 -0.1909
14180TIP3    H164031   1.207   2.338  16.451 -0.4781  0.9044  2.0210
14180TIP3    H264032   1.056   2.344  16.437 -0.3115  0.5225 -0.3223
14181TIP3   OH264033   3.290   1.027   3.811 -0.6449 -0.0525  0.3563
14181TIP3    H164034   3.242   1.050   3.731 -0.9920 -0.2945  0.4913
14181TIP3    H264035   3.240   0.954   3.849  0.1165 -0.6679  0.2240
14182TIP3   OH264036   1.459   0.360   2.567  0.2687 -0.1403  0.6647
14182TIP3    H164037   1.402   0.302   2.618 -0.6713  0.4765  0.3417
14182TIP3    H264038   1.400   0.404   2.506  1.5718 -2.1847 -2.3199
14183TIP3   OH264039   6.097   2.759  13.588 -0.5004  0.4068 -0.2251
14183TIP3    H164040   6.161   2.772  13.518 -0.9914  2.9271 -0.2767
14183TIP3    H264041   6.135   2.804  13.663 -1.1682 -0.0631  0.4075
14184TIP3   OH264042   1.246   3.768   1.827 -0.4041 -0.1029  0.5067
14184TIP3    H164043   1.197   3.751   1.907 -1.0485  0.7534  0.3030
14184TIP3    H264044   1.232   3.690   1.773 -2.3271  0.5179  0.0651
14185TIP3   OH264045   1.768   4.879   4.391 -0.0253 -0.3406  0.0397
14185TIP3    H164046   1.743   4.971   4.379  0.3819 -0.5351 -3.2120
14185TIP3    H264047   1.685   4.831   4.388 -0.1640 -0.1503  0.7991
14186TIP3   OH264048   0.055   1.583   0.412  0.1954 -0.1896  0.2928
14186TIP3    H164049   0.090   1.642   0.345 -0.1912  1.0508  1.1336
14186TIP3    H264050  -0.030   1.554   0.378  0.4658 -0.4062 -0.2047
14187TIP3   OH264051   1.311   4.238  11.201  0.0662 -0.0877  0.1585
14187TIP3    H164052   1.361   4.183  11.141  1.0927  0.4400  0.4943
14187TIP3    H264053   1.373   4.306  11.228 -0.0140 -0.8588  2.5792
14188TIP3   OH264054   4.410   6.041  14.731  0.2128 -0.2571  1.0447
14188TIP3    H164055   4.499   6.070  14.710  0.2807 -2.2060 -1.9583
14188TIP3    H264056   4.419   5.997  14.816  1.9546  0.1777  1.1206
14189TIP3   OH264057   5.987   4.335   3.760  0.3956 -0.1211  0.6079
14189TIP3    H164058   5.955   4.387   3.685  1.5805  1.4448  1.1282
14189TIP3    H264059   6.075   4.307   3.733  0.0129 -1.3388  0.6021
14190TIP3   OH264060   5.124   0.881  15.565 -0.1816  0.1315 -0.0383
14190TIP3    H164061   5.031   0.857  15.565 -0.7854  2.1038 -2.1033
14190TIP3    H264062   5.124   0.977  15.558  1.9569  0.0951 -1.7954
14191TIP3   OH264063   2.097   5.485  16.125 -0.4899 -0.5312  0.0415
14191TIP3    H164064   2.151   5.438  16.189 -1.9506  0.2942  1.9886
14191TIP3    H264065   2.134   5.573  16.122 -1.5118 -0.0324  1.2028
14192TIP3   OH264066   0.132   4.140  14.092  0.8905 -0.6421 -0.2252
14192TIP3    H164067   0.218   4.154  14.131  0.3556 -0.3906  0.8907
14192TIP3    H264068   0.104   4.228  14.064  0.3174 -0.4750  0.8633
14193TIP3   OH264069   1.137   1.262  11.204 -0.0494  0.1282 -0.5079
14193TIP3    H164070   1.147   1.340  11.150  2.1818  1.3287  1.4397
14193TIP3    H264071   1.053   1.273  11.248  0.4294  1.6772  0.0594
14194TIP3   OH264072   5.141   3.837  12.665  0.3487 -0.1351  0.0949
14194TIP3    H164073   5.113   3.845  12.574  1.3524  2.1347 -0.0752
14194TIP3    H264074   5.161   3.743  12.675  3.0666 -0.0976 -2.9421
14195TIP3   OH264075   5.824   5.109  15.488 -0.2759 -0.1753  0.6669
14195TIP3    H164076   5.904   5.134  15.442  0.9683  0.4815  3.0073
14195TIP3    H264077   5.756   5.166  15.453  0.7123  0.6241  0.0163
14196TIP3   OH264078   6.208   0.872   3.458  0.1810  0.6444  0.3935
14196TIP3    H164079   6.195   0.864   3.363  2.2109  3.0449 -0.1986
14196TIP3    H264080   6.125   0.907   3.491 -0.0738  1.1299 -0.7288
14197TIP3   OH264081   2.996   0.070   4.300 -0.7998 -0.1541  0.2283
14197TIP3    H164082   3.040  -0.007   4.265  0.3357  0.3948  0.4231
14197TIP3    H264083   3.063   0.138   4.303 -1.9745  1.1398 -0.8070
14198TIP3   OH264084   1.118   2.336   1.790 -0.4881  0.9544 -0.4837
14198TIP3    H164085   1.125   2.264   1.727 -1.0798  1.1529 -0.7874
14198TIP3    H264086   1.061   2.400   1.747  1.8302  2.6653 -1.1866
14199TIP3   OH264087   6.747   2.523  16.191 -0.3256  0.0257 -0.1605
14199TIP3    H164088   6.820   2.467  16.217 -0.2118  0.2806  0.0770
14199TIP3    H264089   6.772   2.557  16.105 -1.1304 -1.5722 -1.0761
14200TIP3   OH264090   6.073   6.284  17.199  0.2174  0.1195  0.3696
14200TIP3    H164091   6.007   6.273  17.268  0.0637 -0.1642  0.1776
14200TIP3    H264092   6.148   6.232  17.230  0.2430  0.1978  0.4417
14201TIP3   OH264093   0.368   5.787  13.049 -0.0488 -0.6190  0.3003
14201TIP3    H164094   0.277   5.800  13.023  0.4764  0.8758 -0.9354
14201TIP3    H264095   0.401   5.720  12.989  0.3397  0.6988 -1.0186
14202TIP3   OH264096   1.721   0.463  14.546  0.9509  0.1362  0.0554
14202TIP3    H164097   1.702   0.492  14.457 -1.6019 -0.4223  0.3213
14202TIP3    H264098   1.703   0.369  14.545  2.6922 -0.2375  0.7578
14203TIP3   OH264099   3.331   0.513  11.250  0.4953  0.0809  0.2178
14203TIP3    H164100   3.299   0.440  11.303  1.1045 -0.5405 -0.2542
14203TIP3    H264101   3.281   0.508  11.169  0.5770  0.1563  0.1629
14204TIP3   OH264102   3.805   4.494   2.571 -0.1304  0.3096  0.3725
14204TIP3    H164103   3.761   4.447   2.501  0.5721  0.6087 -0.2842
14204TIP3    H264104   3.735   4.522   2.630 -0.6027 -1.1655  0.5503
14205TIP3   OH264105   1.477   4.473  13.744 -0.1792  0.0039 -0.2704
14205TIP3    H164106   1.429   4.555  13.737 -1.1777 -0.5504 -0.1985
14205TIP3    H264107   1.569   4.498  13.750 -0.3439  1.0547 -1.7000
14206TIP3   OH264108   1.851   4.181  12.797 -0.3041  0.1178 -0.0056
14206TIP3    H164109   1.831   4.087  12.796 -0.0146  0.0618 -0.6246
14206TIP3    H264110   1.944   4.185  12.817 -0.1088  0.2287 -0.8820
14207TIP3   OH264111   0.018   4.306  10.621  0.3356  0.0070  0.3267
14207TIP3    H164112  -0.018   4.229  10.666 -1.0946 -0.4082 -1.3899
14207TIP3    H264113  -0.058   4.348  10.580  1.4351  0.7852 -1.0353
14208TIP3   OH264114   2.574   5.930   5.670 -0.5444  0.2585 -0.3012
14208TIP3    H164115   2.655   5.952   5.715  0.5246 -1.5357 -1.2433
14208TIP3    H264116   2.512   5.910   5.741  0.9616 -2.0316  0.4741
14209TIP3   OH264117   4.104   3.443  10.944 -0.1125 -0.6820 -0.3960
14209TIP3    H164118   4.150   3.360  10.956 -0.9986 -1.6052 -2.7772
14209TIP3    H264119   4.137   3.478  10.861  1.4377  2.2682  1.2876
14210TIP3   OH264120   3.111   6.424   0.554 -1.1638  0.0634  0.2348
14210TIP3    H164121   3.041   6.430   0.489 -2.4831  0.8627  1.6858
14210TIP3    H264122   3.116   6.331   0.574 -0.5217 -0.2480 -1.1841
14211TIP3   OH264123   1.197   0.636  13.571  0.5193  0.3796 -0.1988
14211TIP3    H164124   1.152   0.707  13.526  2.2528  1.0578 -0.9267
14211TIP3    H264125   1.219   0.574  13.502  1.9464  0.7547 -0.1184
14212TIP3   OH264126   5.501   2.733  16.234 -0.4706 -0.0910  0.1606
14212TIP3    H164127   5.458   2.788  16.169  1.6987  0.5286 -0.8528
14212TIP3    H264128   5.586   2.775  16.249  0.8542 -2.5325  0.1419
14213TIP3   OH264129   5.191   6.563   4.838  0.1738  0.5427  0.8336
14213TIP3    H164130   5.119   6.626   4.830 -0.7144 -0.5844 -0.7222
14213TIP3    H264131   5.150   6.484   4.875  0.5774 -0.1056 -0.0457
14214TIP3   OH264132   6.192   1.590  13.152 -0.3853 -0.1724  0.6449
14214TIP3    H164133   6.259   1.521  13.154 -0.0862  0.1249  0.9805
14214TIP3    H264134   6.207   1.636  13.070 -1.6226 -1.5108 -0.3995
14215TIP3   OH264135   6.146   1.626   6.463  0.0859  0.0764 -0.7529
14215TIP3    H164136   6.185   1.706   6.497  0.6643 -1.1321  1.6923
14215TIP3    H264137   6.057   1.651   6.437  1.1695  2.0805 -2.9570
14216TIP3   OH264138   6.407   0.982   3.286  0.9047 -1.0340 -0.2268
14216TIP3    H164139   6.330   0.925   3.276  0.8061 -0.7525 -1.0766
14216TIP3    H264140   6.456   0.971   3.205  0.6897  0.3940 -0.5714
14217TIP3   OH264141   0.787   2.005   4.245  0.6334 -0.2877  0.1371
14217TIP3    H164142   0.880   2.027   4.237  1.0030 -1.2993  1.3096
14217TIP3    H264143   0.786   1.923   4.295 -0.8283 -1.1031 -1.1415
14218TIP3   OH264144   3.298   5.441  15.783 -0.1998  0.3006  0.2044
14218TIP3    H164145   3.387   5.468  15.804  0.1851  0.8262 -1.9197
14218TIP3    H264146   3.308   5.365  15.726 -1.1587 -0.4422  0.9811
14219TIP3   OH264147   3.730   4.142   0.240 -0.1230  0.2116 -0.3994
14219TIP3    H164148   3.723   4.237   0.249  0.1578  0.1296  0.8962
14219TIP3    H264149   3.646   4.109   0.271 -0.3395  0.0526 -1.1566
14220TIP3   OH264150   4.679   0.733   2.970 -0.6785 -0.3678  0.1414
14220TIP3    H164151   4.652   0.824   2.981 -1.2555 -0.5540  0.2907
14220TIP3    H264152   4.747   0.720   3.036  0.6842  0.4515 -1.0350
14221TIP3   OH264153   4.395   0.446  17.070  0.0830  0.1453  1.2305
14221TIP3    H164154   4.301   0.457  17.084  0.1458 -0.7365  2.4769
14221TIP3    H264155   4.422   0.384  17.137  1.4774  0.0227  0.5842
14222TIP3   OH264156   1.089   2.728  14.632 -0.3614  0.1671  0.3865
14222TIP3    H164157   1.034   2.755  14.705 -0.1457  1.5751  0.0479
14222TIP3    H264158   1.141   2.805  14.611 -0.0470 -0.3766 -0.9323
14223TIP3   OH264159   6.248   3.114  12.253 -0.7593 -0.1851  0.6166
14223TIP3    H164160   6.266   3.120  12.159 -0.1727  1.2458  0.8027
14223TIP3    H264161   6.323   3.067  12.289 -1.0381 -0.8342  0.3667
14224TIP3   OH264162   0.616   1.310  16.104  0.0168  0.1814 -0.3875
14224TIP3    H164163   0.631   1.285  16.013  1.0270 -1.1591  0.1061
14224TIP3    H264164   0.548   1.251  16.135 -1.5261  1.7261 -0.6946
14225TIP3   OH264165   4.487   5.261  15.571  0.7116  0.1400  0.0306
14225TIP3    H164166   4.453   5.307  15.648  0.9034  1.1247 -0.4666
14225TIP3    H264167   4.561   5.314  15.541  0.4420 -0.0623 -1.0318
14226TIP3   OH264168   3.567   4.074  12.540 -0.2117  0.0594 -0.1309
14226TIP3    H164169   3.594   4.145  12.599  1.3417  0.0529 -0.7915
14226TIP3    H264170   3.509   4.117  12.477  1.8937  1.1577 -1.4485
14227TIP3   OH264171   6.001   5.029  10.989  0.1323 -0.1021 -0.4196
14227TIP3    H164172   5.946   5.073  11.054 -0.9205 -2.1496  0.1473
14227TIP3    H264173   5.987   5.079  10.909 -0.0862  1.2898  0.4495
14228TIP3   OH264174   5.159   0.770  14.369  0.9080 -0.1415  0.5975
14228TIP3    H164175   5.158   0.674  14.377 -2.5769 -0.3368 -0.5002
14228TIP3    H264176   5.102   0.800  14.439  1.0807  1.0768  0.2304
14229TIP3   OH264177   0.214   5.487   4.915 -0.1108  0.4536 -0.0938
14229TIP3    H164178   0.162   5.407   4.921  2.0904 -1.0096  0.5239
14229TIP3    H264179   0.200   5.532   4.998 -2.7475  1.7064 -1.1119
14230TIP3   OH264180   3.160   4.207  11.478  0.3369  0.5479 -0.4386
14230TIP3    H164181   3.127   4.161  11.400  0.3640  0.2283 -0.2635
14230TIP3    H264182   3.096   4.276  11.494  1.6521  2.3196 -2.2959
14231TIP3   OH264183   0.615   3.513   3.191 -0.6173  0.2497 -0.4004
14231TIP3    H164184   0.522   3.520   3.169 -0.3428  0.3932 -1.5700
14231TIP3    H264185   0.658   3.497   3.108  0.4817  0.8482  0.0370
14232TIP3   OH264186   0.005   5.292  16.808  0.1199  0.2360 -0.7599
14232TIP3    H164187   0.084   5.345  16.801  0.3740 -0.0392 -0.0213
14232TIP3    H264188   0.000   5.267  16.900  0.2876 -1.4640 -1.1842
14233TIP3   OH264189   1.836   6.454  16.922 -0.1965  0.0701 -0.2072
14233TIP3    H164190   1.849   6.365  16.890  1.0311  0.4096 -0.7107
14233TIP3    H264191   1.882   6.457  17.005 -1.1661 -0.0616  0.3503
14234TIP3   OH264192   2.312   5.574   0.008  0.0264  0.0523 -0.1952
14234TIP3    H164193   2.320   5.480   0.028  3.8142  0.1397 -0.5885
14234TIP3    H264194   2.350   5.618   0.084  0.5292  1.1283 -1.0480
14235TIP3   OH264195   1.452   4.486   1.155  0.5665  0.1798  0.0156
14235TIP3    H164196   1.473   4.577   1.177 -1.3572  0.9500 -1.1153
14235TIP3    H264197   1.496   4.472   1.071  0.2313  0.3172 -0.1825
14236TIP3   OH264198   4.881   1.669  13.172 -0.5389 -0.0899 -0.2115
14236TIP3    H164199   4.949   1.718  13.217 -1.4092  0.1250  0.9258
14236TIP3    H264200   4.919   1.582  13.157 -0.1066 -0.0561  0.6377
14237TIP3   OH264201   2.726   3.087  12.003  0.3912  0.4490 -0.0341
14237TIP3    H164202   2.641   3.050  12.029  1.2029  0.4009  2.8452
14237TIP3    H264203   2.723   3.178  12.031  1.0047  0.6802 -0.6848
14238TIP3   OH264204   6.157   0.657   2.908  0.2258 -0.4882 -0.8070
14238TIP3    H164205   6.247   0.629   2.922 -0.0363 -2.1104 -2.0849
14238TIP3    H264206   6.150   0.669   2.813 -0.3618  1.7088 -0.5593
14239TIP3   OH264207   0.105   6.197   0.171 -0.3500  0.4464  0.7051
14239TIP3    H164208   0.017   6.159   0.177 -0.1543  0.0479  1.0385
14239TIP3    H264209   0.095   6.284   0.210 -0.8760  0.8929 -0.3798
14240TIP3   OH264210   2.371   0.163  14.597  0.1794 -0.0920 -0.2347
14240TIP3    H164211   2.457   0.194  14.568 -0.9585  0.6439 -3.1793
14240TIP3    H264212   2.308   0.221  14.554 -1.8335 -1.2019  1.0500
14241TIP3   OH264213   2.758   4.501   0.041 -0.1638  0.5061  0.6180
14241TIP3    H164214   2.696   4.441  -0.000 -1.2034  2.3086 -0.6291
14241TIP3    H264215   2.755   4.480   0.134 -0.8817 -0.9845  0.2785
14242TIP3   OH264216   5.360   2.182   4.026  0.1109  0.0861 -0.1805
14242TIP3    H164217   5.442   2.139   3.999 -0.6146 -1.2689 -0.3286
14242TIP3    H264218   5.388   2.256   4.079  1.4474 -0.1391 -0.5306
14243TIP3   OH264219   5.205   0.661   2.750  0.2380  0.4187  0.0805
14243TIP3    H164220   5.272   0.656   2.682 -1.7586  1.3498 -2.0792
14243TIP3    H264221   5.122   0.648   2.704 -1.3463  2.7015  2.0544
14244TIP3   OH264222   3.995   1.694  11.948  0.0502 -0.9898 -0.4956
14244TIP3    H164223   3.967   1.784  11.932  0.6488 -0.6108  0.5236
14244TIP3    H264224   3.962   1.645  11.872 -0.0903  0.1198 -1.1730
14245TIP3   OH264225   2.625   2.008  12.189  0.0364  0.3635 -0.1440
14245TIP3    H164226   2.595   2.035  12.276  0.2728  1.4607 -0.3913
14245TIP3    H264227   2.714   2.042  12.183 -0.1337  0.6781 -0.9784
14246TIP3   OH264228   0.261   6.097   0.526 -0.1013 -0.4405 -0.3252
14246TIP3    H164229   0.181   6.146   0.509  0.2383  0.0673 -0.4953
14246TIP3    H264230   0.288   6.065   0.440 -0.0038 -0.4173 -0.3036
14247TIP3   OH264231   2.511   5.943   2.793 -0.2581 -0.1417 -0.5399
14247TIP3    H164232   2.524   5.848   2.792 -0.7544 -0.2125 -1.1898
14247TIP3    H264233   2.599   5.980   2.785  0.2442 -0.4831  2.3048
14248TIP3   OH264234   1.481   5.583  11.929 -0.4503 -0.1159 -0.0772
14248TIP3    H164235   1.488   5.602  12.023  0.5619 -0.8368  0.0190
14248TIP3    H264236   1.525   5.498  11.919 -0.8449 -0.2078 -1.1576
14249TIP3   OH264237   1.059   0.268  11.701  0.1589  0.1240  0.2721
14249TIP3    H164238   1.063   0.173  11.703 -1.0191  0.0556  0.0736
14249TIP3    H264239   0.973   0.290  11.736 -0.4255  0.9976 -1.5361
14250TIP3   OH264240   3.301   2.153  17.085 -0.2226 -0.3341  0.6926
14250TIP3    H164241   3.310   2.192  16.998 -1.4984 -1.7246 -0.1177
14250TIP3    H264242   3.372   2.089  17.090 -1.2506 -1.5887 -0.1311
14251TIP3   OH264243   1.590   4.280  15.485 -0.1213  0.2395 -0.0648
14251TIP3    H164244   1.655   4.320  15.543 -1.6833  0.6003  1.5308
14251TIP3    H264245   1.626   4.194  15.465  1.3884  0.8573 -0.2026
14252TIP3   OH264246   0.697   0.262  14.753  0.3477  0.2848 -0.1421
14252TIP3    H164247   0.708   0.343  14.804  0.8172 -0.6595  1.2988
14252TIP3    H264248   0.701   0.192  14.817  1.5492 -1.0122 -1.5340
14253TIP3   OH264249   0.616   0.739   3.847  0.2499 -0.4988  0.0050
14253TIP3    H164250   0.711   0.754   3.850  0.1922  0.2529 -1.2734
14253TIP3    H264251   0.585   0.795   3.776 -1.0092 -1.5288 -0.2909
14254TIP3   OH264252   3.966   6.018  15.413  0.4153 -0.0963  0.3896
14254TIP3    H164253   3.891   6.016  15.354  0.7709 -1.3635 -0.0547
14254TIP3    H264254   3.994   6.110  15.413 -0.7792  0.2910  0.1364
14255TIP3   OH264255   0.561   1.955   1.964 -0.7516  0.2549 -0.5294
14255TIP3    H164256   0.575   1.932   2.056  1.8262  0.5647 -0.7658
14255TIP3    H264257   0.573   1.873   1.916 -1.3158  0.2386 -0.6453
14256TIP3   OH264258   4.189   5.157   1.886 -0.2439  0.7200 -0.6454
14256TIP3    H164259   4.220   5.099   1.955 -1.2879 -0.0227 -0.7649
14256TIP3    H264260   4.215   5.113   1.805  2.6577  2.5127 -0.8034
14257TIP3   OH264261   5.398   4.551   1.368  0.0903 -0.4871  0.0244
14257TIP3    H164262   5.368   4.467   1.403  0.4407 -0.2779  0.8416
14257TIP3    H264263   5.327   4.612   1.389  0.9629 -0.0228  1.8292
14258TIP3   OH264264   4.637   2.588   5.628  0.6363  0.0479 -0.2281
14258TIP3    H164265   4.554   2.635   5.621  0.5438 -0.0492  0.1772
14258TIP3    H264266   4.618   2.514   5.685  0.5948 -0.9270 -1.4684
14259TIP3   OH264267   1.654   6.311  14.065 -0.1069 -0.2623 -0.1339
14259TIP3    H164268   1.612   6.348  13.987 -0.8781 -1.3954 -0.2738
14259TIP3    H264269   1.701   6.234  14.033  0.9766  0.2128  0.2571
14260TIP3   OH264270   4.895   3.843  14.482  0.0083 -0.2711  0.1506
14260TIP3    H164271   4.815   3.790  14.492 -1.6751  1.9624 -0.7066
14260TIP3    H264272   4.886   3.913  14.546  1.0292  0.3478 -0.3591
14261TIP3   OH264273   4.048   3.508  15.913 -0.1895  0.0409 -0.4040
14261TIP3    H164274   4.115   3.463  15.862 -0.0083 -2.0198  1.5179
14261TIP3    H264275   3.965   3.481  15.874 -0.0252 -0.9203 -0.1136
14262TIP3   OH264276   6.503   1.088   0.557 -0.3185  0.1856  0.7110
14262TIP3    H164277   6.496   1.071   0.463 -0.9182 -0.2507  0.8280
14262TIP3    H264278   6.428   1.145   0.576 -0.8344 -0.6112  1.1148
14263TIP3   OH264279   0.198   5.548  13.161 -0.2834  0.2245  0.0939
14263TIP3    H164280   0.269   5.572  13.221  0.0480 -0.2218 -0.1125
14263TIP3    H264281   0.242   5.501  13.090 -0.8172 -0.2622  0.0819
14264TIP3   OH264282   6.084   2.159  15.917  0.0336  0.4465 -0.1129
14264TIP3    H164283   6.035   2.193  15.991  0.4871 -0.0403  0.4215
14264TIP3    H264284   6.129   2.081  15.951 -0.0783 -0.0264 -1.0021
14265TIP3   OH264285   3.813   2.953  14.624 -0.1501 -0.2935  0.4059
14265TIP3    H164286   3.734   2.912  14.660  0.4846 -0.8304  1.2406
14265TIP3    H264287   3.847   2.888  14.562 -0.6460  0.1673 -0.3632
14266TIP3   OH264288   2.486   3.998  13.758 -0.3839 -0.2035 -0.3484
14266TIP3    H164289   2.472   3.905  13.772  0.5029 -0.2366  0.4055
14266TIP3    H264290   2.546   4.024  13.828 -0.3447  0.8543 -0.7602
14267TIP3   OH264291   4.214   6.753   4.120 -0.1741  0.7959  0.2433
14267TIP3    H164292   4.270   6.778   4.193 -0.9111  0.5601  0.8987
14267TIP3    H264293   4.223   6.825   4.057  1.3985  0.4421  0.0105
14268TIP3   OH264294   1.372   3.484  12.135 -0.2722  0.1196 -0.1835
14268TIP3    H164295   1.381   3.552  12.068 -1.8008  1.1552  0.6202
14268TIP3    H264296   1.456   3.438  12.133  0.1598  0.8799 -1.9705
14269TIP3   OH264297   5.785   0.042   1.359  0.6160 -0.7885  0.4431
14269TIP3    H164298   5.787  -0.047   1.324  1.3515 -0.5525 -0.1420
14269TIP3    H264299   5.844   0.092   1.302 -1.8093  0.7291 -0.9444
14270TIP3   OH264300   3.651   1.540   3.954 -0.4559 -0.5654  0.1391
14270TIP3    H164301   3.668   1.538   4.048  0.5764 -1.7014 -0.0566
14270TIP3    H264302   3.673   1.452   3.923  0.7092  0.2180 -1.4182
14271TIP3   OH264303   6.101   1.646   5.690 -0.0836 -0.0525  0.0688
14271TIP3    H164304   6.160   1.689   5.752 -0.5836 -0.7084  1.0219
14271TIP3    H264305   6.040   1.715   5.664  1.1070  0.6493 -0.9725
14272TIP3   OH264306   1.987   1.972   4.574 -0.4406 -0.1611  0.1056
14272TIP3    H164307   2.045   1.952   4.500 -1.3362 -1.0373 -0.3890
14272TIP3    H264308   1.947   2.056   4.551 -1.2815 -0.7898 -0.7845
14273TIP3   OH264309   4.940   1.422  12.051 -0.2938  0.6633 -0.6164
14273TIP3    H164310   4.905   1.508  12.076  0.9623  1.6915 -2.2595
14273TIP3    H264311   5.035   1.432  12.055 -0.0779 -1.2652  1.0362
14274TIP3   OH264312   0.950   0.855  15.622 -0.0124  0.1232  0.4173
14274TIP3    H164313   0.883   0.787  15.629 -0.1715  0.2988  0.6066
14274TIP3    H264314   0.902   0.937  15.624  0.2736  0.2907  1.6292
14275TIP3   OH264315   4.876   1.805   5.991 -0.3735 -0.1467 -0.5052
14275TIP3    H164316   4.785   1.829   5.975 -0.1961  0.0447 -1.2368
14275TIP3    H264317   4.887   1.817   6.085 -0.9902  0.2171 -0.4706
14276TIP3   OH264318   5.093   2.638  13.690  0.1104 -0.4792  0.1077
14276TIP3    H164319   5.003   2.606  13.684 -0.1833  0.4254 -0.4512
14276TIP3    H264320   5.146   2.567  13.655 -0.2948 -1.3581  1.1901
14277TIP3   OH264321   3.905   0.512  12.487  0.1098 -0.2107  0.0846
14277TIP3    H164322   3.920   0.559  12.405  1.6967 -0.4996  0.1859
14277TIP3    H264323   3.988   0.470  12.507 -0.7643 -1.6424  0.9123
14278TIP3   OH264324   4.879   5.832  13.499  0.3275  0.1011  0.4911
14278TIP3    H164325   4.889   5.818  13.405 -2.3749  1.4594 -0.0979
14278TIP3    H264326   4.902   5.748  13.538  2.1673 -0.3100 -1.2777
14279TIP3   OH264327   4.384   1.273   3.363 -0.5937 -0.2742 -0.0782
14279TIP3    H164328   4.343   1.339   3.419 -1.9274  0.3470 -1.6635
14279TIP3    H264329   4.415   1.206   3.423 -1.5305  0.5582  1.4131
14280TIP3   OH264330   4.389   0.424  10.665 -0.3586  0.1058  0.0461
14280TIP3    H164331   4.376   0.384  10.579  2.3310 -1.8997  0.4395
14280TIP3    H264332   4.305   0.415  10.709 -1.5071  0.2979 -2.0106
14281TIP3   OH264333   0.868   3.175  12.460  0.0548  0.0173 -0.0597
14281TIP3    H164334   0.854   3.206  12.549  0.7506  2.3524 -0.6848
14281TIP3    H264335   0.957   3.138  12.461  0.1437  0.2364  0.1591
14282TIP3   OH264336   0.049   5.977   4.346 -0.1617 -0.0895 -0.1918
14282TIP3    H164337  -0.011   5.904   4.327 -0.6477 -0.6705  2.9913
14282TIP3    H264338   0.136   5.941   4.332 -0.4351 -0.0991 -2.1423
14283TIP3   OH264339   5.396   5.381   6.077 -0.6274 -0.7834 -0.3372
14283TIP3    H164340   5.431   5.355   6.163 -1.1758  1.3552  0.5977
14283TIP3    H264341   5.320   5.436   6.098 -1.6287 -1.3448 -2.2389
14284TIP3   OH264342   6.779   2.055  16.684  0.1744  0.3850  0.0976
14284TIP3    H164343   6.843   1.992  16.718  0.3850  0.3467 -0.3587
14284TIP3    H264344   6.712   2.060  16.752  1.0357  0.9891  0.9190
14285TIP3   OH264345   2.980   3.447  14.894  0.2191  0.8384  0.0200
14285TIP3    H164346   3.007   3.404  14.813  1.2015 -1.2299  1.3464
14285TIP3    H264347   3.013   3.537  14.886  0.2795  0.6789 -1.8508
14286TIP3   OH264348   5.460   4.302   4.955  0.0022 -0.1417  0.1863
14286TIP3    H164349   5.378   4.258   4.978  0.5051 -1.0480  0.3361
14286TIP3    H264350   5.453   4.389   4.995  0.4036 -1.2831  2.9889
14287TIP3   OH264351   0.632   5.848  15.559  0.2789 -0.3431  0.1717
14287TIP3    H164352   0.586   5.885  15.484 -0.0115 -0.3984  0.3204
14287TIP3    H264353   0.650   5.758  15.535 -1.5229 -0.9572  0.9014
14288TIP3   OH264354   6.417   2.863   0.286  0.3632 -0.3338  0.2292
14288TIP3    H164355   6.354   2.934   0.273 -0.9976 -1.7999 -1.6450
14288TIP3    H264356   6.417   2.849   0.381  0.1743  1.6849  0.5820
14289TIP3   OH264357   0.360   5.115  11.783  0.1076 -0.2968  0.4541
14289TIP3    H164358   0.291   5.057  11.749  0.2243  0.3911 -1.0607
14289TIP3    H264359   0.385   5.168  11.707  0.2448  1.4922  1.7001
14290TIP3   OH264360   3.007   5.237  13.140  0.4477  0.5488 -0.3195
14290TIP3    H164361   3.021   5.287  13.220 -0.7082  0.4271 -0.0271
14290TIP3    H264362   2.918   5.260  13.112  0.4770 -0.1527 -1.0369
14291TIP3   OH264363   3.403   5.680   4.981  0.1606  0.0039  0.2106
14291TIP3    H164364   3.477   5.641   5.028  2.0219  2.2503 -0.6513
14291TIP3    H264365   3.377   5.754   5.035 -0.5555  0.0582 -0.1986
14292TIP3   OH264366   3.386   2.712   2.003 -0.0022 -0.4646 -0.4868
14292TIP3    H164367   3.292   2.720   2.013  0.2087  0.1363  1.4404
14292TIP3    H264368   3.410   2.780   1.941 -0.4845  1.6561  1.5389
14293TIP3   OH264369   6.403   4.409   2.050  0.9574 -0.3235 -0.3065
14293TIP3    H164370   6.357   4.353   1.987  2.1389 -3.9184  1.7818
14293TIP3    H264371   6.494   4.409   2.021  0.9645  0.6593 -0.3263
14294TIP3   OH264372   3.216   1.086  13.806  0.2581  0.6286  0.3628
14294TIP3    H164373   3.233   1.093  13.712 -0.2155  1.9081  0.3557
14294TIP3    H264374   3.123   1.064  13.812  0.4707 -0.2749  0.5322
14295TIP3   OH264375   0.598   0.061  16.588  0.1687 -0.7272  0.9889
14295TIP3    H164376   0.576  -0.032  16.586  0.2472 -0.7381 -0.8125
14295TIP3    H264377   0.568   0.091  16.674 -1.3508 -2.0492  0.9605
14296TIP3   OH264378   1.515   3.854  14.268  0.3295 -0.1014  0.3070
14296TIP3    H164379   1.466   3.920  14.316 -0.6731 -0.7388  0.2107
14296TIP3    H264380   1.512   3.776  14.324  0.4173 -0.4221 -0.1205
14297TIP3   OH264381   3.963   0.611   0.303  0.0468 -0.0715  0.0439
14297TIP3    H164382   3.919   0.573   0.379 -0.5483 -1.2792 -0.8652
14297TIP3    H264383   4.045   0.647   0.338 -0.0062 -0.9933  1.1849
14298TIP3   OH264384   6.046   0.816   1.826 -0.0014 -0.7052  0.2683
14298TIP3    H164385   6.055   0.726   1.858  0.6424 -0.3332  1.1519
14298TIP3    H264386   6.013   0.866   1.901 -0.7065 -0.2578 -0.3166
14299TIP3   OH264387   3.720   6.749   3.187 -0.0448 -0.8141  0.2952
14299TIP3    H164388   3.742   6.779   3.275 -1.6416  0.7225  0.2352
14299TIP3    H264389   3.659   6.676   3.202  0.1675 -0.9579  0.4625
14300TIP3   OH264390   0.314   4.377   0.741 -0.1572  0.4722  0.7229
14300TIP3    H164391   0.329   4.361   0.835 -0.9368 -0.2911  0.7297
14300TIP3    H264392   0.307   4.290   0.703 -0.4150  0.7824  0.0458
14301TIP3   OH264393   4.055   4.893  12.348  0.1895  0.6211  0.1781
14301TIP3    H164394   4.027   4.882  12.257  0.3386  2.4815 -0.1362
14301TIP3    H264395   4.147   4.919  12.342  0.6971 -0.8886  0.9728
14302TIP3   OH264396   5.160   2.423  14.784  0.6057  0.1719  0.5574
14302TIP3    H164397   5.124   2.435  14.872  0.6787  2.7640  0.3009
14302TIP3    H264398   5.235   2.365  14.797 -0.6787 -1.3205  1.8155
14303TIP3   OH264399   2.505   5.536   3.881  0.1155 -0.3597 -0.1895
14303TIP3    H164400   2.430   5.591   3.858  0.4860 -0.6929 -2.4174
14303TIP3    H264401   2.581   5.594   3.871  0.2516 -0.2445  1.2808
14304TIP3   OH264402   0.571   5.012   3.374  0.4064 -0.0661 -0.0790
14304TIP3    H164403   0.556   5.074   3.302 -0.6601  0.2782  0.4147
14304TIP3    H264404   0.551   4.927   3.336  1.4743 -0.0782 -0.6455
14305TIP3   OH264405   6.781   0.078   2.349 -0.1816  0.2127 -0.1894
14305TIP3    H164406   6.831   0.093   2.269  1.1334 -1.1774  0.3444
14305TIP3    H264407   6.703   0.029   2.320 -0.5202  1.0885 -0.8094
14306TIP3   OH264408   6.485   4.350  16.298  0.0539  0.0644  0.2072
14306TIP3    H164409   6.540   4.278  16.330 -0.0532  0.6373  1.7249
14306TIP3    H264410   6.544   4.405  16.247  0.2954 -0.7029 -0.3563
14307TIP3   OH264411   2.331   0.498   0.424  0.2019 -0.2151 -0.3399
14307TIP3    H164412   2.328   0.453   0.509  1.0122 -0.3986 -0.3996
14307TIP3    H264413   2.278   0.444   0.366 -1.0822  0.3639  0.2433
14308TIP3   OH264414   2.710   2.626  14.648 -0.3032  0.0381 -0.8507
14308TIP3    H164415   2.805   2.622  14.651 -0.3171  0.1574 -0.0450
14308TIP3    H264416   2.685   2.562  14.582  0.2947 -0.5419 -0.5186
14309TIP3   OH264417   4.620   5.648  12.044  0.2643  0.4508  0.2557
14309TIP3    H164418   4.692   5.708  12.063  1.1085 -0.6009  0.4587
14309TIP3    H264419   4.564   5.652  12.121  0.3798  0.8865  0.3179
14310TIP3   OH264420   2.784   2.112  16.204  0.3115  0.7291  0.3181
14310TIP3    H164421   2.730   2.191  16.206 -0.1801  0.4817 -1.4110
14310TIP3    H264422   2.722   2.041  16.220  0.7754  0.6741  2.0038
14311TIP3   OH264423   6.792   5.419   3.297  0.1295  0.1505  0.6328
14311TIP3    H164424   6.867   5.454   3.346 -0.1871 -0.5402  1.6329
14311TIP3    H264425   6.730   5.391   3.365 -1.7557  2.1386 -0.1237
14312TIP3   OH264426   1.178   6.230   2.997  0.3000 -0.0682  0.3796
14312TIP3    H164427   1.122   6.159   3.030 -0.4165 -0.1482 -0.9424
14312TIP3    H264428   1.241   6.187   2.940  0.1941  0.2974 -0.0156
14313TIP3   OH264429   4.359   5.267   5.093  0.5182 -0.0907 -0.3278
14313TIP3    H164430   4.310   5.274   5.175  1.9056 -1.7400  0.7155
14313TIP3    H264431   4.330   5.185   5.055  1.0283 -0.0981 -0.7006
14314TIP3   OH264432   1.904   5.385  10.802  0.4401 -0.7302  0.3922
14314TIP3    H164433   1.816   5.384  10.765  1.0169  1.7718 -1.3291
14314TIP3    H264434   1.958   5.339  10.738  0.8607  0.5145 -0.1824
14315TIP3   OH264435   5.930   4.058   3.626  0.0209  0.7307  0.3397
14315TIP3    H164436   5.980   4.098   3.554  0.3749 -1.3011 -0.6222
14315TIP3    H264437   5.997   4.030   3.688  0.0666 -1.2048 -0.5330
14316TIP3   OH264438   0.476   0.348   4.174 -0.7628 -0.0767  0.4455
14316TIP3    H164439   0.511   0.328   4.261 -2.1651 -0.9380  0.8507
14316TIP3    H264440   0.540   0.313   4.113 -0.6378 -1.1467  1.1604
14317TIP3   OH264441   2.247   0.532  10.827 -0.4802  0.4770 -0.4511
14317TIP3    H164442   2.326   0.582  10.844 -0.0542 -0.5925  0.9198
14317TIP3    H264443   2.271   0.472  10.756 -0.8924  1.9144 -1.8618
14318TIP3   OH264444   0.055   5.406  15.592  0.3681  0.0786  0.8086
14318TIP3    H164445   0.095   5.422  15.507 -0.4146 -0.6318  0.2954
14318TIP3    H264446  -0.018   5.346  15.574 -0.6032  0.9076  1.7786
14319TIP3   OH264447   2.582   2.194  16.376 -0.0697  0.9881  0.3037
14319TIP3    H164448   2.647   2.160  16.437  0.3986 -0.0870 -0.7399
14319TIP3    H264449   2.524   2.247  16.429 -1.0731 -1.7354  2.1655
14320TIP3   OH264450   4.160   1.918  17.109  0.3911  0.3634 -0.0989
14320TIP3    H164451   4.144   1.884  17.197 -0.7702  0.5010 -0.2361
14320TIP3    H264452   4.097   1.872  17.054  1.9930 -0.7157 -1.1145
14321TIP3   OH264453   3.042   5.449   6.339 -0.6430  0.2941 -0.8207
14321TIP3    H164454   3.124   5.468   6.295  0.1769 -0.3397  0.3692
14321TIP3    H264455   3.067   5.395   6.414 -2.3511 -1.5970 -1.5198
14322TIP3   OH264456   4.168   2.199   1.517 -0.5488 -0.8708 -0.0376
14322TIP3    H164457   4.103   2.131   1.536 -2.2329  0.7247  0.1925
14322TIP3    H264458   4.120   2.281   1.527  1.5028  0.3864  0.0291
14323TIP3   OH264459   3.272   1.338   5.341  0.5079 -0.3089  0.1827
14323TIP3    H164460   3.216   1.395   5.288  1.2652 -0.9043 -1.3124
14323TIP3    H264461   3.211   1.290   5.396 -0.2085  1.2475  0.8216
14324TIP3   OH264462   6.676   1.187  15.572  0.0660  0.4579 -0.4790
14324TIP3    H164463   6.658   1.230  15.656  1.0235  0.0526 -0.0537
14324TIP3    H264464   6.594   1.194  15.524 -0.1553  1.7081  0.0447
14325TIP3   OH264465   5.855   1.009   3.963 -0.2415  0.6001 -0.1420
14325TIP3    H164466   5.920   0.977   3.900 -0.7976  0.7335 -0.7989
14325TIP3    H264467   5.774   1.014   3.912 -0.7630  0.4383  0.6696
14326TIP3   OH264468   0.690   0.846   5.883 -0.8316 -0.1339 -0.2854
14326TIP3    H164469   0.751   0.878   5.950  0.9845  1.0294 -2.3635
14326TIP3    H264470   0.690   0.751   5.894  0.6574 -0.0845  0.3793
14327TIP3   OH264471   1.241   4.551  12.079  0.2300 -0.1087  0.1852
14327TIP3    H164472   1.234   4.548  12.175 -0.5454  1.5298  0.2344
14327TIP3    H264473   1.241   4.460  12.051 -0.2711 -0.6018  1.7129
14328TIP3   OH264474   0.642   5.513   0.678 -0.3834 -0.1366 -0.3964
14328TIP3    H164475   0.600   5.592   0.644 -0.2885  1.3349  2.5618
14328TIP3    H264476   0.735   5.535   0.681 -0.2233 -0.7830 -0.5865
14329TIP3   OH264477   4.346   3.926  15.311  0.3965 -0.2323  0.1502
14329TIP3    H164478   4.431   3.947  15.350  0.4580  3.2303 -1.5072
14329TIP3    H264479   4.367   3.887  15.227  0.2892 -1.5844  0.7322
14330TIP3   OH264480   4.444   5.737   5.650  0.4033  0.3752  0.4184
14330TIP3    H164481   4.525   5.769   5.610  2.6113 -1.3345  3.1215
14330TIP3    H264482   4.425   5.800   5.719  0.6723 -0.3407  1.1568
14331TIP3   OH264483   2.105   5.467  12.314 -0.5339  0.9293 -0.8130
14331TIP3    H164484   2.130   5.551  12.351 -1.7382  1.2624 -0.7045
14331TIP3    H264485   2.125   5.474  12.221  1.7148  0.3977 -0.4293
14332TIP3   OH264486   4.040   2.419   4.274 -0.1777 -0.2036  1.1113
14332TIP3    H164487   4.044   2.420   4.369  0.1674  0.8594  1.0975
14332TIP3    H264488   4.047   2.326   4.251 -0.4551 -0.4897  2.1190
14333TIP3   OH264489   3.899   6.047   6.393 -0.5529 -0.5567  0.0756
14333TIP3    H164490   3.926   5.975   6.450  1.2807 -0.3298 -0.4219
14333TIP3    H264491   3.895   6.009   6.306  0.5415 -0.0834 -0.2091
14334TIP3   OH264492   4.061   6.101   5.681 -0.4952 -0.0961 -0.0406
14334TIP3    H164493   3.997   6.125   5.747 -1.6682 -0.3128 -1.0768
14334TIP3    H264494   4.010   6.072   5.606  0.8221 -1.3909 -0.4961
14335TIP3   OH264495   6.083   2.655   4.372 -0.1737  0.3466  0.1217
14335TIP3    H164496   6.067   2.674   4.464 -0.8969  1.4714 -0.2055
14335TIP3    H264497   5.995   2.650   4.333  0.1274  0.3909 -0.5872
14336TIP3   OH264498   6.689   3.610   0.257  0.0609  0.1513  0.4088
14336TIP3    H164499   6.710   3.520   0.231 -1.5214 -0.6630  1.7514
14336TIP3    H264500   6.667   3.654   0.175 -0.4572 -1.0775 -0.1350
14337TIP3   OH264501   5.144   1.659  16.551  0.0500 -0.3719  0.3727
14337TIP3    H164502   5.163   1.729  16.613 -0.1483 -0.2799  0.3276
14337TIP3    H264503   5.088   1.699  16.485  0.6720 -0.3297 -0.1503
14338TIP3   OH264504   3.548   3.391  12.773  0.1364 -0.5675  0.2825
14338TIP3    H164505   3.639   3.377  12.748 -0.2934  1.6849 -3.1592
14338TIP3    H264506   3.552   3.455  12.843  1.2261  0.4497 -0.6628
14339TIP3   OH264507   2.327   5.407   2.433  0.4620 -0.2083  0.0653
14339TIP3    H164508   2.391   5.458   2.382 -0.0518  0.3076 -0.0768
14339TIP3    H264509   2.283   5.352   2.368  0.3882 -0.1643  0.0775
14340TIP3   OH264510   5.977   1.765   0.868 -0.3674 -0.1731  0.5590
14340TIP3    H164511   6.061   1.749   0.824 -0.5951  0.1081  0.0155
14340TIP3    H264512   5.914   1.713   0.818 -0.4969 -0.5169  1.0672
14341TIP3   OH264513   6.385   1.775   5.794  0.1077  0.4008  0.1187
14341TIP3    H164514   6.324   1.793   5.866 -0.9275 -0.8541 -0.4186
14341TIP3    H264515   6.367   1.845   5.730 -2.5454 -1.2421 -1.1089
14342TIP3   OH264516   1.078   0.626   2.457  0.1185 -0.5040 -0.0051
14342TIP3    H164517   1.031   0.645   2.376  0.6872 -2.3909 -0.8231
14342TIP3    H264518   1.017   0.574   2.509  0.1101 -0.1249  0.3736
14343TIP3   OH264519   1.580   4.834   0.960 -0.9900  0.0734  0.1185
14343TIP3    H164520   1.557   4.815   0.869 -1.5885  0.1379  0.2506
14343TIP3    H264521   1.614   4.923   0.958  1.9784 -0.9501 -0.5306
14344TIP3   OH264522   0.167   5.181   3.239 -0.5933 -0.3640  0.2118
14344TIP3    H164523   0.106   5.255   3.234 -0.3734 -0.1761  0.2781
14344TIP3    H264524   0.156   5.148   3.328 -0.7313 -0.4460  0.1649
14345TIP3   OH264525   3.883   3.994   2.249 -0.5693 -0.5929 -0.1784
14345TIP3    H164526   3.910   3.903   2.242  0.8144 -0.2998  0.8695
14345TIP3    H264527   3.962   4.041   2.277 -1.1556  0.9882 -1.0337
14346TIP3   OH264528   1.416   2.898   1.730 -0.0174  0.2925 -0.2368
14346TIP3    H164529   1.352   2.966   1.707  0.3929  0.6602 -0.3181
14346TIP3    H264530   1.427   2.906   1.824 -0.9992 -0.5869 -0.0433
14347TIP3   OH264531   4.345   6.677   6.041 -0.1201 -0.2639 -0.2413
14347TIP3    H164532   4.363   6.705   5.952 -0.7129  0.2196 -0.2141
14347TIP3    H264533   4.429   6.646   6.074  0.5911  1.5233 -0.2535
14348TIP3   OH264534   5.541   1.087   1.542  0.6512  0.1635 -0.1167
14348TIP3    H164535   5.447   1.096   1.526  0.9352  1.9022 -1.0624
14348TIP3    H264536   5.583   1.142   1.476  2.3845 -1.0760 -0.1274
14349TIP3   OH264537   4.036   5.585  15.801  0.7723  0.4287 -0.6075
14349TIP3    H164538   4.129   5.593  15.780  0.8260 -0.3491 -0.7066
14349TIP3    H264539   3.992   5.642  15.738  1.2504  1.6923  0.1691
14350TIP3   OH264540   5.971   0.328   1.765  1.0193 -0.2635  0.0944
14350TIP3    H164541   5.930   0.258   1.715  0.2924 -0.6238  1.1709
14350TIP3    H264542   5.920   0.406   1.743  2.0176  0.0421 -1.3443
14351TIP3   OH264543   3.881   6.499   3.753 -0.5452 -0.3749 -0.3480
14351TIP3    H164544   3.937   6.451   3.691 -0.4760 -1.9389  0.8539
14351TIP3    H264545   3.889   6.450   3.835 -1.2999  1.1518  0.6857
14352TIP3   OH264546   1.758   4.732  12.981  0.3624  0.4394 -0.2432
14352TIP3    H164547   1.714   4.715  13.065 -0.6650 -2.1210 -1.1998
14352TIP3    H264548   1.811   4.654  12.966  0.3851  0.7834 -2.0798
14353TIP3   OH264549   1.461   4.193  13.715 -0.1017 -0.1253 -0.4070
14353TIP3    H164550   1.467   4.284  13.744 -0.9173 -0.6053  1.3992
14353TIP3    H264551   1.543   4.153  13.745  0.8333  0.2460 -2.2939
14354TIP3   OH264552   0.579   3.469   3.901  0.2665  0.5439  0.3311
14354TIP3    H164553   0.608   3.401   3.839 -2.1008 -0.1176 -0.1667
14354TIP3    H264554   0.601   3.433   3.987  2.3142  0.8336 -0.0156
14355TIP3   OH264555   5.418   6.120   4.403  0.4975 -0.3499  0.3995
14355TIP3    H164556   5.477   6.047   4.422 -1.5149 -1.6793  1.9122
14355TIP3    H264557   5.358   6.123   4.477 -1.5157  0.7633 -1.1654
14356TIP3   OH264558   3.381   5.879  12.874 -0.1661 -0.8478  0.6191
14356TIP3    H164559   3.316   5.883  12.944  0.3816 -0.0682  1.1037
14356TIP3    H264560   3.360   5.953  12.818 -0.3006 -1.1782  0.2327
14357TIP3   OH264561   6.113   1.940  15.577  0.0667 -0.4334  0.0546
14357TIP3    H164562   6.123   2.029  15.613  0.6058 -0.5473  0.2004
14357TIP3    H264563   6.049   1.950  15.507 -0.6441 -0.1169  0.7333
14358TIP3   OH264564   4.893   2.872  17.212  0.5529  0.4859  0.4106
14358TIP3    H164565   4.888   2.882  17.307  1.9922  0.9377  0.4663
14358TIP3    H264566   4.839   2.795  17.193 -0.9586  1.2501  1.4046
14359TIP3   OH264567   6.466   0.937   1.287 -0.0561 -0.3127 -0.3151
14359TIP3    H164568   6.499   0.853   1.320 -1.0761 -0.6798 -0.1949
14359TIP3    H264569   6.425   0.916   1.203  1.5909  0.4479 -1.3565
14360TIP3   OH264570   5.659   0.294   1.952 -0.4386  0.5231  0.2096
14360TIP3    H164571   5.706   0.332   1.878 -1.4923  0.5754 -0.4504
14360TIP3    H264572   5.578   0.260   1.914 -0.1057 -1.2565  0.9889
14361TIP3   OH264573   3.835   4.863  17.099 -0.3224  0.1696  0.4930
14361TIP3    H164574   3.810   4.941  17.050 -0.7935  0.0315  0.5108
14361TIP3    H264575   3.835   4.891  17.191  0.0665  0.2955  0.4573
14362TIP3   OH264576   6.778   3.760   1.305  0.4081 -0.4004 -0.0612
14362TIP3    H164577   6.843   3.790   1.369 -0.5733 -0.7717  1.1355
14362TIP3    H264578   6.823   3.767   1.220  1.7577  0.0226  0.6646
14363TIP3   OH264579   5.256   1.697  12.262 -0.0106  0.0548  0.0398
14363TIP3    H164580   5.272   1.621  12.206 -0.0635 -1.1381  1.5972
14363TIP3    H264581   5.180   1.673  12.315  0.6075  0.7472  1.2981
14364TIP3   OH264582   6.271   5.972  12.232 -0.6975  0.0706 -0.2643
14364TIP3    H164583   6.266   5.954  12.138 -0.3363  2.3360 -0.7703
14364TIP3    H264584   6.365   5.971  12.251 -0.8148 -1.4587  0.3380
14365TIP3   OH264585   4.371   5.279   3.505 -0.5591  0.4020 -0.2441
14365TIP3    H164586   4.338   5.231   3.429 -0.8949 -0.9826  0.7515
14365TIP3    H264587   4.446   5.228   3.536 -0.1058  1.2324  0.0687
14366TIP3   OH264588   6.746   6.334  14.851 -1.1025 -0.1498 -0.3215
14366TIP3    H164589   6.667   6.313  14.801 -0.7139  0.2370 -1.1226
14366TIP3    H264590   6.799   6.386  14.790  0.0264 -0.8865 -0.0043
14367TIP3   OH264591   0.001   3.752   6.073 -0.3333 -0.1895 -0.2989
14367TIP3    H164592   0.031   3.665   6.098 -1.2141 -0.4683 -0.1801
14367TIP3    H264593   0.012   3.805   6.152  2.6888  0.5239 -1.0660
14368TIP3   OH264594   1.489   1.462   5.170  0.5624  0.4749  0.2117
14368TIP3    H164595   1.539   1.386   5.201  1.0242  0.2246 -1.0693
14368TIP3    H264596   1.429   1.425   5.104  1.7826  1.3741 -1.4889
14369TIP3   OH264597   0.833   0.296   0.005  0.9593 -0.3531 -0.4499
14369TIP3    H164598   0.815   0.308  -0.088  0.8942  0.7450 -0.3101
14369TIP3    H264599   0.756   0.249   0.039 -1.6007  3.6565  0.0103
14370TIP3   OH264600   1.284   2.205  14.384 -0.2035 -0.0434  0.1144
14370TIP3    H164601   1.200   2.249  14.394 -0.1303 -0.0435  0.7842
14370TIP3    H264602   1.307   2.177  14.472  1.2404  1.3082  0.2111
14371TIP3   OH264603   2.096   2.302  17.265  0.3914  0.4553 -0.0457
14371TIP3    H164604   2.178   2.330  17.306  0.3094  1.2872 -0.4281
14371TIP3    H264605   2.105   2.207  17.255  0.3058  0.1842  2.0806
14372TIP3   OH264606   4.877   2.587  14.482 -0.0239 -0.0883  0.3986
14372TIP3    H164607   4.858   2.565  14.391 -0.7183 -0.2528  0.5772
14372TIP3    H264608   4.964   2.551  14.498 -0.0680 -0.4130 -0.0814
14373TIP3   OH264609   1.671   5.887  17.025  0.0797 -0.3748  0.4401
14373TIP3    H164610   1.761   5.919  17.028  1.1787 -3.0115 -0.8596
14373TIP3    H264611   1.641   5.907  16.936 -0.7284  0.6413  0.9163
14374TIP3   OH264612   6.014   4.619  13.597 -0.0213  0.6334  0.8583
14374TIP3    H164613   5.922   4.611  13.570 -0.4553  3.1476  1.3265
14374TIP3    H264614   6.052   4.534  13.577 -1.7591  0.3709 -1.9974
14375TIP3   OH264615   0.001   2.006   4.242 -0.5556  0.0303  0.2141
14375TIP3    H164616   0.005   2.057   4.161  1.3760 -0.1991  0.1276
14375TIP3    H264617   0.090   1.973   4.255 -0.8834 -0.2021  2.2651
14376TIP3   OH264618   5.810   2.775  15.923 -0.0664  0.0021  0.8498
14376TIP3    H164619   5.716   2.788  15.912  0.0416  1.4592  1.4117
14376TIP3    H264620   5.821   2.751  16.015  0.0660 -0.7950  0.6324
14377TIP3   OH264621   4.455   0.944  12.144 -0.1250  0.5316  0.4250
14377TIP3    H164622   4.380   0.984  12.188  1.2471  1.2796  2.2237
14377TIP3    H264623   4.507   1.018  12.115  0.9034  0.0638  1.0119
14378TIP3   OH264624   6.611   3.253   2.630 -0.0340 -0.1971  0.7522
14378TIP3    H164625   6.586   3.261   2.722 -0.0675 -0.7313  0.7887
14378TIP3    H264626   6.570   3.328   2.588  0.8622  0.6706  1.3562
14379TIP3   OH264627   1.166   6.488   5.522  0.2976 -0.3383 -0.1510
14379TIP3    H164628   1.106   6.414   5.521  1.0050 -0.9682  1.0326
14379TIP3    H264629   1.201   6.489   5.612 -0.4350  2.0318  0.1762
14380TIP3   OH264630   2.697   3.746  11.957 -0.4098 -0.4296  0.0245
14380TIP3    H164631   2.672   3.725  12.047  0.5494  3.2216  1.3009
14380TIP3    H264632   2.790   3.723  11.952 -0.2854  0.0168  0.2220
14381TIP3   OH264633   5.419   1.661  11.393  0.3154 -0.3664 -0.0767
14381TIP3    H164634   5.467   1.591  11.437  2.6025  0.7248 -0.6453
14381TIP3    H264635   5.427   1.641  11.300  1.6393  0.9669 -0.2851
14382TIP3   OH264636   2.966   4.481   2.001  0.3373 -0.1661  0.0849
14382TIP3    H164637   2.923   4.446   2.080 -1.6570  0.7684 -0.5065
14382TIP3    H264638   3.029   4.545   2.034 -2.1732  2.0566  0.9863
14383TIP3   OH264639   6.670   2.736  12.524  0.1159  0.2524 -0.4881
14383TIP3    H164640   6.602   2.795  12.491  0.2994  1.1233  0.6193
14383TIP3    H264641   6.632   2.697  12.602  1.0078  1.0403  0.3634
14384TIP3   OH264642   6.298   1.441   5.297  0.5292  0.5551 -0.9362
14384TIP3    H164643   6.221   1.491   5.270  0.9395  1.6409 -0.1809
14384TIP3    H264644   6.333   1.491   5.371  1.0311 -0.8016 -0.2356
14385TIP3   OH264645   4.585   2.840   3.694  0.1905  0.5856 -0.9966
14385TIP3    H164646   4.612   2.849   3.785  0.7123  1.1423 -1.2067
14385TIP3    H264647   4.644   2.897   3.645 -1.1032  1.5266 -1.5098
14386TIP3   OH264648   6.114   5.731   5.819  0.1026 -0.4501  0.3400
14386TIP3    H164649   6.148   5.821   5.821 -0.5780 -0.0269 -2.5816
14386TIP3    H264650   6.110   5.709   5.726 -2.1701 -2.5635  0.8372
14387TIP3   OH264651   1.829   1.060  15.104  0.3018 -0.6320 -0.1193
14387TIP3    H164652   1.803   1.012  15.025  0.1506 -2.1130  0.7958
14387TIP3    H264653   1.853   0.991  15.167  2.6408  0.5559  0.3929
14388TIP3   OH264654   4.702   4.765  13.545  0.3450  0.2608 -0.7605
14388TIP3    H164655   4.689   4.828  13.474  2.2147 -1.3493 -2.6790
14388TIP3    H264656   4.785   4.790  13.585 -0.1629  0.5011  0.1771
14389TIP3   OH264657   2.002   3.083  16.544 -0.4028 -0.1659  0.3525
14389TIP3    H164658   2.054   3.006  16.519 -1.9166 -0.8025 -1.0628
14389TIP3    H264659   1.993   3.132  16.462  0.3785  1.4498  1.2092
14390TIP3   OH264660   3.202   6.094  15.180  0.2769  0.1061 -0.2776
14390TIP3    H164661   3.158   6.027  15.127 -1.1106 -0.0242  0.9744
14390TIP3    H264662   3.207   6.170  15.123  0.4264 -0.5601 -1.1841
14391TIP3   OH264663   1.277   2.838   2.759 -0.1254  0.1984 -0.3191
14391TIP3    H164664   1.226   2.893   2.819  1.1804  0.0154  1.0042
14391TIP3    H264665   1.346   2.801   2.814  2.0471  1.2023 -2.2389
14392TIP3   OH264666   5.561   2.375  13.117 -0.4886  0.4228  0.1400
14392TIP3    H164667   5.575   2.338  13.204 -0.0263 -0.8695 -0.4583
14392TIP3    H264668   5.629   2.336  13.063 -0.4688  1.5761 -0.7136
14393TIP3   OH264669   4.594   5.073  15.822  0.1418 -0.5936 -0.4202
14393TIP3    H164670   4.599   5.160  15.862 -0.6910 -0.7109 -0.0512
14393TIP3    H264671   4.571   5.090  15.730 -2.0634 -0.4843  0.1010
14394TIP3   OH264672   2.462   6.111  10.538  0.7176 -0.3059  0.1192
14394TIP3    H164673   2.514   6.063  10.473  0.0066 -0.1298 -0.5956
14394TIP3    H264674   2.424   6.042  10.593 -1.1663 -0.6964 -1.5532
14395TIP3   OH264675   5.516   4.904  16.575  0.2554 -0.0490  0.2813
14395TIP3    H164676   5.522   4.843  16.648 -1.2524 -0.6998 -0.0914
14395TIP3    H264677   5.429   4.942  16.583  0.5300  0.7774 -0.4886
14396TIP3   OH264678   1.471   6.021  12.758  0.3805 -0.1418  0.1570
14396TIP3    H164679   1.414   5.944  12.770 -2.0939  1.7395  1.5753
14396TIP3    H264680   1.478   6.032  12.664 -2.0527 -0.2485 -0.1025
14397TIP3   OH264681   0.228   5.434   2.473  0.1602  0.1505  0.2215
14397TIP3    H164682   0.212   5.367   2.407 -0.3031  0.0324  0.4475
14397TIP3    H264683   0.150   5.432   2.529  1.4062 -1.2473  2.0638
14398TIP3   OH264684   1.805   0.853  16.514  0.0963  0.1947  0.1913
14398TIP3    H164685   1.881   0.805  16.548  0.2889  0.2840 -0.1130
14398TIP3    H264686   1.805   0.834  16.420 -1.7253 -1.8621  0.5262
14399TIP3   OH264687   4.099   4.106  12.843 -0.2815 -0.5813  0.2695
14399TIP3    H164688   4.018   4.060  12.821  0.0344 -1.6623  1.2962
14399TIP3    H264689   4.168   4.055  12.801 -0.1816  0.9295 -1.4970
14400TIP3   OH264690   3.341   2.317  12.643 -0.2857 -0.4104 -0.1400
14400TIP3    H164691   3.407   2.349  12.581 -1.0851  0.3846 -0.6097
14400TIP3    H264692   3.330   2.389  12.705  1.8135 -1.8445  2.0799
14401TIP3   OH264693   4.268   2.133   6.103 -0.1034 -0.2933 -0.0644
14401TIP3    H164694   4.269   2.208   6.043  3.3983 -1.3113 -1.5934
14401TIP3    H264695   4.180   2.097   6.095 -0.5161  1.0428 -2.8410
14402TIP3   OH264696   1.762   5.707  16.073  0.5587  0.6066 -0.0319
14402TIP3    H164697   1.846   5.752  16.064  1.1557 -0.5628 -0.6258
14402TIP3    H264698   1.754   5.688  16.166  0.6896  1.2039  0.1033
14403TIP3   OH264699   3.237   5.101   3.976 -0.6054  0.1115 -0.0578
14403TIP3    H164700   3.167   5.094   4.040 -2.0570 -2.0866 -1.7226
14403TIP3    H264701   3.194   5.136   3.898  0.6215  0.6452 -0.5211
14404TIP3   OH264702   6.223   5.488   4.636  0.1381 -0.4854  0.1976
14404TIP3    H164703   6.147   5.431   4.626 -0.0039 -0.4314  0.9446
14404TIP3    H264704   6.187   5.577   4.636  0.1961 -0.4610  0.6057
14405TIP3   OH264705   0.583   4.378   5.020 -0.4199  0.2241 -0.1850
14405TIP3    H164706   0.572   4.283   5.025 -1.0135  0.3339  1.4256
14405TIP3    H264707   0.671   4.393   5.055  0.7232  0.1253 -2.8336
14406TIP3   OH264708   0.073   1.603  15.941  0.3589 -0.0652 -0.8649
14406TIP3    H164709   0.012   1.556  15.997 -0.6975  2.0781 -0.1134
14406TIP3    H264710   0.132   1.648  16.002  0.9318  0.1112 -1.5309
14407TIP3   OH264711   1.736   0.982  11.851 -0.0949  0.1338 -0.1902
14407TIP3    H164712   1.692   1.033  11.920  1.0837  0.7554  0.1328
14407TIP3    H264713   1.752   0.897  11.892  0.3891  0.4212  0.2268
14408TIP3   OH264714   5.610   5.799  10.963 -0.0917 -0.4583  0.6161
14408TIP3    H164715   5.646   5.886  10.981  0.4437 -0.3514 -0.8138
14408TIP3    H264716   5.526   5.816  10.920  0.6502 -0.5840 -0.9529
14409TIP3   OH264717   2.544   2.743   0.743  0.3347 -0.3782 -0.1322
14409TIP3    H164718   2.634   2.767   0.766  0.8231 -2.2413  0.0986
14409TIP3    H264719   2.552   2.699   0.659 -0.8582  2.3641 -1.8102
14410TIP3   OH264720   5.245   1.636   5.913 -0.2007  0.3590  0.2425
14410TIP3    H164721   5.280   1.640   6.001  2.1364 -0.3053 -0.5818
14410TIP3    H264722   5.314   1.671   5.857 -0.9474 -0.7061 -1.4698
14411TIP3   OH264723   0.630   6.182  15.165  0.6963 -0.0692  0.3323
14411TIP3    H164724   0.636   6.087  15.152  0.3975 -0.0651  0.1427
14411TIP3    H264725   0.650   6.195  15.258  3.5138 -0.0392 -0.2102
14412TIP3   OH264726   4.953   0.583   4.156 -0.2564  0.0100  0.3487
14412TIP3    H164727   4.998   0.655   4.111  0.7548 -1.7800 -1.6980
14412TIP3    H264728   5.022   0.518   4.172 -1.4845 -1.3731  0.2701
14413TIP3   OH264729   2.302   2.940   5.962  0.2359 -0.0331 -0.2008
14413TIP3    H164730   2.341   2.876   6.021 -0.6670  0.8906  1.4870
14413TIP3    H264731   2.315   3.024   6.006 -2.6076  0.4247 -0.0475
14414TIP3   OH264732   3.422   5.567   0.091  0.5819 -0.2592 -0.1435
14414TIP3    H164733   3.350   5.583   0.031 -0.8215  1.4250  1.8643
14414TIP3    H264734   3.468   5.650   0.098  0.7753 -0.4342  0.9934
14415TIP3   OH264735   0.859   5.344  15.587  0.2008  0.2840  0.1653
14415TIP3    H164736   0.831   5.253  15.600 -2.8285  1.2297  1.2043
14415TIP3    H264737   0.904   5.343  15.503  2.4697 -2.5600  1.2450
14416TIP3   OH264738   0.790   4.339  14.555  0.3438 -0.2309  0.8236
14416TIP3    H164739   0.710   4.393  14.553  2.3731  3.0475  0.4364
14416TIP3    H264740   0.816   4.330  14.464  0.4589 -1.2763  0.9468
14417TIP3   OH264741   4.286   2.768  11.271  0.0133  0.0529 -0.1442
14417TIP3    H164742   4.214   2.753  11.210  0.4721  1.4150 -1.0736
14417TIP3    H264743   4.268   2.710  11.344 -1.8832  0.1482 -0.4823
14418TIP3   OH264744   3.254   2.055   0.285 -0.2280  0.7519  0.6942
14418TIP3    H164745   3.331   2.051   0.228 -0.0185  1.7627  0.8829
14418TIP3    H264746   3.206   1.974   0.266  1.1643 -0.1824  0.9866
14419TIP3   OH264747   6.373   6.314  12.272  0.2809  0.6370 -0.1919
14419TIP3    H164748   6.353   6.242  12.332 -0.0344  0.8013 -0.0934
14419TIP3    H264749   6.356   6.278  12.185 -1.2193  0.9805 -0.0840
14420TIP3   OH264750   2.551   5.900  15.095  0.1059 -0.4124  0.3941
14420TIP3    H164751   2.518   5.813  15.117 -2.5570  0.2542 -0.5920
14420TIP3    H264752   2.513   5.958  15.161  0.5870  0.2104  0.1337
14421TIP3   OH264753   1.327   1.552   1.472  0.0354  0.2376  0.8859
14421TIP3    H164754   1.409   1.561   1.522 -0.0431 -0.1407  1.0878
14421TIP3    H264755   1.260   1.537   1.539  0.1461 -1.8176  0.6032
14422TIP3   OH264756   2.736   1.433  12.173 -0.5390 -0.0895  0.1806
14422TIP3    H164757   2.802   1.467  12.112 -0.4069  1.4074  1.0887
14422TIP3    H264758   2.662   1.493  12.164 -1.0199 -0.6186  0.5522
14423TIP3   OH264759   4.202   6.746   2.873  0.1895  0.1341  0.2002
14423TIP3    H164760   4.173   6.827   2.832  1.6730  0.8199  0.4239
14423TIP3    H264761   4.279   6.720   2.823  0.9098 -0.0301  1.3409
14424TIP3   OH264762   4.365   3.702   3.880  0.1817  0.0821 -0.3700
14424TIP3    H164763   4.278   3.685   3.916  0.7534 -2.2621  0.0972
14424TIP3    H264764   4.349   3.728   3.789 -1.0677  1.7798  0.2925
14425TIP3   OH264765   4.047   4.957  14.015 -0.0151 -0.1211 -0.4817
14425TIP3    H164766   4.141   4.957  13.995 -0.2879  0.2487 -1.8845
14425TIP3    H264767   4.005   4.957  13.929 -1.3050 -0.4235  0.1350
14426TIP3   OH264768   2.369   1.414  16.193  0.1776  0.7494  0.4584
14426TIP3    H164769   2.359   1.319  16.185 -0.4474  0.6596  1.8966
14426TIP3    H264770   2.311   1.438  16.265  0.6778  2.1640  0.4260
14427TIP3   OH264771   0.025   6.630  14.205  0.2418 -0.2784 -0.1926
14427TIP3    H164772  -0.011   6.541  14.212 -0.4808 -0.1507 -1.8103
14427TIP3    H264773  -0.037   6.677  14.149 -0.2172  1.7356  1.8818
14428TIP3   OH264774   2.092   6.217  11.036 -0.2993  0.0329 -0.6999
14428TIP3    H164775   2.154   6.270  11.086  0.8113 -1.1370 -0.7475
14428TIP3    H264776   2.012   6.269  11.032  0.7675  1.7247 -0.8563
14429TIP3   OH264777   5.881   3.221   5.432 -0.2310 -0.6886  0.2018
14429TIP3    H164778   5.803   3.166   5.429 -1.7464  1.2656  1.3450
14429TIP3    H264779   5.892   3.243   5.525  1.4554 -0.5914  0.0141
14430TIP3   OH264780   6.240   3.795  13.070 -0.7568  0.1246  0.2497
14430TIP3    H164781   6.221   3.719  13.126 -2.2985  1.2989  1.4067
14430TIP3    H264782   6.164   3.802  13.013  0.1238 -0.1363 -1.0087
14431TIP3   OH264783   4.107   5.123  13.250 -0.2035  0.1885 -0.5113
14431TIP3    H164784   4.080   5.042  13.293  0.4930  0.8104  1.1895
14431TIP3    H264785   4.049   5.190  13.286  0.2415  0.6986 -0.7261
14432TIP3   OH264786   1.530   3.885   1.551 -0.4142  0.0475 -0.4748
14432TIP3    H164787   1.598   3.921   1.607 -1.4916 -1.6574  2.1050
14432TIP3    H264788   1.469   3.957   1.537 -0.7258  0.2308  1.5898
14433TIP3   OH264789   5.750   6.441   5.364  0.0408  0.3801 -0.0561
14433TIP3    H164790   5.843   6.422   5.376 -0.0518  0.7827  1.7013
14433TIP3    H264791   5.725   6.486   5.445 -1.3867  1.4577 -1.0446
14434TIP3   OH264792   5.129   1.766   1.081  0.7786  0.0256 -0.4896
14434TIP3    H164793   5.091   1.848   1.113  1.1251  0.2594 -0.6747
14434TIP3    H264794   5.206   1.793   1.031  0.4294 -0.3530 -1.2494
14435TIP3   OH264795   5.804   2.807   1.561  0.0860 -0.4596 -0.4033
14435TIP3    H164796   5.798   2.852   1.646 -2.0656 -1.3098 -0.0353
14435TIP3    H264797   5.791   2.876   1.496  0.7470  0.0404 -0.0194
14436TIP3   OH264798   5.426   5.692  13.686  0.3833  0.3463 -0.4552
14436TIP3    H164799   5.393   5.667  13.773 -1.4660  0.3819 -1.0899
14436TIP3    H264800   5.515   5.658  13.683 -0.2689 -1.6351  0.6467
14437TIP3   OH264801   4.734   0.616   3.625  0.3868 -0.5929  0.1946
14437TIP3    H164802   4.819   0.572   3.631  1.2311  0.7088 -1.4201
14437TIP3    H264803   4.755   0.706   3.602 -1.4469 -0.3279 -0.6080
14438TIP3   OH264804   0.883   2.324  12.275  0.4103 -0.0593  0.3082
14438TIP3    H164805   0.928   2.379  12.340 -1.6798  0.6908  1.2100
14438TIP3    H264806   0.908   2.234  12.299  1.3444  0.3118  0.8081
14439TIP3   OH264807   5.778   3.146  15.105  0.4052  0.0238  0.4232
14439TIP3    H164808   5.683   3.141  15.115  0.3517  0.6876  0.2678
14439TIP3    H264809   5.805   3.218  15.162  1.0501 -1.3412  1.9119
14440TIP3   OH264810   3.848   1.585   5.993  0.3668  0.1585  0.0045
14440TIP3    H164811   3.914   1.517   6.007 -0.4862 -0.6677  0.1787
14440TIP3    H264812   3.883   1.663   6.035  0.9318 -0.4415  0.6684
14441TIP3   OH264813   0.818   5.830   0.985 -0.1944  0.1776 -0.0812
14441TIP3    H164814   0.892   5.772   0.997  0.3937  1.1564  1.2323
14441TIP3    H264815   0.758   5.807   1.057 -0.2481  0.7435  0.0562
14442TIP3   OH264816   5.227   0.680   3.028  0.0821  0.3866 -0.0995
14442TIP3    H164817   5.238   0.670   2.933  1.6547  3.0627 -0.3034
14442TIP3    H264818   5.235   0.591   3.062  3.0978 -0.3077 -2.2127
14443TIP3   OH264819   1.102   5.310  11.219  0.6576  0.7223  0.2919
14443TIP3    H164820   1.109   5.215  11.215  1.1374  0.7599  0.2080
14443TIP3    H264821   1.191   5.340  11.233  0.4774  1.1522  0.5262
14444TIP3   OH264822   3.711   6.237  15.975 -0.6534  0.1331 -0.0638
14444TIP3    H164823   3.786   6.185  15.946 -0.6264  0.8937 -1.4693
14444TIP3    H264824   3.731   6.260  16.065  1.2940  1.1331 -0.6994
14445TIP3   OH264825   3.408   3.955  16.831 -0.4024  0.2254 -0.2274
14445TIP3    H164826   3.407   3.861  16.813 -0.9987  0.1367  0.2261
14445TIP3    H264827   3.485   3.968  16.887 -0.1820  0.0540 -0.4859
14446TIP3   OH264828   5.368   0.028   1.495  0.3925 -0.0931 -0.1314
14446TIP3    H164829   5.412   0.073   1.423  1.3207  1.3247  1.2716
14446TIP3    H264830   5.309   0.094   1.532 -0.2009 -0.8624  0.3285
14447TIP3   OH264831   0.854   3.256   0.776  0.4907  0.0520  0.0681
14447TIP3    H164832   0.851   3.332   0.717 -0.0325  0.4938  0.6503
14447TIP3    H264833   0.948   3.238   0.785  0.5714 -0.5579 -1.5390
14448TIP3   OH264834   0.220   2.919   5.244 -0.1455  0.2737 -0.1803
14448TIP3    H164835   0.159   2.954   5.179  0.5245 -0.0219 -0.9900
14448TIP3    H264836   0.217   2.824   5.231 -0.5800  0.1522  0.7536
14449TIP3   OH264837   1.457   3.603   4.240 -0.5610  0.4082 -0.4709
14449TIP3    H164838   1.378   3.559   4.210 -1.4695  2.1896 -0.8140
14449TIP3    H264839   1.466   3.577   4.332 -1.8787  0.6329 -0.2595
14450TIP3   OH264840   5.171   0.651   4.412 -0.0721  0.1345  0.0480
14450TIP3    H164841   5.234   0.722   4.428  0.9017  0.0469 -2.7786
14450TIP3    H264842   5.098   0.694   4.367  1.2498 -0.7654 -3.1861
14451TIP3   OH264843   4.773   0.783  16.987  0.5131  0.4134 -0.1195
14451TIP3    H164844   4.840   0.802  17.053  3.0306  0.4335 -2.4929
14451TIP3    H264845   4.754   0.868  16.947  0.7159  0.0917 -0.9145
14452TIP3   OH264846   3.075   3.849  13.948  1.0423  0.3974 -0.1633
14452TIP3    H164847   3.128   3.867  14.025 -0.1012  0.4514  0.6310
14452TIP3    H264848   3.043   3.935  13.919 -2.3374  0.0988  2.1276
14453TIP3   OH264849   2.141   5.873  16.532 -0.5913  1.2541 -0.1897
14453TIP3    H164850   2.121   5.798  16.476  0.3410  0.4774  0.4852
14453TIP3    H264851   2.094   5.946  16.492 -0.9642  0.4559 -1.2534
14454TIP3   OH264852   5.316   5.197   0.669  0.6526 -0.4869 -0.2449
14454TIP3    H164853   5.311   5.292   0.664 -3.3886 -0.3177  2.4805
14454TIP3    H264854   5.306   5.168   0.578  0.5603  1.6588 -0.9771
14455TIP3   OH264855   6.107   1.562   1.487 -0.5748 -0.1123 -0.3750
14455TIP3    H164856   6.071   1.482   1.525 -0.7996  0.2404  0.1822
14455TIP3    H264857   6.042   1.588   1.421 -0.8618 -0.0062 -0.0560
14456TIP3   OH264858   2.163   4.452  12.673 -0.2845  0.3442 -0.0007
14456TIP3    H164859   2.091   4.495  12.626 -0.7169 -0.6023 -0.2286
14456TIP3    H264860   2.240   4.505  12.652 -0.4795 -0.0042 -1.7443
14457TIP3   OH264861   4.030   5.011  15.595 -0.4069  0.4728 -0.4706
14457TIP3    H164862   4.084   4.939  15.561 -0.1313  1.0415 -1.2786
14457TIP3    H264863   4.038   5.004  15.690 -0.4341 -0.5936 -0.5258
14458TIP3   OH264864   1.841   5.865  12.574 -0.3719 -0.4300  0.2079
14458TIP3    H164865   1.825   5.943  12.627  1.8046  0.7603 -0.7396
14458TIP3    H264866   1.761   5.814  12.581 -1.6184  1.5619  1.4107
14459TIP3   OH264867   2.708   0.666  10.913  0.4604 -0.7144  0.2753
14459TIP3    H164868   2.643   0.704  10.854  1.9059 -1.6474 -2.0614
14459TIP3    H264869   2.673   0.683  11.000 -1.5055  1.2816 -0.7739
14460TIP3   OH264870   5.907   4.970  13.148  0.0183  0.1112  0.2587
14460TIP3    H164871   5.924   5.038  13.213  1.0792  0.0712  0.0339
14460TIP3    H264872   5.854   4.905  13.195  0.9885 -0.0424  1.1737
14461TIP3   OH264873   5.265   2.711  10.841 -0.3184  0.1412  0.5281
14461TIP3    H164874   5.202   2.643  10.819 -0.3751  0.3608  0.0064
14461TIP3    H264875   5.328   2.667  10.898 -0.4550 -0.3026  0.3407
14462TIP3   OH264876   1.669   5.353  15.140 -0.0162 -0.3022 -0.0031
14462TIP3    H164877   1.718   5.359  15.221  0.4898  1.9485 -0.4007
14462TIP3    H264878   1.734   5.336  15.073 -0.1300  0.0565 -0.2077
14463TIP3   OH264879   4.026   4.048   0.977  0.1203  0.3222 -0.3315
14463TIP3    H164880   4.071   4.029   0.895 -0.2081  2.2903 -1.0270
14463TIP3    H264881   4.056   3.981   1.038  2.1650  0.1815 -1.4188
14464TIP3   OH264882   0.123   0.923  14.709 -0.1266  0.4521  0.0273
14464TIP3    H164883   0.107   0.828  14.703 -0.7319  0.4763  0.9854
14464TIP3    H264884   0.083   0.948  14.793  0.8549  1.3933  0.2328
14465TIP3   OH264885   4.137   1.544   3.757 -0.6490  0.3151 -0.4820
14465TIP3    H164886   4.153   1.483   3.685 -1.1456  0.4198 -0.6876
14465TIP3    H264887   4.222   1.585   3.773  0.2314 -1.8427  1.0065
14466TIP3   OH264888   0.907   4.746   4.136  0.4809  0.3364  0.0672
14466TIP3    H164889   0.844   4.693   4.088 -1.2141 -0.0541  2.5814
14466TIP3    H264890   0.905   4.831   4.092 -1.6665  0.2745 -0.0450
14467TIP3   OH264891   4.368   2.914  14.869 -0.2007  0.4859 -0.0197
14467TIP3    H164892   4.453   2.954  14.889  0.0819  0.2061 -0.6189
14467TIP3    H264893   4.388   2.850  14.800 -1.1328  1.5090 -1.3016
14468TIP3   OH264894   2.007   0.588  14.509 -0.2844  0.0156  0.0314
14468TIP3    H164895   1.935   0.650  14.495 -1.2603 -1.4060 -1.6536
14468TIP3    H264896   1.980   0.536  14.585  0.4593  1.4809  1.3453
14469TIP3   OH264897   4.586   3.891  15.448 -0.4826 -0.6533 -0.1853
14469TIP3    H164898   4.665   3.839  15.434 -0.0527 -0.0382 -0.0529
14469TIP3    H264899   4.574   3.892  15.543  0.4964  0.9105 -0.0381
14470TIP3   OH264900   0.075   3.211   2.989 -0.4237 -0.2631 -0.6691
14470TIP3    H164901   0.003   3.156   2.956  1.3696 -1.4513 -2.9088
14470TIP3    H264902   0.088   3.181   3.079 -0.1676 -2.9071 -1.5048
14471TIP3   OH264903   6.082   4.353   0.902 -0.1358 -0.6476 -0.1804
14471TIP3    H164904   6.141   4.325   0.972 -0.4447  0.4168  0.5298
14471TIP3    H264905   6.072   4.447   0.916 -0.4432 -0.4715 -1.4863
14472TIP3   OH264906   5.025   1.267  15.137  0.1907 -0.9501  0.6938
14472TIP3    H164907   5.040   1.329  15.065  0.0945 -1.8921 -0.1604
14472TIP3    H264908   5.063   1.185  15.106  2.4984 -0.8014  2.7673
14473TIP3   OH264909   2.915   3.018  14.730  0.2196 -0.4401 -0.0818
14473TIP3    H164910   2.856   2.953  14.767 -0.9111 -0.2352 -1.4361
14473TIP3    H264911   2.954   3.061  14.805 -1.9355 -0.0692  0.9017
14474TIP3   OH264912   1.615   1.136   3.378  0.0244 -0.1048  0.2619
14474TIP3    H164913   1.574   1.165   3.459 -0.6736 -0.4290  0.0369
14474TIP3    H264914   1.626   1.042   3.389 -1.0158 -0.3238 -0.4048
14475TIP3   OH264915   1.639   6.197   5.051 -0.0258 -0.4998  0.7025
14475TIP3    H164916   1.638   6.282   5.008 -0.3601  0.1313  1.9135
14475TIP3    H264917   1.676   6.214   5.138  0.2431 -1.6557  0.8361
14476TIP3   OH264918   0.349   6.278  13.436 -0.9047 -0.2151 -0.3464
14476TIP3    H164919   0.257   6.254  13.426 -1.2857 -0.4001  2.6489
14476TIP3    H264920   0.348   6.371  13.455 -0.9356 -0.7817  3.0959
14477TIP3   OH264921   5.676   4.788  11.680 -0.0507 -0.1949 -0.2149
14477TIP3    H164922   5.733   4.812  11.753 -0.7678 -0.2160  0.3673
14477TIP3    H264923   5.605   4.738  11.721 -0.6390  0.0823 -0.8818
14478TIP3   OH264924   3.337   5.650   5.437 -0.2370 -0.0094 -0.1479
14478TIP3    H164925   3.325   5.615   5.348  2.2457  1.8723 -1.3394
14478TIP3    H264926   3.416   5.607   5.469 -0.1380  0.6250  0.4695
14479TIP3   OH264927   1.837   3.620  12.489  0.1843  0.5092 -0.0794
14479TIP3    H164928   1.843   3.527  12.511 -2.0732 -0.0840 -1.5843
14479TIP3    H264929   1.928   3.652  12.492  0.8933 -1.4680  1.4260
14480TIP3   OH264930   4.542   1.560  15.410  0.0190  0.8742  0.0629
14480TIP3    H164931   4.535   1.642  15.459 -1.8060  0.2359  0.9656
14480TIP3    H264932   4.452   1.539  15.386  0.3725 -1.1620  0.3325
14481TIP3   OH264933   2.835   6.341  11.607 -0.0728  0.0903  0.1963
14481TIP3    H164934   2.883   6.282  11.550  0.0164  0.8552 -0.5455
14481TIP3    H264935   2.847   6.305  11.695  0.7047 -0.4969 -0.1362
14482TIP3   OH264936   3.409   2.610  12.787 -0.3976  0.3776 -0.5246
14482TIP3    H164937   3.443   2.661  12.713  2.0800 -0.4778 -0.0771
14482TIP3    H264938   3.411   2.670  12.861  1.0243  0.1480 -0.3378
14483TIP3   OH264939   6.747   1.268   2.654 -0.2771 -0.4384  0.3072
14483TIP3    H164940   6.691   1.301   2.724 -0.6406  0.2041 -0.2774
14483TIP3    H264941   6.703   1.294   2.574  0.6465 -0.3000 -0.1637
14484TIP3   OH264942   3.044   1.328  11.584  0.3572 -0.2234 -0.2175
14484TIP3    H164943   3.021   1.240  11.614  0.5840 -0.1896  0.0580
14484TIP3    H264944   3.127   1.347  11.628  0.5317 -0.0460 -0.6155
14485TIP3   OH264945   4.197   5.203  12.352  0.1985  0.1498  0.0263
14485TIP3    H164946   4.257   5.277  12.356  0.7638 -0.3495  2.3279
14485TIP3    H264947   4.111   5.242  12.371  0.0233  0.6065 -1.5900
14486TIP3   OH264948   0.426   2.246  11.759  0.2270 -0.4908 -0.0236
14486TIP3    H164949   0.404   2.254  11.852 -0.3964  0.2697 -0.2299
14486TIP3    H264950   0.518   2.221  11.758  0.1472 -0.8534  0.8016
14487TIP3   OH264951   2.190   3.161  13.427  0.2355 -0.2475  0.1447
14487TIP3    H164952   2.141   3.090  13.385  0.9959 -1.5515  1.3660
14487TIP3    H264953   2.261   3.181  13.366  0.4868 -1.1262  0.1292
14488TIP3   OH264954   1.725   0.158   4.342  0.1663  0.0156 -0.1253
14488TIP3    H164955   1.754   0.221   4.276  1.5569  0.2454  0.6648
14488TIP3    H264956   1.629   0.159   4.336  0.2266  0.9219 -1.2919
14489TIP3   OH264957   3.477   2.127   2.245 -0.2936  0.8508 -0.3779
14489TIP3    H164958   3.559   2.096   2.283  0.2295  1.1128 -1.2627
14489TIP3    H264959   3.483   2.223   2.250  0.2288  0.9310 -1.9752
14490TIP3   OH264960   2.237   5.012   4.809 -0.0761 -0.4429 -0.0573
14490TIP3    H164961   2.306   4.948   4.823 -0.9812 -1.3939  0.1317
14490TIP3    H264962   2.284   5.096   4.801  1.0011 -0.8910  1.2255
14491TIP3   OH264963   3.405   6.007  16.661 -0.2477 -0.5324 -0.1024
14491TIP3    H164964   3.310   5.993  16.667 -0.4535  1.2621  2.2212
14491TIP3    H264965   3.413   6.094  16.622  0.5489 -1.2688 -1.6674
14492TIP3   OH264966   2.205   3.445   2.113  0.3829 -0.2505  0.8036
14492TIP3    H164967   2.290   3.401   2.115  0.3079 -0.5189 -0.8665
14492TIP3    H264968   2.216   3.518   2.053 -0.2874  0.3468  1.3843
14493TIP3   OH264969   5.493   1.249   4.141 -0.0296 -0.7418 -0.6364
14493TIP3    H164970   5.480   1.168   4.191  0.2397 -0.8088 -0.6755
14493TIP3    H264971   5.474   1.319   4.203  1.0710 -0.8040 -0.2086
14494TIP3   OH264972   3.755   2.894   0.486  0.0189  0.0806 -0.1314
14494TIP3    H164973   3.691   2.952   0.528 -0.1039  0.2909 -0.6094
14494TIP3    H264974   3.834   2.904   0.540 -0.1657  0.2746  0.1102
14495TIP3   OH264975   0.266   1.034   5.111  0.7206  0.2773 -0.3171
14495TIP3    H164976   0.361   1.037   5.121  0.9365 -3.6988  0.5439
14495TIP3    H264977   0.251   0.967   5.045 -1.4743 -0.1364  0.5124
14496TIP3   OH264978   4.073   6.488  16.011  0.2600  0.1624  0.3543
14496TIP3    H164979   4.099   6.422  16.075  0.7483 -0.3330 -0.3341
14496TIP3    H264980   4.152   6.503  15.959  0.3563  1.8275  0.9474
14497TIP3   OH264981   2.589   4.076  12.971  0.0132 -0.3976 -0.6031
14497TIP3    H164982   2.682   4.063  12.954 -0.3678 -1.1244 -2.3938
14497TIP3    H264983   2.557   3.990  12.998 -0.1878 -0.2111 -0.2443
14498TIP3   OH264984   4.338   6.150   1.558  0.1181 -0.8145 -0.2173
14498TIP3    H164985   4.286   6.164   1.637 -1.6992 -0.0232 -1.4836
14498TIP3    H264986   4.305   6.068   1.521  1.9895 -1.9922  0.5453
14499TIP3   OH264987   5.992   4.612  17.130 -0.1254 -0.1512  0.1117
14499TIP3    H164988   6.034   4.690  17.096  1.2168 -0.8213  0.1659
14499TIP3    H264989   5.899   4.634  17.134 -0.2308  0.3195 -2.9552
14500TIP3   OH264990   1.339   2.125  15.094 -0.2737  0.2875 -0.2669
14500TIP3    H164991   1.386   2.192  15.043  1.0358 -1.8571 -2.0903
14500TIP3    H264992   1.387   2.119  15.176  0.5965  0.4794 -0.7482
14501TIP3   OH264993   6.315   3.489   3.863 -0.2041 -0.0558 -0.2336
14501TIP3    H164994   6.273   3.404   3.859  1.8407 -1.1340 -0.2322
14501TIP3    H264995   6.385   3.478   3.927  3.2762  0.0308 -3.6686
14502TIP3   OH264996   1.704   1.636  16.977  0.5002 -0.2847  0.5906
14502TIP3    H164997   1.721   1.566  17.040  0.6058 -1.5069 -0.7497
14502TIP3    H264998   1.610   1.631  16.960  0.8047 -1.5359 -1.0544
14503TIP3   OH264999   4.578   3.555   4.633 -0.1266  0.3740  0.7112
14503TIP3    H165000   4.627   3.637   4.633 -0.4580  0.5778  0.4828
14503TIP3    H265001   4.581   3.526   4.542 -0.5647  0.4746  0.6619
14504TIP3   OH265002   2.806   4.630  13.324 -0.3454 -0.7476 -0.4326
14504TIP3    H165003   2.837   4.682  13.250 -0.9622  0.1012 -0.1204
14504TIP3    H265004   2.713   4.615  13.305 -0.4542 -0.7033  0.0556
14505TIP3   OH265005   0.707   5.549   2.969  0.3087 -0.1415 -0.3022
14505TIP3    H165006   0.769   5.559   2.897  0.3506  2.3617 -0.0315
14505TIP3    H265007   0.751   5.589   3.044 -1.2911  1.0054  0.0822
14506TIP3   OH265008   5.222   3.244   5.391  0.0498  0.0726  0.2555
14506TIP3    H165009   5.213   3.291   5.308  0.0585  0.7665  0.6375
14506TIP3    H265010   5.313   3.215   5.392  0.1815  0.4721  0.2297
14507TIP3   OH265011   6.162   4.300   4.938 -0.0648  0.0580 -0.1046
14507TIP3    H165012   6.170   4.239   4.865 -0.6327  1.3974 -1.3625
14507TIP3    H265013   6.068   4.302   4.957 -0.2568  1.5631 -1.0546
14508TIP3   OH265014   5.325   4.440   1.871 -0.0253 -0.0940  0.0126
14508TIP3    H165015   5.239   4.473   1.896 -0.7800 -2.0413  0.1715
14508TIP3    H265016   5.307   4.364   1.816  1.5546 -1.5391  1.3538
14509TIP3   OH265017   6.175   1.539   0.538 -0.4393 -0.3218 -0.1240
14509TIP3    H165018   6.206   1.570   0.624 -0.4338  0.3849 -0.3784
14509TIP3    H265019   6.101   1.596   0.518 -0.4788 -0.5311 -0.5653
14510TIP3   OH265020   4.411   0.280  15.229  0.0076 -0.3721  0.1284
14510TIP3    H165021   4.425   0.351  15.292 -0.5343  0.5476 -0.7528
14510TIP3    H265022   4.318   0.285  15.207 -0.2123 -1.8650  0.6187
14511TIP3   OH265023   3.276   1.912  11.144  0.1118  0.1112  0.3728
14511TIP3    H165024   3.231   1.996  11.134 -1.0781 -0.5344 -0.0082
14511TIP3    H265025   3.369   1.933  11.142 -0.0854  1.1432 -2.7615
14512TIP3   OH265026   5.763   1.174   4.397  0.0651 -0.1004 -0.2227
14512TIP3    H165027   5.829   1.230   4.356  0.6227 -0.5975 -0.0208
14512TIP3    H265028   5.774   1.089   4.354  0.2794 -0.4776  0.5636
14513TIP3   OH265029   5.992   0.319  16.051 -0.0132 -0.2091 -0.4799
14513TIP3    H165030   5.956   0.286  15.969 -0.4513 -0.5730 -0.1489
14513TIP3    H265031   5.926   0.382  16.082 -1.1030 -1.9204  0.8420
14514TIP3   OH265032   1.632   1.170   4.185 -0.3949 -0.2372  0.5539
14514TIP3    H165033   1.649   1.238   4.251  1.8933 -0.4428  0.2499
14514TIP3    H265034   1.617   1.219   4.104 -0.7149 -0.0447  0.7278
14515TIP3   OH265035   2.813   5.388  14.362  0.1856  0.5240 -0.1116
14515TIP3    H165036   2.906   5.366  14.353  0.0701  0.5920 -1.7278
14515TIP3    H265037   2.812   5.483  14.374  0.2932  0.6967 -1.3156
14516TIP3   OH265038   2.122   6.690  13.894 -0.0628  0.3465 -0.2205
14516TIP3    H165039   2.154   6.659  13.978 -0.2572  0.8563  0.0495
14516TIP3    H265040   2.104   6.611  13.843  2.3082  0.0460 -0.6722
14517TIP3   OH265041   0.848   4.473  15.600  0.3546 -0.1653 -0.9931
14517TIP3    H165042   0.876   4.390  15.639 -0.6430  0.4316  1.1589
14517TIP3    H265043   0.798   4.447  15.523 -1.9842 -1.7882  0.9045
14518TIP3   OH265044   2.277   2.920   5.532 -0.0104  0.4396  0.4520
14518TIP3    H165045   2.317   2.967   5.459  0.3787 -0.3101  0.1671
14518TIP3    H265046   2.350   2.875   5.574 -0.4777 -0.5375  0.2426
14519TIP3   OH265047   3.384   5.149   2.035  0.4734  0.1510  0.4734
14519TIP3    H165048   3.368   5.059   2.064 -0.9144  0.3740  0.4408
14519TIP3    H265049   3.469   5.144   1.989 -0.0927 -1.3778 -0.5050
14520TIP3   OH265050   4.122   1.512  15.988  0.4930 -0.3170  0.1157
14520TIP3    H165051   4.074   1.587  15.951 -0.8410 -0.5013  1.3662
14520TIP3    H265052   4.151   1.543  16.074  0.7442 -0.9237  0.2480
14521TIP3   OH265053   1.616   1.128   0.031 -0.3508  0.5459  0.1906
14521TIP3    H165054   1.589   1.216   0.059 -1.6119  0.9855 -2.1090
14521TIP3    H265055   1.538   1.074   0.043  0.2627 -0.1614  1.1054
14522TIP3   OH265056   1.377   5.640   0.930 -0.4757 -0.3225 -0.6667
14522TIP3    H165057   1.334   5.707   0.877 -1.3469 -1.0265 -0.8631
14522TIP3    H265058   1.382   5.563   0.874 -1.2219 -1.0153  0.1857
14523TIP3   OH265059   3.942   5.070   0.701 -0.3127  0.3467  0.0066
14523TIP3    H165060   3.862   5.020   0.687 -1.2589  1.6507  0.5027
14523TIP3    H265061   4.013   5.007   0.689 -1.4369 -1.0463  0.4566
14524TIP3   OH265062   1.094   5.760  16.281  1.0773 -0.2644 -0.1855
14524TIP3    H165063   1.137   5.685  16.240 -1.5426 -2.1717  0.2748
14524TIP3    H265064   1.001   5.748  16.261  0.5361  2.8097  0.0632
14525TIP3   OH265065   5.711   0.418  15.914  0.5360  0.2491  0.4188
14525TIP3    H165066   5.670   0.499  15.884 -0.6007 -0.5215 -0.2199
14525TIP3    H265067   5.709   0.424  16.009 -2.0074 -0.1336  0.4718
14526TIP3   OH265068   0.750   3.082  15.127 -0.0946  0.4397 -0.2830
14526TIP3    H165069   0.700   3.024  15.069 -1.7658  1.0500  0.4822
14526TIP3    H265070   0.749   3.167  15.082 -1.1091  0.8305  0.4428
14527TIP3   OH265071   6.781   6.595   2.774  0.0870 -0.7912 -0.1059
14527TIP3    H165072   6.726   6.602   2.851  0.7981 -0.9604  0.4307
14527TIP3    H265073   6.830   6.677   2.772  1.2293 -1.4305  0.5469
14528TIP3   OH265074   6.773   2.741  14.721 -0.4121  0.0018 -0.0919
14528TIP3    H165075   6.758   2.834  14.738 -1.6059 -0.2949  0.6112
14528TIP3    H265076   6.796   2.738  14.628 -1.0400  0.9368 -0.3013
14529TIP3   OH265077   2.343   5.931   1.149  0.1135 -0.0356 -0.3389
14529TIP3    H165078   2.253   5.960   1.139  0.2664  0.7896  0.5146
14529TIP3    H265079   2.388   5.965   1.072 -0.0737  0.4998 -0.2121
14530TIP3   OH265080   5.047   5.519   3.827 -0.3057  0.5624 -0.7770
14530TIP3    H165081   5.140   5.504   3.815 -0.5869 -0.4987 -1.8337
14530TIP3    H265082   5.041   5.580   3.900  1.1089 -1.7512  1.4167
14531TIP3   OH265083   4.457   3.206   5.645 -0.5364 -0.1175 -0.0893
14531TIP3    H165084   4.392   3.264   5.683 -0.7889  0.3080 -1.1355
14531TIP3    H265085   4.541   3.239   5.678 -0.5473  1.7662 -1.7693
14532TIP3   OH265086   0.567   1.316  12.205 -0.5335  0.2332  0.1942
14532TIP3    H165087   0.616   1.286  12.128 -2.2066 -1.3725 -0.2838
14532TIP3    H265088   0.479   1.335  12.172 -1.3897 -0.8535  1.7684
14533TIP3   OH265089   4.114   2.279  11.737  0.4401 -0.4886  0.4365
14533TIP3    H165090   4.022   2.274  11.711  0.2929  0.1716  0.8197
14533TIP3    H265091   4.137   2.371  11.726  0.8913 -0.5424  0.8977
14534TIP3   OH265092   4.627   5.948  16.788  0.7986 -0.5806  0.5500
14534TIP3    H165093   4.719   5.923  16.792  0.6747 -0.8489  2.3248
14534TIP3    H265094   4.578   5.867  16.803  0.3157 -0.1554  1.3588
14535TIP3   OH265095   5.386   4.705  11.958  0.3777 -0.0128 -0.2853
14535TIP3    H165096   5.468   4.692  12.006  0.2320 -1.3833 -0.3742
14535TIP3    H265097   5.405   4.674  11.869  0.1810  1.0319 -0.7002
14536TIP3   OH265098   0.555   1.700  12.453  0.4037  0.2088 -0.4304
14536TIP3    H165099   0.595   1.658  12.377  2.1395  0.8524  0.0802
14536TIP3    H265100   0.605   1.782  12.463  0.0055  0.2716  1.2156
14537TIP3   OH265101   6.644   5.613   3.685  0.2180  0.2712  0.1726
14537TIP3    H165102   6.626   5.661   3.766  1.7176 -0.9518  1.3123
14537TIP3    H265103   6.588   5.536   3.690 -0.3740  0.6526 -0.4369
14538TIP3   OH265104   0.912   6.140   2.968 -0.0715  0.3349 -0.1715
14538TIP3    H165105   0.879   6.190   3.043 -0.0222 -1.4902  1.1458
14538TIP3    H265106   0.899   6.198   2.893 -0.7172  1.9946  1.1407
14539TIP3   OH265107   2.132   3.965  12.057 -0.7208 -0.4409 -0.0412
14539TIP3    H165108   2.138   3.898  11.989 -1.4453 -1.3049  0.7179
14539TIP3    H265109   2.219   3.969  12.094 -1.2198 -2.8618  1.6223
14540TIP3   OH265110   3.356   6.094  12.429  0.5736 -0.1489  0.0203
14540TIP3    H165111   3.415   6.071  12.357 -0.3007 -0.1051 -0.7398
14540TIP3    H265112   3.268   6.081  12.392  0.1133 -0.2800  1.1444
14541TIP3   OH265113   5.955   4.769  16.477  0.1422  0.0045 -0.1642
14541TIP3    H165114   5.985   4.850  16.520 -0.9617  1.2565 -1.6112
14541TIP3    H265115   6.024   4.749  16.413 -0.2381  0.6800 -0.8142
14542TIP3   OH265116   1.419   2.283  12.094  0.4631 -0.0644  0.4163
14542TIP3    H165117   1.377   2.207  12.054 -2.3494  1.5784  0.0547
14542TIP3    H265118   1.377   2.292  12.179  1.6056  0.4630  0.9504
14543TIP3   OH265119   4.301   0.583   1.863 -0.4995  0.2487 -0.0095
14543TIP3    H165120   4.264   0.597   1.775 -0.2580 -1.4062 -0.4013
14543TIP3    H265121   4.251   0.511   1.899  0.3718 -0.0523  0.6299
14544TIP3   OH265122   4.955   3.067   2.399 -0.4734 -0.0168 -0.4315
14544TIP3    H165123   5.024   3.071   2.332 -0.7256  0.3211 -0.6740
14544TIP3    H265124   4.888   3.010   2.360 -0.9711  0.8106 -0.7959
14545TIP3   OH265125   4.124   4.815   0.744 -1.0803  0.3591  0.1950
14545TIP3    H165126   4.052   4.762   0.710 -0.4323  0.1586 -0.9294
14545TIP3    H265127   4.173   4.755   0.800 -1.6348  0.4173  0.7404
14546TIP3   OH265128   2.359   6.349   5.953  0.0126 -0.0262 -0.3986
14546TIP3    H165129   2.334   6.256   5.947  0.8221 -0.2413 -0.4849
14546TIP3    H265130   2.338   6.385   5.867  0.6529 -0.3719 -0.7035
14547TIP3   OH265131   6.178   2.716  14.947  0.2547  0.4458  0.1052
14547TIP3    H165132   6.198   2.653  14.878  0.6864  0.9985 -0.2864
14547TIP3    H265133   6.086   2.700  14.968  0.4773 -0.6034  0.3310
14548TIP3   OH265134   6.699   5.860  15.824  0.6290 -0.0415 -0.0069
14548TIP3    H165135   6.783   5.852  15.778  0.4622 -0.6972 -0.2160
14548TIP3    H265136   6.685   5.773  15.862  1.3914  0.7948  2.3948
14549TIP3   OH265137   0.442   3.289  17.144  0.1718  0.3247  0.0273
14549TIP3    H165138   0.433   3.292  17.049  0.1516 -0.3752  0.0066
14549TIP3    H265139   0.522   3.238  17.159  0.5823  1.0489  0.3732
14550TIP3   OH265140   0.173   5.136   3.875 -0.0282  0.2232 -0.3201
14550TIP3    H165141   0.231   5.077   3.826  0.0113 -0.3440  0.4034
14550TIP3    H265142   0.128   5.080   3.938  0.1742  0.9878  0.5308
14551TIP3   OH265143   6.316   2.590   4.012 -0.1006  0.0688  0.0117
14551TIP3    H165144   6.370   2.643   3.954 -0.0595 -0.5165 -0.4971
14551TIP3    H265145   6.339   2.618   4.101 -0.3776  1.1732 -0.2584
14552TIP3   OH265146   6.489   3.420  16.618  0.0309  0.1187  0.2269
14552TIP3    H165147   6.444   3.504  16.605 -1.1500 -0.5861 -0.3502
14552TIP3    H265148   6.576   3.434  16.581 -0.3197  0.9395 -0.3264
14553TIP3   OH265149   1.759   3.037  12.443 -0.3807 -0.1861  0.1309
14553TIP3    H165150   1.841   3.047  12.490 -0.8166 -0.2615  0.9338
14553TIP3    H265151   1.778   2.974  12.373  0.1951 -0.3421  0.4261
14554TIP3   OH265152   0.694   6.465   4.941  1.0209  0.4382 -0.4028
14554TIP3    H165153   0.734   6.455   4.855  0.5318  0.6332 -0.6587
14554TIP3    H265154   0.742   6.405   4.998 -0.1689 -1.4866 -1.3245
14555TIP3   OH265155   4.743   5.613   5.281  0.6589 -0.4575 -0.4827
14555TIP3    H165156   4.792   5.685   5.242 -1.4307  0.6992 -1.1019
14555TIP3    H265157   4.723   5.555   5.207  0.2760 -0.4304 -0.3995
14556TIP3   OH265158   2.089   2.927  13.233  0.0027 -0.3636  0.5750
14556TIP3    H165159   2.013   2.868  13.233 -0.7541  0.5719  1.0369
14556TIP3    H265160   2.164   2.870  13.218 -0.8637 -1.2011 -0.7896
14557TIP3   OH265161   5.915   5.796   3.787 -0.1742  0.2410  0.2978
14557TIP3    H165162   5.925   5.789   3.692 -0.6086 -1.0769  0.3264
14557TIP3    H265163   5.943   5.885   3.808 -2.0562  1.2897 -1.3231
14558TIP3   OH265164   2.061   2.363  13.209  0.5884  0.0048  0.6249
14558TIP3    H165165   2.114   2.437  13.179 -0.5470 -0.4658 -3.1450
14558TIP3    H265166   2.024   2.391  13.292  1.2741  3.1278  0.0054
14559TIP3   OH265167   2.340   0.130   3.726 -0.2464 -0.1092  0.0156
14559TIP3    H165168   2.362   0.190   3.798 -1.8745 -0.3061  0.7171
14559TIP3    H265169   2.368   0.177   3.647  0.9975  0.3798  0.7185
14560TIP3   OH265170   5.989   3.130   2.533 -0.3775  0.2484 -0.2245
14560TIP3    H165171   5.986   3.224   2.511  2.3413 -0.2418 -3.6273
14560TIP3    H265172   5.976   3.086   2.449  2.1625 -2.2768  0.5519
14561TIP3   OH265173   5.487   5.604   5.852 -0.2233  0.2917  0.4067
14561TIP3    H165174   5.487   5.510   5.867  2.8310  0.4239  2.0155
14561TIP3    H265175   5.547   5.618   5.779 -0.6581  0.9848  0.1693
14562TIP3   OH265176   0.001   2.232   4.546  0.2487 -0.7862 -0.4297
14562TIP3    H165177   0.047   2.283   4.479 -0.8633  0.0134 -0.6225
14562TIP3    H265178  -0.085   2.213   4.507 -0.7590  0.4308  1.0604
14563TIP3   OH265179   3.476   3.296  16.975 -0.2698 -0.3055 -0.0279
14563TIP3    H165180   3.516   3.287  16.889  2.1272 -0.6837  1.0305
14563TIP3    H265181   3.421   3.375  16.968  1.5182  0.9056 -1.3465
14564TIP3   OH265182   5.547   0.238   1.642  0.5909  0.0471 -0.4985
14564TIP3    H165183   5.520   0.303   1.576 -0.0673 -0.9878 -1.2803
14564TIP3    H265184   5.464   0.203   1.675  0.9386 -0.4648 -0.1616
14565TIP3   OH265185   3.252   6.327   2.749  0.2725  0.2717 -0.0690
14565TIP3    H165186   3.255   6.417   2.780 -1.3764  0.1372  0.5999
14565TIP3    H265187   3.209   6.279   2.820 -1.3263 -0.5213 -1.4934
14566TIP3   OH265188   2.268   2.402   2.936  1.0680  0.2649 -0.3988
14566TIP3    H165189   2.292   2.309   2.943 -2.1523 -0.9020 -2.4590
14566TIP3    H265190   2.217   2.419   3.016  0.1969 -0.3298 -0.8018
14567TIP3   OH265191   5.394   0.904  14.335  0.0569  0.1756 -0.7009
14567TIP3    H165192   5.319   0.845  14.349 -0.3222  0.7822 -0.0961
14567TIP3    H265193   5.407   0.947  14.420  1.8660 -0.7774 -0.4418
14568TIP3   OH265194   6.062   6.133   3.293 -0.5413  0.3630  0.0085
14568TIP3    H165195   6.099   6.112   3.208 -0.0570 -2.1489  0.7597
14568TIP3    H265196   6.126   6.192   3.334 -0.3538  0.8763 -1.0055
14569TIP3   OH265197   5.988   2.954  14.997  0.3656 -0.1193  0.4639
14569TIP3    H165198   5.946   2.872  15.025 -0.5074  0.3658  0.6122
14569TIP3    H265199   5.922   3.021  15.013  1.2098  0.6744  0.6948
14570TIP3   OH265200   4.413   1.834  10.474 -0.1967 -0.4070  0.3302
14570TIP3    H165201   4.406   1.754  10.422 -0.9353  0.3311 -0.7667
14570TIP3    H265202   4.496   1.826  10.520 -0.1424 -1.6896  0.0471
14571TIP3   OH265203   4.635   1.721   3.989 -0.1671  0.3357 -0.4878
14571TIP3    H165204   4.542   1.706   3.970  0.0031  0.6142 -1.5845
14571TIP3    H265205   4.672   1.749   3.906  0.5476  2.0106  0.3586
14572TIP3   OH265206   3.851   2.663   1.929 -0.1743 -0.2288 -0.0705
14572TIP3    H165207   3.825   2.611   1.852  2.6066  0.9080 -1.9095
14572TIP3    H265208   3.867   2.751   1.895  1.4794  0.2334  1.7301
14573TIP3   OH265209   5.918   6.502   4.703 -0.3955  0.0385 -0.0540
14573TIP3    H165210   5.857   6.449   4.651  0.8924 -0.1638 -1.4406
14573TIP3    H265211   5.947   6.571   4.643  0.4685  0.3390  0.6872
14574TIP3   OH265212   1.382   2.379  12.796 -0.0737 -0.5808  0.3719
14574TIP3    H165213   1.390   2.367  12.891 -0.4648  0.9090  0.6184
14574TIP3    H265214   1.297   2.340  12.775  0.0439 -0.9772  0.6099
14575TIP3   OH265215   4.061   0.802  16.336  0.6291  0.1420  0.1184
14575TIP3    H165216   3.980   0.799  16.387  0.3983  0.0538 -0.2482
14575TIP3    H265217   4.130   0.782  16.399  0.3724  0.2880  0.4487
14576TIP3   OH265218   4.201   4.334   2.137 -0.3112  0.2679  0.2989
14576TIP3    H165219   4.285   4.293   2.159 -1.0718 -1.0543  0.8149
14576TIP3    H265220   4.143   4.310   2.209 -1.3057  0.6540 -0.3518
14577TIP3   OH265221   6.584   1.507   4.485 -0.2936 -0.1539  0.2964
14577TIP3    H165222   6.668   1.486   4.528 -0.1084 -1.0099 -0.4617
14577TIP3    H265223   6.609   1.561   4.410 -0.3685 -0.7313 -0.1540
14578TIP3   OH265224   1.634   2.208  14.350 -0.3322 -0.2519  0.0320
14578TIP3    H165225   1.704   2.171  14.404 -2.8911 -1.4527  2.7852
14578TIP3    H265226   1.619   2.295  14.386 -1.7163 -0.8698  1.0495
14579TIP3   OH265227   3.238   4.865  12.917  0.2365 -0.5380  0.1711
14579TIP3    H165228   3.220   4.819  12.999  1.4995 -0.2014  0.6468
14579TIP3    H265229   3.176   4.938  12.917 -0.5158 -1.1556  0.2877
14580TIP3   OH265230   5.345   5.430   5.137  0.6697  0.3469  0.1190
14580TIP3    H165231   5.328   5.340   5.111 -0.6285  0.2102  1.3040
14580TIP3    H265232   5.400   5.423   5.215  1.4571  0.6294 -0.3984
14581TIP3   OH265233   6.160   5.694   1.820  0.0246 -0.0880 -0.0963
14581TIP3    H165234   6.252   5.681   1.845  0.4859 -1.8510 -2.3484
14581TIP3    H265235   6.111   5.635   1.877  0.2934  0.7091  0.9783
14582TIP3   OH265236   3.263   4.774   3.591  0.4978  0.5681 -0.4224
14582TIP3    H165237   3.340   4.736   3.633  0.7660  2.5166  0.9575
14582TIP3    H265238   3.237   4.846   3.649 -1.8475  0.5117 -1.3018
14583TIP3   OH265239   4.637   0.251  11.436  0.5508 -0.0639 -0.0875
14583TIP3    H165240   4.576   0.180  11.456  0.8594 -0.0633  0.8740
14583TIP3    H265241   4.581   0.321  11.401  0.0252 -0.1600  0.5500
14584TIP3   OH265242   5.143   4.497   0.014  0.1144 -0.2337 -0.4452
14584TIP3    H165243   5.223   4.535   0.052  0.3220 -0.2539 -0.8574
14584TIP3    H265244   5.083   4.571   0.005  0.4701 -0.0155 -1.1199
14585TIP3   OH265245   3.541   5.604   1.556  0.1381  0.3922 -0.3461
14585TIP3    H165246   3.471   5.551   1.518  0.4717  0.0331 -0.4776
14585TIP3    H265247   3.502   5.645   1.633  0.1680 -0.9216  0.4059
14586TIP3   OH265248   5.663   1.690   6.173  0.2835 -0.9807 -0.0130
14586TIP3    H165249   5.722   1.614   6.178  0.9694 -0.3883  2.9521
14586TIP3    H265250   5.612   1.685   6.254 -0.0010  1.4419  0.0157
14587TIP3   OH265251   0.839   6.069   1.941  0.1059  0.2393  0.1583
14587TIP3    H165252   0.917   6.124   1.935  0.1912 -0.0229 -2.0262
14587TIP3    H265253   0.873   5.979   1.940 -0.1541  0.0175 -3.4544
14588TIP3   OH265254   3.459   3.635  14.817 -0.5192 -0.4777 -0.7334
14588TIP3    H165255   3.490   3.544  14.822  2.1582  0.4351  1.6569
14588TIP3    H265256   3.364   3.627  14.813 -0.8244 -3.4398  4.1063
14589TIP3   OH265257   2.746   0.951   5.921 -0.5028  0.3689  1.0123
14589TIP3    H165258   2.666   0.954   5.973 -0.0490  3.3520  1.7095
14589TIP3    H265259   2.716   0.956   5.830 -1.1375  1.0562  1.2511
14590TIP3   OH265260   1.001   3.772   4.496  0.2220 -0.5170 -0.1790
14590TIP3    H165261   0.962   3.849   4.454  0.2177 -0.4673 -0.0839
14590TIP3    H265262   0.933   3.740   4.556  0.6618  0.1201  0.6842
14591TIP3   OH265263   2.628   1.766  15.828  0.0310  0.4415 -0.0728
14591TIP3    H165264   2.618   1.795  15.737 -1.4692 -1.6949 -0.6743
14591TIP3    H265265   2.593   1.838  15.880 -2.0625  0.4350 -1.3789
14592TIP3   OH265266   6.382   2.548   0.167 -0.4800 -0.0247  0.2283
14592TIP3    H165267   6.309   2.589   0.122 -0.9481  1.0396  1.8922
14592TIP3    H265268   6.455   2.609   0.155  0.1371 -1.0031 -1.2849
14593TIP3   OH265269   1.685   2.552   0.876 -0.5931  0.1783  0.5334
14593TIP3    H165270   1.754   2.557   0.943 -1.3611  0.5230  1.3113
14593TIP3    H265271   1.631   2.478   0.902 -0.5314 -0.0827 -0.0701
14594TIP3   OH265272   5.581   5.354  14.254 -0.2132 -0.1349  0.3364
14594TIP3    H165273   5.650   5.400  14.207  0.3407 -0.4624  0.8045
14594TIP3    H265274   5.619   5.336  14.340 -0.7967 -0.5311  0.5206
14595TIP3   OH265275   3.549   2.893   4.829  0.9352 -0.2356 -0.8125
14595TIP3    H165276   3.589   2.964   4.881 -0.4063 -0.5647  0.7464
14595TIP3    H265277   3.614   2.823   4.830  1.0801 -0.1075  0.1862
14596TIP3   OH265278   1.104   3.744   2.594 -0.0433  0.4254 -0.1637
14596TIP3    H165279   1.177   3.802   2.572  1.2965 -1.6959 -1.7112
14596TIP3    H265280   1.039   3.802   2.635  1.5723  2.8052 -0.7390
14597TIP3   OH265281   1.029   6.627  16.160 -0.3284 -0.6660 -0.4729
14597TIP3    H165282   1.026   6.594  16.070  2.7268  0.6580 -1.1996
14597TIP3    H265283   1.117   6.604  16.190 -0.7608  0.2612  1.6483
14598TIP3   OH265284   5.438   6.434  11.362 -0.2062  0.6996 -0.4088
14598TIP3    H165285   5.466   6.418  11.453  2.3340 -0.5760 -1.3001
14598TIP3    H265286   5.343   6.438  11.367 -0.1369  3.2027  2.6522
14599TIP3   OH265287   3.054   1.821  16.628 -0.8140 -0.2167  0.6036
14599TIP3    H165288   3.144   1.848  16.610 -0.9488  0.6571  1.1771
14599TIP3    H265289   3.001   1.877  16.571 -0.9450 -1.9524 -1.0887
14600TIP3   OH265290   0.131   0.373   0.535  0.4575  0.2402  0.3746
14600TIP3    H165291   0.150   0.461   0.567  2.2013 -0.3802  1.1627
14600TIP3    H265292   0.215   0.342   0.501 -0.1259 -1.1375  0.1522
14601TIP3   OH265293   2.342   3.994   6.057  0.2318 -0.5258 -0.0436
14601TIP3    H165294   2.289   4.059   6.102 -0.4799 -0.3733 -1.0454
14601TIP3    H265295   2.296   3.911   6.072 -0.7391 -0.2950 -1.4934
14602TIP3   OH265296   1.349   5.892   5.705 -0.4032  0.1695 -0.5809
14602TIP3    H165297   1.402   5.972   5.699  0.9798 -0.6947 -0.5176
14602TIP3    H265298   1.341   5.861   5.615 -0.6111  0.1911 -0.5686
14603TIP3   OH265299   6.721   5.514  10.406 -0.0907 -0.1954 -0.0508
14603TIP3    H165300   6.659   5.480  10.470 -0.2631 -1.1239 -0.6909
14603TIP3    H265301   6.699   5.607  10.398 -2.2858 -0.7358 -1.1887
14604TIP3   OH265302   4.242   3.039  11.362 -0.1599 -0.1992 -0.1396
14604TIP3    H165303   4.211   3.042  11.453  1.1320  0.5230  0.3000
14604TIP3    H265304   4.265   2.948  11.347 -1.2104 -0.5012 -0.0569
14605TIP3   OH265305   0.353   2.246  11.075  0.0472 -0.6888 -0.1186
14605TIP3    H165306   0.321   2.166  11.034 -2.7247 -0.0461  0.5489
14605TIP3    H265307   0.373   2.220  11.165 -0.8667 -0.6854  0.1026
14606TIP3   OH265308   2.569   0.094  12.051  0.0888  0.6464 -0.1317
14606TIP3    H165309   2.658   0.116  12.026  0.2591  0.3692  0.2301
14606TIP3    H265310   2.578   0.027  12.119 -0.4000 -0.5547 -1.1900
14607TIP3   OH265311   3.943   2.021  16.322 -0.1453 -0.2284 -0.1973
14607TIP3    H165312   3.896   1.961  16.380 -0.0053 -0.0784  0.0756
14607TIP3    H265313   3.908   2.004  16.235  0.5614 -1.3838 -0.2813
14608TIP3   OH265314   3.655   2.914  13.725  0.5333  0.3502  0.4682
14608TIP3    H165315   3.748   2.915  13.704  0.3904 -1.1319 -0.3220
14608TIP3    H265316   3.624   2.828  13.697 -1.0704  0.7859  0.7733
14609TIP3   OH265317   3.154   3.714   2.118  0.3760  0.1651  0.2139
14609TIP3    H165318   3.183   3.624   2.102 -0.2691 -0.2154  1.0972
14609TIP3    H265319   3.097   3.707   2.195  0.7173  1.4063  0.5999
14610TIP3   OH265320   6.231   0.924  14.295 -0.5184  0.0458  0.1959
14610TIP3    H165321   6.162   0.860  14.313 -0.7946  0.1020 -0.6316
14610TIP3    H265322   6.187   0.996  14.251  0.1536 -0.1638 -0.8511
14611TIP3   OH265323   4.143   4.174   1.221 -0.4492 -0.1729  0.3360
14611TIP3    H165324   4.157   4.079   1.230 -0.6542 -0.2094  0.2703
14611TIP3    H265325   4.051   4.187   1.240 -1.1149 -0.3485 -2.3017
14612TIP3   OH265326   0.385   2.880  17.108  0.1210  0.3633 -0.5576
14612TIP3    H165327   0.330   2.947  17.068 -0.5558  0.1628  0.0047
14612TIP3    H265328   0.331   2.844  17.179  0.4160 -0.8542 -0.9200
14613TIP3   OH265329   1.993   1.292   4.861  0.2246 -0.1890 -0.1055
14613TIP3    H165330   2.043   1.210   4.860  3.8936  1.7780  1.0642
14613TIP3    H265331   1.950   1.294   4.946  0.1447 -0.8832 -0.1272
14614TIP3   OH265332   3.382   5.945  15.605 -0.1086 -0.4727  0.7701
14614TIP3    H165333   3.305   5.963  15.551  0.0110  0.5144  0.9055
14614TIP3    H265334   3.365   5.859  15.643 -0.6906 -0.7006  0.0293
14615TIP3   OH265335   1.029   5.706  10.561 -0.0854  0.4270 -0.7057
14615TIP3    H165336   0.996   5.638  10.502  0.5575  0.0391 -0.6263
14615TIP3    H265337   1.053   5.659  10.641 -1.0985  0.9702 -0.0630
14616TIP3   OH265338   4.403   0.396   1.361 -0.4901 -0.0464  0.3397
14616TIP3    H165339   4.425   0.459   1.293 -1.0524 -1.9424 -1.6957
14616TIP3    H265340   4.404   0.311   1.317 -0.7162 -1.3951  2.7440
14617TIP3   OH265341   2.118   6.234   2.906  0.0547 -0.7786  0.0538
14617TIP3    H165342   2.141   6.188   2.825  0.5058 -0.1503 -0.1888
14617TIP3    H265343   2.059   6.303   2.878  0.3605 -0.4419  0.2309
14618TIP3   OH265344   5.851   3.879  11.567  0.1416 -0.5282  0.0695
14618TIP3    H165345   5.779   3.939  11.546  0.7582 -0.2689 -1.4332
14618TIP3    H265346   5.906   3.929  11.627 -1.2625 -0.9955  1.8417
14619TIP3   OH265347   2.171   2.407  12.333 -0.4698  0.5081 -0.0997
14619TIP3    H165348   2.080   2.380  12.347 -0.2363 -0.2523  0.0148
14619TIP3    H265349   2.177   2.422  12.238 -0.3899 -0.7169 -0.3028
14620TIP3   OH265350   3.620   1.957   2.698  0.1572 -0.3987  0.1171
14620TIP3    H165351   3.659   2.042   2.718 -1.7598  1.9426 -4.5308
14620TIP3    H265352   3.686   1.911   2.646  0.3250 -0.7491  0.6348
14621TIP3   OH265353   2.004   1.820  15.905 -0.4352 -0.5099 -0.1438
14621TIP3    H165354   2.060   1.896  15.886 -1.3213  0.6146  1.5057
14621TIP3    H265355   2.057   1.765  15.963 -0.7728  0.2567  0.9247
14622TIP3   OH265356   5.050   3.047  16.061  0.1493 -0.3087  0.4990
14622TIP3    H165357   5.020   3.071  16.148  1.8621  1.6791  0.6080
14622TIP3    H265358   5.087   3.127  16.025  1.9019 -1.7033 -1.0232
14623TIP3   OH265359   1.521   4.411   5.461 -0.3544 -0.2837  0.1729
14623TIP3    H165360   1.596   4.398   5.519 -0.4060 -0.3369  0.2281
14623TIP3    H265361   1.479   4.490   5.494  1.4500  1.5971 -1.7569
14624TIP3   OH265362   5.173   1.360  11.900 -0.5874 -0.0835 -0.0845
14624TIP3    H165363   5.243   1.306  11.865  1.0167  1.3608  0.7471
14624TIP3    H265364   5.094   1.331  11.853  0.7949 -0.7559 -2.1170
14625TIP3   OH265365   2.992   6.728  12.252  0.3373 -0.5652 -0.4651
14625TIP3    H165366   2.936   6.658  12.285  0.6390 -0.4094  0.3952
14625TIP3    H265367   3.061   6.737  12.318  0.2712  0.5819 -0.5336
14626TIP3   OH265368   5.216   4.224   5.007 -0.0582  0.5805 -0.1199
14626TIP3    H165369   5.181   4.265   5.086  1.1162 -0.4163  0.9641
14626TIP3    H265370   5.151   4.157   4.984 -0.3736  0.8282  0.0372
14627TIP3   OH265371   1.565   1.533   1.626 -0.4562  0.0212  0.3866
14627TIP3    H165372   1.603   1.460   1.675 -0.5165 -0.5767 -0.4428
14627TIP3    H265373   1.561   1.605   1.690  0.9425 -0.2630  0.8267
14628TIP3   OH265374   6.507   3.568  12.105 -0.5858  0.1900 -0.2656
14628TIP3    H165375   6.560   3.569  12.184  1.7316  1.5172 -1.6858
14628TIP3    H265376   6.429   3.517  12.127  0.4240 -0.2845  2.5194
14629TIP3   OH265377   6.692   2.183  16.948  0.6649  0.1849 -0.1726
14629TIP3    H165378   6.691   2.268  16.903 -0.4247  0.8066  0.9696
14629TIP3    H265379   6.764   2.191  17.012  2.0904 -0.6309 -1.6032
14630TIP3   OH265380   4.161   5.955  12.968 -0.5308 -0.1330  0.2955
14630TIP3    H165381   4.220   5.972  13.042  0.3372 -3.1466  0.4332
14630TIP3    H265382   4.074   5.949  13.008 -0.2888 -0.1884  0.8280
14631TIP3   OH265383   5.475   6.204  12.079 -0.5899  0.2325 -0.0453
14631TIP3    H165384   5.557   6.167  12.110 -0.3185 -0.2933 -1.3413
14631TIP3    H265385   5.407   6.152  12.122 -0.2429  0.0659  0.3033
14632TIP3   OH265386   3.062   2.062  11.146  0.0103 -0.2889  0.3132
14632TIP3    H165387   2.992   2.000  11.128  0.1288 -0.1070 -0.8633
14632TIP3    H265388   3.046   2.091  11.235  0.6500 -2.9046  1.3719
14633TIP3   OH265389   5.108   3.967   5.244  0.1710  0.1243  0.7322
14633TIP3    H165390   5.086   3.962   5.151 -0.7138  0.3640  0.9258
14633TIP3    H265391   5.056   4.040   5.277  2.3152  1.6731  0.9083
14634TIP3   OH265392   1.783   1.673   0.275  0.0091 -0.2093  0.6750
14634TIP3    H165393   1.721   1.610   0.313 -3.3864  2.3259 -0.1700
14634TIP3    H265394   1.793   1.741   0.342  0.5560  0.2364  0.1571
14635TIP3   OH265395   0.200   2.701  11.290  0.0382  0.1921 -0.2238
14635TIP3    H165396   0.216   2.770  11.354  0.5703  0.4631 -0.6392
14635TIP3    H265397   0.232   2.621  11.332 -0.7525  0.1603  0.3318
14636TIP3   OH265398   0.322   2.736   3.684  0.1775 -0.2742 -0.1304
14636TIP3    H165399   0.356   2.647   3.689  1.0710  0.1260  1.7499
14636TIP3    H265400   0.256   2.740   3.754  1.8797  1.1774  1.5213
14637TIP3   OH265401   5.358   5.849   0.261  0.7185 -0.2047 -0.4349
14637TIP3    H165402   5.410   5.929   0.266 -0.4412  0.4948  1.7602
14637TIP3    H265403   5.382   5.810   0.177  4.5298  0.2196  0.2484
14638TIP3   OH265404   3.256   0.356   4.019 -0.0618  0.7548  0.1423
14638TIP3    H165405   3.340   0.327   4.054 -0.5654  0.1758  0.9301
14638TIP3    H265406   3.223   0.280   3.970  0.1103  1.1636 -0.6204
14639TIP3   OH265407   3.636   1.195   4.106  0.2209  0.6566  0.3503
14639TIP3    H165408   3.615   1.153   4.022  0.7788 -0.4129  0.7353
14639TIP3    H265409   3.558   1.248   4.126  0.0780  0.9298 -0.8319
14640TIP3   OH265410   6.638   5.155   2.921 -0.0193  0.0204  0.1419
14640TIP3    H165411   6.723   5.110   2.918 -0.1745 -0.2729  0.1349
14640TIP3    H265412   6.576   5.091   2.888 -0.3388  0.0056  0.7495
14641TIP3   OH265413   1.812   6.353   0.128  0.1692 -0.2993 -0.0112
14641TIP3    H165414   1.767   6.366   0.212  0.8147 -0.5050  0.3730
14641TIP3    H265415   1.776   6.421   0.071  1.2945  1.3031  1.0802
14642TIP3   OH265416   1.280   0.668  11.898  0.2052  0.1186  0.2824
14642TIP3    H165417   1.204   0.724  11.883  1.0428  1.7372  1.7459
14642TIP3    H265418   1.324   0.665  11.813 -1.7372 -1.3591 -0.7643
14643TIP3   OH265419   5.309   5.307   2.643 -0.2786 -0.2395  0.4093
14643TIP3    H165420   5.342   5.397   2.646 -0.2026 -0.1193 -1.9875
14643TIP3    H265421   5.388   5.253   2.643 -0.2191 -0.1725 -0.2871
14644TIP3   OH265422   3.750   3.897   5.993  0.0561  0.7192  0.3631
14644TIP3    H165423   3.812   3.847   6.046 -0.0591 -0.4379 -0.5646
14644TIP3    H265424   3.666   3.854   6.006 -0.0777  0.7654 -0.3142
14645TIP3   OH265425   6.099   1.443   2.608  0.1029  0.5322  0.2934
14645TIP3    H165426   6.178   1.389   2.599  0.2630  1.0176 -1.6295
14645TIP3    H265427   6.045   1.396   2.671  1.1418 -0.7939  0.2373
14646TIP3   OH265428   3.078   4.209   5.378 -0.3422 -0.2772  0.1010
14646TIP3    H165429   3.141   4.207   5.450 -0.3077 -2.4418  0.0802
14646TIP3    H265430   2.993   4.225   5.420 -0.0992  0.3120  0.3831
14647TIP3   OH265431   5.221   5.600  11.735  0.0129 -0.6036 -0.0368
14647TIP3    H165432   5.183   5.635  11.815 -1.5637 -0.3050 -0.8687
14647TIP3    H265433   5.253   5.676  11.687 -1.7701 -0.4025 -1.0143
14648TIP3   OH265434   2.784   0.388  10.630 -0.2437  0.1959 -0.2945
14648TIP3    H165435   2.792   0.463  10.570 -0.6948  0.2709 -0.2692
14648TIP3    H265436   2.871   0.378  10.668 -0.2552  0.9130 -0.0587
14649TIP3   OH265437   6.175   0.185   1.930  0.0165 -0.2480  0.5174
14649TIP3    H165438   6.131   0.231   1.859  0.3295 -1.0550 -0.2101
14649TIP3    H265439   6.116   0.195   2.005 -0.5259  0.2336  0.0366
14650TIP3   OH265440   4.117   3.014   3.138 -0.0728  0.5634 -0.5250
14650TIP3    H165441   4.048   3.003   3.203  0.2271  0.0297 -0.2965
14650TIP3    H265442   4.178   3.077   3.178 -0.4618  1.0992 -0.7615
14651TIP3   OH265443   1.792   5.278   0.791 -0.4934 -0.2444  0.5792
14651TIP3    H165444   1.784   5.241   0.703  0.0925  0.6624  0.1329
14651TIP3    H265445   1.740   5.357   0.790 -1.2244 -0.6935  1.3433
14652TIP3   OH265446   3.252   5.360   3.823  0.1191 -0.2607  0.0625
14652TIP3    H165447   3.188   5.359   3.894 -0.7483 -1.5284 -0.6895
14652TIP3    H265448   3.231   5.439   3.773  0.1609  0.1609  0.6960
14653TIP3   OH265449   5.135   0.538  14.936 -0.9072  0.2199 -0.6300
14653TIP3    H165450   5.222   0.540  14.895 -0.4962  2.2988  0.2020
14653TIP3    H265451   5.076   0.513  14.865  0.3587 -1.5478 -1.1455
14654TIP3   OH265452   0.068   3.762  15.202 -0.0101 -0.1392 -0.1928
14654TIP3    H165453   0.054   3.850  15.168  0.0379  0.5556  1.4675
14654TIP3    H265454  -0.005   3.711  15.167 -0.8137  0.9026 -0.0847
14655TIP3   OH265455   0.282   6.471  16.892  0.2153 -0.0753  0.0791
14655TIP3    H165456   0.374   6.495  16.892  0.4817 -0.7055  2.9877
14655TIP3    H265457   0.236   6.550  16.919 -0.3358  0.6467 -2.6804
14656TIP3   OH265458   3.035   1.051  11.673  0.0447  0.1649  0.6670
14656TIP3    H165459   3.093   1.022  11.603  0.7117  0.9826  0.8644
14656TIP3    H265460   3.023   0.973  11.727  0.4092 -0.1934  0.2446
14657TIP3   OH265461   0.549   2.888  15.629  1.0769 -0.4096  0.1785
14657TIP3    H165462   0.564   2.803  15.671  0.1694 -0.9910 -0.6468
14657TIP3    H265463   0.634   2.913  15.592  1.7460 -0.1784  1.7855
14658TIP3   OH265464   6.759   1.656   1.946 -0.1659  0.0548  0.0413
14658TIP3    H165465   6.790   1.612   2.026  0.0078 -0.6860 -0.4243
14658TIP3    H265466   6.682   1.606   1.920 -2.1013  2.0941  1.4002
14659TIP3   OH265467   2.532   5.377  14.264 -0.1101 -0.1233  0.2369
14659TIP3    H165468   2.540   5.284  14.241 -3.8505 -0.1703 -1.5242
14659TIP3    H265469   2.618   5.399  14.302  0.8974 -4.2752  0.9253
14660TIP3   OH265470   1.516   5.779   1.135 -0.0724  0.0675 -0.1899
14660TIP3    H165471   1.456   5.768   1.062  0.1645 -2.7261 -0.0810
14660TIP3    H265472   1.518   5.693   1.177  2.5857  0.5765  0.9140
14661TIP3   OH265473   3.619   0.462   4.937  0.5956 -0.2461  0.0134
14661TIP3    H165474   3.608   0.376   4.978 -2.0858 -0.3326 -0.7373
14661TIP3    H265475   3.545   0.514   4.970 -0.8525  0.1376 -3.4694
14662TIP3   OH265476   2.470   2.293   6.265 -0.5555 -0.0897  0.0483
14662TIP3    H165477   2.520   2.233   6.210  0.8942 -0.3437  1.5568
14662TIP3    H265478   2.419   2.236   6.322 -1.4613  0.1685 -0.4801
14663TIP3   OH265479   6.494   1.804  15.829 -0.1101 -0.4377  0.0917
14663TIP3    H165480   6.505   1.787  15.735  0.0722 -0.7193  0.1603
14663TIP3    H265481   6.530   1.892  15.841  0.3060 -0.5859 -0.0243
14664TIP3   OH265482   2.708   5.639   3.226  0.7863  0.6812 -0.1583
14664TIP3    H165483   2.686   5.576   3.158 -1.6352 -0.2385  1.3293
14664TIP3    H265484   2.633   5.699   3.228  1.4977  1.5755  0.7052
14665TIP3   OH265485   2.440   0.519  10.474 -0.5510  0.7901  0.5513
14665TIP3    H165486   2.458   0.610  10.498 -0.9645  0.9655  0.2244
14665TIP3    H265487   2.394   0.483  10.550 -1.0904  1.0899  0.3741
14666TIP3   OH265488   4.685   0.041   5.001  0.2885  0.1691  0.3093
14666TIP3    H165489   4.739   0.115   4.972  0.9889  0.4243  2.1389
14666TIP3    H265490   4.685  -0.019   4.926  2.4693  0.5309 -0.0531
14667TIP3   OH265491   1.693   6.270  15.092 -0.4306  0.1678  0.6070
14667TIP3    H165492   1.613   6.219  15.080 -1.3403  1.8244 -0.7821
14667TIP3    H265493   1.679   6.317  15.174 -1.1283  0.8490  0.1066
14668TIP3   OH265494   4.215   0.434  14.918 -0.1755 -0.1967 -0.9545
14668TIP3    H165495   4.268   0.357  14.934 -0.9388 -0.2361  1.9032
14668TIP3    H265496   4.124   0.403  14.927 -0.4977  0.9234 -0.0798
14669TIP3   OH265497   0.102   0.891   0.713 -0.3175  0.2205 -0.4045
14669TIP3    H165498   0.089   0.977   0.675  0.3855 -0.1563 -1.5741
14669TIP3    H265499   0.179   0.901   0.769 -1.0529  0.6581  0.5548
14670TIP3   OH265500   6.134   1.478   2.267 -0.3442  0.5771  0.1502
14670TIP3    H165501   6.140   1.551   2.204  0.6441  0.6685  0.3343
14670TIP3    H265502   6.046   1.485   2.304 -0.2891  1.6401  0.1071
14671TIP3   OH265503   3.833   0.317   4.272  0.5164 -0.7910  0.1667
14671TIP3    H165504   3.856   0.410   4.281 -1.1926 -0.0409 -2.1722
14671TIP3    H265505   3.790   0.294   4.354 -1.0682  1.1811 -0.0355
14672TIP3   OH265506   0.673   6.434  13.544  0.2733  0.1478 -0.4645
14672TIP3    H165507   0.717   6.414  13.461  0.6643  0.1053 -0.2501
14672TIP3    H265508   0.744   6.459  13.603 -0.1122  1.4146 -0.5019
14673TIP3   OH265509   0.117   1.822  11.679 -0.1375 -0.1809  0.3607
14673TIP3    H165510   0.130   1.915  11.659 -0.7470  0.0997  1.2165
14673TIP3    H265511   0.117   1.818  11.775 -0.2870 -1.0439  0.3323
14674TIP3   OH265512   2.766   3.013   2.931  0.0482 -0.0968  0.0041
14674TIP3    H165513   2.713   2.938   2.903 -3.0611  1.3465  1.4838
14674TIP3    H265514   2.749   3.080   2.864  1.2904 -0.0667 -0.3043
14675TIP3   OH265515   6.574   1.552  13.679 -0.6357  0.3263 -0.1407
14675TIP3    H165516   6.563   1.644  13.704  0.2207  0.0829  1.2569
14675TIP3    H265517   6.492   1.510  13.705 -0.5770  0.4826  0.2997
14676TIP3   OH265518   4.047   2.181   4.033  0.6157 -0.6125  0.0561
14676TIP3    H165519   4.030   2.097   3.991  0.7858 -1.4539  1.6113
14676TIP3    H265520   4.139   2.199   4.015  0.7253 -1.0372  0.1848
14677TIP3   OH265521   5.280   4.073   3.678 -0.0761 -0.0727  0.2625
14677TIP3    H165522   5.360   4.020   3.674 -0.6529 -0.8828 -1.2421
14677TIP3    H265523   5.209   4.010   3.667 -0.8902  0.7450  0.7338
14678TIP3   OH265524   4.113   0.634  13.437  0.0645 -0.3939  0.0261
14678TIP3    H165525   4.122   0.634  13.532 -1.4994  1.3553  0.2427
14678TIP3    H265526   4.139   0.546  13.410 -0.3433 -1.2254  2.1642
14679TIP3   OH265527   3.770   6.784   4.730 -0.3720  0.0578  0.0346
14679TIP3    H165528   3.677   6.777   4.707 -0.6842  1.0836  0.8885
14679TIP3    H265529   3.772   6.850   4.799  1.1257  1.0082 -0.8512
14680TIP3   OH265530   5.015   3.868   2.182 -0.3043  0.2083 -0.1890
14680TIP3    H165531   4.931   3.844   2.142 -0.4758  1.0261 -0.3347
14680TIP3    H265532   4.991   3.905   2.267 -0.1262  0.8396 -0.4109
14681TIP3   OH265533   0.551   6.125  10.228  0.4697  0.0810 -0.9268
14681TIP3    H165534   0.576   6.034  10.238 -0.6878 -0.3110 -1.4034
14681TIP3    H265535   0.495   6.144  10.303  0.8892  0.4800 -0.7042
14682TIP3   OH265536   5.495   4.547   5.046 -0.2434 -0.1335 -0.0861
14682TIP3    H165537   5.586   4.546   5.074  0.5498 -0.9664 -2.5057
14682TIP3    H265538   5.487   4.627   4.993 -0.8633 -0.1999 -0.1048
14683TIP3   OH265539   4.576   0.379  15.640 -0.6354  0.1431  0.3996
14683TIP3    H165540   4.627   0.298  15.643  0.3837  0.7263 -0.2749
14683TIP3    H265541   4.572   0.408  15.731  0.4358  0.1811  0.4491
14684TIP3   OH265542   2.350   5.885   5.837  0.8121  0.4022  0.4775
14684TIP3    H165543   2.355   5.967   5.887 -0.1140 -0.4186  1.9764
14684TIP3    H265544   2.294   5.906   5.762  1.2673  1.3532  0.3885
14685TIP3   OH265545   5.879   1.072  12.589 -0.4647  0.3729  0.4094
14685TIP3    H165546   5.921   1.087  12.505 -0.2634 -1.1474  0.2102
14685TIP3    H265547   5.951   1.068  12.652 -0.5498  0.6843  0.5292
14686TIP3   OH265548   3.593   0.849   6.216 -0.5596  0.2981  0.1002
14686TIP3    H165549   3.597   0.934   6.172  1.6786 -0.7067 -1.8496
14686TIP3    H265550   3.545   0.867   6.297 -0.2394  3.4028 -0.2512
14687TIP3   OH265551   1.627   2.511   3.626  0.2628  0.6198 -0.0259
14687TIP3    H165552   1.540   2.513   3.665  0.8861  0.8485  1.4456
14687TIP3    H265553   1.668   2.433   3.663  1.3188  1.5400  0.8124
14688TIP3   OH265554   2.059   3.474  15.247 -0.0791  0.3271 -0.0952
14688TIP3    H165555   2.111   3.455  15.325 -0.5230  0.1776  0.1664
14688TIP3    H265556   2.119   3.522  15.189  0.3403  0.1749  0.2118
14689TIP3   OH265557   6.414   1.379   5.035  0.6192 -0.7361  0.6109
14689TIP3    H165558   6.505   1.388   5.063  0.5533  0.5954  0.4837
14689TIP3    H265559   6.363   1.408   5.111  0.3980  1.2367 -0.2309
14690TIP3   OH265560   6.286   3.893  11.283 -0.0332  0.0454  0.0150
14690TIP3    H165561   6.279   3.977  11.328 -0.6256 -0.2473  0.4828
14690TIP3    H265562   6.331   3.836  11.346  1.3581  0.2880 -0.7104
14691TIP3   OH265563   0.319   1.065   4.746 -0.0538 -0.3376 -0.1844
14691TIP3    H165564   0.394   1.032   4.796  0.8230  0.1650 -1.1397
14691TIP3    H265565   0.299   0.996   4.684  0.3661 -0.0044 -0.6999
14692TIP3   OH265566   2.704   3.333  15.471  0.6890 -0.6947 -0.2901
14692TIP3    H165567   2.621   3.336  15.424  0.4617  0.3385  0.1555
14692TIP3    H265568   2.680   3.313  15.562  0.8226  0.5826  0.0422
14693TIP3   OH265569   4.519   2.934   4.424 -0.4416  0.2328  0.1835
14693TIP3    H165570   4.500   2.894   4.509  0.9713  0.4099  0.5988
14693TIP3    H265571   4.456   3.006   4.417 -1.6005 -0.7412  0.3748
14694TIP3   OH265572   4.816   3.228   0.299 -0.5624 -0.4583  0.1810
14694TIP3    H165573   4.805   3.250   0.392 -0.0401  0.1598  0.0980
14694TIP3    H265574   4.756   3.287   0.254  0.7312  0.7477 -0.0293
14695TIP3   OH265575   1.835   0.845  10.598  0.7259  0.0038  0.3046
14695TIP3    H165576   1.908   0.814  10.544 -1.1141 -2.4716 -0.9791
14695TIP3    H265577   1.802   0.922  10.552  2.2857  1.0222  0.7802
14696TIP3   OH265578   4.859   5.732  14.951 -0.5269 -0.4594  0.3015
14696TIP3    H165579   4.827   5.677  14.879 -1.2818 -0.1313  0.3732
14696TIP3    H265580   4.780   5.751  15.002 -0.6685  2.2062 -0.7264
14697TIP3   OH265581   4.229   1.049   3.528 -0.0556  0.4758 -0.3658
14697TIP3    H165582   4.225   0.960   3.562  2.0117  1.1982  2.0662
14697TIP3    H265583   4.313   1.053   3.482 -0.0105  1.2225 -0.2285
14698TIP3   OH265584   0.993   1.683   2.099 -0.1092 -0.0064  0.5229
14698TIP3    H165585   0.959   1.736   2.027  0.6494 -1.0958 -0.6773
14698TIP3    H265586   1.008   1.746   2.170  1.2449  1.5012 -1.0157
14699TIP3   OH265587   4.039   1.885   4.121 -0.6589 -0.2224  0.1248
14699TIP3    H165588   4.010   1.818   4.182  3.0869 -2.6871 -0.4592
14699TIP3    H265589   4.127   1.908   4.150 -0.1341  1.1744 -2.2464
14700TIP3   OH265590   5.103   0.937   0.887  0.1285 -0.1069  0.3511
14700TIP3    H165591   5.047   1.014   0.883 -0.0100 -0.1549  1.2200
14700TIP3    H265592   5.052   0.872   0.936 -1.0287 -1.8628 -2.9134
14701TIP3   OH265593   5.108   6.276  13.691  0.1056 -0.0700 -0.1537
14701TIP3    H165594   5.069   6.210  13.634 -0.4243 -0.8304  1.0319
14701TIP3    H265595   5.097   6.240  13.780  1.9178  0.5106  0.3658
14702TIP3   OH265596   2.897   0.570  16.732  0.2063  0.1224  0.0798
14702TIP3    H165597   2.891   0.576  16.637 -1.1317  1.0073  0.1920
14702TIP3    H265598   2.940   0.652  16.758 -0.7769  0.5822  0.3176
14703TIP3   OH265599   6.645   3.668   1.531 -0.3999  0.4274 -0.5810
14703TIP3    H165600   6.695   3.699   1.456  1.5607 -0.2050  0.3931
14703TIP3    H265601   6.617   3.580   1.507  1.5213 -0.3770 -0.0626
14704TIP3   OH265602   6.314   0.831   5.302 -0.2458 -0.2063 -0.0550
14704TIP3    H165603   6.253   0.792   5.365  0.1110 -0.5309  0.0916
14704TIP3    H265604   6.260   0.891   5.251 -0.4184  0.6052  1.0322
14705TIP3   OH265605   5.415   4.535  16.459  0.4774  0.1587  0.0022
14705TIP3    H165606   5.503   4.546  16.494  1.1760  0.4352 -1.7113
14705TIP3    H265607   5.422   4.459  16.401 -1.0627 -1.4066  1.7272
14706TIP3   OH265608   4.293   4.143   0.782 -0.4414  0.4575 -0.0652
14706TIP3    H165609   4.226   4.209   0.798 -1.2905 -0.1824 -0.8550
14706TIP3    H265610   4.311   4.150   0.688  0.8699  0.8522  0.1887
14707TIP3   OH265611   5.760   5.188   1.601 -0.5315 -0.0216 -0.0309
14707TIP3    H165612   5.712   5.262   1.566 -0.2144  0.7614  1.1180
14707TIP3    H265613   5.795   5.219   1.685  2.4653 -0.3292 -1.0286
14708TIP3   OH265614   0.621   4.570   0.382 -0.7000  1.1763  0.0206
14708TIP3    H165615   0.540   4.524   0.360  0.4031  0.0372 -1.8913
14708TIP3    H265616   0.605   4.660   0.356 -0.9293  0.7016 -1.5526
14709TIP3   OH265617   2.660   5.111  11.247  0.4805  0.2326  0.0983
14709TIP3    H165618   2.597   5.179  11.270  0.4352 -0.0610  0.8834
14709TIP3    H265619   2.641   5.090  11.155 -0.4825  0.2447  0.2862
14710TIP3   OH265620   0.095   6.264  14.538 -0.1615 -0.8767 -0.2905
14710TIP3    H165621  -0.000   6.253  14.532 -0.0046 -2.3895 -0.6349
14710TIP3    H265622   0.127   6.244  14.450  0.4029  0.9755 -0.5516
14711TIP3   OH265623   0.838   0.398  13.093  0.2022  0.3153 -0.1435
14711TIP3    H165624   0.849   0.485  13.054 -0.9464  0.7293  0.4186
14711TIP3    H265625   0.841   0.338  13.018 -1.5131  1.0570 -0.8637
14712TIP3   OH265626   3.759   1.483  12.760 -0.5781 -0.5349 -0.4165
14712TIP3    H165627   3.745   1.578  12.754  2.3624 -0.0482 -1.0566
14712TIP3    H265628   3.833   1.466  12.702  1.1433 -2.6936  2.1908
14713TIP3   OH265629   6.655   3.925  11.296  0.4034 -0.8439 -1.0034
14713TIP3    H165630   6.737   3.973  11.306 -0.2335  0.3800 -1.4268
14713TIP3    H265631   6.626   3.945  11.206 -0.5156 -0.9820 -0.7484
14714TIP3   OH265632   6.125   0.506  14.534 -0.3901 -0.0068  0.4317
14714TIP3    H165633   6.155   0.597  14.534  0.3903 -0.2486  0.9998
14714TIP3    H265634   6.160   0.470  14.616 -1.4955 -0.5608  0.6713
14715TIP3   OH265635   0.430   2.585   0.520  0.1577  0.1676  0.0202
14715TIP3    H165636   0.491   2.515   0.501  0.5891  0.2833  0.9410
14715TIP3    H265637   0.443   2.648   0.449  1.4992  0.4451  0.4993
14716TIP3   OH265638   0.795   0.590  17.121  0.1667  0.0470 -0.8360
14716TIP3    H165639   0.750   0.632  17.049 -1.7234  0.1051  0.3002
14716TIP3    H265640   0.726   0.540  17.166  1.3667 -0.3431  0.6543
14717TIP3   OH265641   6.577   4.922  16.533 -0.9686 -0.2906  0.7145
14717TIP3    H165642   6.662   4.936  16.574 -0.0423  0.8162 -1.4061
14717TIP3    H265643   6.528   5.002  16.550  0.2573  1.1767 -2.0878
14718TIP3   OH265644   4.699   4.556  16.386  0.0832 -0.4352 -0.1068
14718TIP3    H165645   4.792   4.556  16.362  0.2009  0.2081  0.3201
14718TIP3    H265646   4.679   4.464  16.404  0.8477 -0.4791  0.5790
14719TIP3   OH265647   0.949   2.475   3.031  0.3793  0.1963 -0.1075
14719TIP3    H165648   1.003   2.459   3.109 -1.4607  0.8250  1.3815
14719TIP3    H265649   0.881   2.406   3.035  0.7152 -0.2452 -1.6182
14720TIP3   OH265650   6.759   5.546  13.954  0.5559 -0.4500  0.4222
14720TIP3    H165651   6.791   5.585  14.036 -2.2217  1.7931  0.6057
14720TIP3    H265652   6.699   5.612  13.919  0.7132 -1.8864 -2.8292
14721TIP3   OH265653   3.620   4.721   0.567 -0.3338  0.5150  0.0124
14721TIP3    H165654   3.550   4.715   0.502 -0.2390 -0.1512 -0.0422
14721TIP3    H265655   3.577   4.702   0.650 -0.5509  1.8524  0.2276
14722TIP3   OH265656   1.800   2.106   0.893 -0.5682 -0.5666 -0.3219
14722TIP3    H165657   1.800   2.029   0.949  0.5503  0.4409  1.1201
14722TIP3    H265658   1.889   2.110   0.858 -0.7361 -0.1590 -0.7167
14723TIP3   OH265659   5.575   1.217   2.735 -0.2238  0.5709 -0.0939
14723TIP3    H165660   5.665   1.209   2.705  0.0746  0.0659  0.8824
14723TIP3    H265661   5.522   1.205   2.657  0.5039 -1.1669 -0.3624
14724TIP3   OH265662   6.127   3.434   0.459 -0.5708  0.0084  0.0994
14724TIP3    H165663   6.052   3.377   0.442  0.1515 -0.5705 -1.2855
14724TIP3    H265664   6.134   3.436   0.555 -1.0750 -1.6331  0.2013
14725TIP3   OH265665   5.940   6.610  14.144 -0.3600  0.1850  0.4926
14725TIP3    H165666   6.025   6.645  14.119 -0.6795 -0.4178 -1.6358
14725TIP3    H265667   5.888   6.687  14.166  0.4837  0.6217  0.9774
14726TIP3   OH265668   4.769   4.659   2.761 -0.0371 -0.1891 -0.1519
14726TIP3    H165669   4.714   4.694   2.691 -0.1552 -1.2469 -0.6142
14726TIP3    H265670   4.826   4.596   2.717 -0.4039 -1.1920  0.7623
14727TIP3   OH265671   1.858   6.484  12.179 -0.0375 -0.0037  0.6269
14727TIP3    H165672   1.811   6.494  12.261  1.5424  0.2008  1.5597
14727TIP3    H265673   1.850   6.568  12.135 -2.6362 -0.7365 -0.4643
14728TIP3   OH265674   6.757   2.224  14.459  0.6095 -0.2366  0.3299
14728TIP3    H165675   6.820   2.282  14.417  0.6599 -1.0397 -0.7722
14728TIP3    H265676   6.699   2.281  14.508 -0.4298  0.9578 -2.1150
14729TIP3   OH265677   5.958   5.938  10.555  0.2949 -0.4003  0.3628
14729TIP3    H165678   5.978   5.950  10.648  0.3130  0.7448  0.2158
14729TIP3    H265679   5.883   5.994  10.539 -0.6946 -1.7634  0.0188
14730TIP3   OH265680   4.091   2.797   2.305  0.1268  0.2134 -0.3874
14730TIP3    H165681   4.056   2.801   2.217  1.0100  1.6222 -0.7025
14730TIP3    H265682   4.185   2.782   2.293  0.0503 -1.0839  0.3742
14731TIP3   OH265683   6.081   0.693  12.518  0.3202  0.8218  0.3256
14731TIP3    H165684   5.986   0.683  12.528  0.2323  0.0669 -1.0383
14731TIP3    H265685   6.099   0.782  12.549 -1.0922  1.6001 -0.9606
14732TIP3   OH265686   0.605   4.393   6.591  0.1824 -0.1325 -0.1922
14732TIP3    H165687   0.604   4.430   6.679 -0.2766 -2.5661  0.9001
14732TIP3    H265688   0.696   4.366   6.577 -0.0808 -1.3354  0.2897
14733TIP3   OH265689   4.948   0.242   4.330 -0.1922  0.3527  0.0959
14733TIP3    H165690   4.905   0.251   4.245  0.2670 -0.2641 -0.2077
14733TIP3    H265691   4.936   0.149   4.353 -0.0003  0.4339  0.5309
14734TIP3   OH265692   0.318   1.515  14.596  0.3029  0.1060  0.3373
14734TIP3    H165693   0.406   1.552  14.589  0.4666 -0.5425 -1.7037
14734TIP3    H265694   0.327   1.445  14.660  1.5129 -0.5204 -0.4765
14735TIP3   OH265695   5.045   6.142   3.654  0.6091 -0.2573  0.0971
14735TIP3    H165696   5.088   6.058   3.642  0.0751 -0.5419  0.1354
14735TIP3    H265697   5.014   6.166   3.567 -0.0996 -0.5811  0.2505
14736TIP3   OH265698   2.328   6.502   1.396  0.3326 -0.6745 -0.4093
14736TIP3    H165699   2.319   6.415   1.437 -2.4329 -0.4562 -0.3371
14736TIP3    H265700   2.346   6.483   1.304 -0.8572 -1.4072 -0.5264
14737TIP3   OH265701   5.967   6.702   4.482  0.1802 -0.5020 -0.0278
14737TIP3    H165702   6.018   6.636   4.434 -0.4714  0.5028 -2.2181
14737TIP3    H265703   5.878   6.693   4.447 -0.2735  0.4225  0.8600
14738TIP3   OH265704   4.489   4.122  12.796 -0.2284  0.3423  0.3151
14738TIP3    H165705   4.561   4.087  12.745  0.2935  0.3703  1.0216
14738TIP3    H265706   4.416   4.062  12.780 -0.2759  0.7263 -0.9811
14739TIP3   OH265707   2.598   4.056  10.936 -0.3415  0.3703 -0.3877
14739TIP3    H165708   2.620   4.042  10.844  1.9228  0.1385  0.1293
14739TIP3    H265709   2.666   4.114  10.969  0.1096 -1.1695  1.6167
14740TIP3   OH265710   4.051   1.021  11.222  0.1245 -0.1997 -0.6589
14740TIP3    H165711   4.024   0.958  11.289 -0.4713  0.0676 -0.6443
14740TIP3    H265712   4.147   1.016  11.223  0.0865 -1.4068 -0.9559
14741TIP3   OH265713   4.943   2.119  12.159 -0.5496  0.1560  0.0704
14741TIP3    H165714   4.909   2.048  12.213 -0.6228 -1.1921 -1.6491
14741TIP3    H265715   4.909   2.198  12.200 -0.4556 -0.7697  2.0650
14742TIP3   OH265716   1.862   6.087   4.611  0.0922 -0.4705 -0.2180
14742TIP3    H165717   1.885   6.003   4.571  0.8057 -0.4265  0.0720
14742TIP3    H265718   1.847   6.066   4.703  1.7545 -0.0692  0.1770
14743TIP3   OH265719   2.540   3.840  15.006  0.3263  0.0420 -0.3471
14743TIP3    H165720   2.630   3.865  15.030  0.8758 -2.0933  0.0172
14743TIP3    H265721   2.545   3.746  14.988 -1.1978  0.4255 -3.4881
14744TIP3   OH265722   1.146   6.180  11.173 -0.3003 -0.2770  0.3669
14744TIP3    H165723   1.122   6.232  11.096 -3.7692  0.2293  1.6006
14744TIP3    H265724   1.110   6.093  11.155 -0.5695 -0.3274  1.1444
14745TIP3   OH265725   2.206   6.741  15.350  0.2709  0.1125 -1.0455
14745TIP3    H165726   2.131   6.795  15.374  0.2749  0.9468 -2.7289
14745TIP3    H265727   2.279   6.780  15.398  0.3046  1.7715 -2.3664
14746TIP3   OH265728   1.621   1.704  16.329  0.5719 -0.0669  0.3920
14746TIP3    H165729   1.563   1.780  16.330 -0.2595 -0.6854  0.7037
14746TIP3    H265730   1.688   1.725  16.264 -0.5260  0.2987 -0.6593
14747TIP3   OH265731   4.228   2.565   4.501  0.4763  0.2123  0.0269
14747TIP3    H165732   4.198   2.475   4.511 -0.7510  0.3558 -1.8987
14747TIP3    H265733   4.218   2.604   4.588 -0.3212 -1.1180  0.5490
14748TIP3   OH265734   4.287   3.929  12.737  0.2561 -0.3272 -0.4256
14748TIP3    H165735   4.219   3.892  12.681 -0.7120  1.4779 -0.5152
14748TIP3    H265736   4.311   3.858  12.796 -0.6876 -1.4214 -1.3172
14749TIP3   OH265737   3.591   2.179   5.515 -0.6356 -0.2807  0.0527
14749TIP3    H165738   3.631   2.211   5.596  0.8404 -4.0636  1.0370
14749TIP3    H265739   3.498   2.173   5.535 -0.4086 -0.2814  1.1802
14750TIP3   OH265740   5.522   5.350   1.331 -0.6717 -0.2913 -0.1926
14750TIP3    H165741   5.590   5.285   1.350  0.9392  1.4072  0.2656
14750TIP3    H265742   5.545   5.384   1.244 -2.5886 -1.5817 -1.2556
14751TIP3   OH265743   5.490   2.484   1.065 -0.1918  0.0463 -0.0879
14751TIP3    H165744   5.494   2.567   1.018  3.4178  0.6135  0.9185
14751TIP3    H265745   5.516   2.506   1.155 -1.5113 -1.8340  0.8205
14752TIP3   OH265746   3.892   5.906  15.872 -0.5021 -0.7822  0.2148
14752TIP3    H165747   3.897   5.896  15.777 -0.0359  0.8951  0.0296
14752TIP3    H265748   3.884   5.817  15.905 -0.4030 -1.4163 -1.3812
14753TIP3   OH265749   2.737   2.732  14.333 -0.6717 -0.1457 -0.0995
14753TIP3    H165750   2.693   2.651  14.356  0.2949  0.3644  4.4737
14753TIP3    H265751   2.809   2.739  14.396 -0.4310  4.0051 -0.5552
14754TIP3   OH265752   2.894   2.323  13.016 -0.2797 -0.0511  0.4646
14754TIP3    H165753   2.888   2.235  13.053 -2.4876 -0.5764 -0.9585
14754TIP3    H265754   2.928   2.309  12.927 -2.7607  0.1989 -0.5943
14755TIP3   OH265755   6.383   2.135   0.327 -0.2926 -0.1984  0.2757
14755TIP3    H165756   6.428   2.051   0.313  0.8277  0.3860  0.2603
14755TIP3    H265757   6.291   2.111   0.340  0.0583 -1.4533  0.5913
14756TIP3   OH265758   2.360   2.268   4.615  0.1108  0.6928 -0.3561
14756TIP3    H165759   2.389   2.342   4.670 -0.9087  1.0854 -0.3175
14756TIP3    H265760   2.400   2.285   4.530  1.6399  0.1272  0.2175
14757TIP3   OH265761   4.156   0.699   5.951 -0.8195 -0.6415 -0.0157
14757TIP3    H165762   4.203   0.621   5.921 -0.5947 -0.0285 -1.2980
14757TIP3    H265763   4.160   0.693   6.047 -0.0686 -1.7538 -0.0906
14758TIP3   OH265764   2.606   6.558  15.459 -0.3016  0.0354 -0.0873
14758TIP3    H165765   2.569   6.607  15.386  0.9360  1.6809  0.3202
14758TIP3    H265766   2.697   6.589  15.465  0.3719 -1.9121  0.5847
14759TIP3   OH265767   2.696   2.987  15.845 -0.1633  0.3092 -0.2003
14759TIP3    H165768   2.650   3.007  15.927  0.0887 -1.9160  0.5448
14759TIP3    H265769   2.785   2.965  15.872 -1.1609 -5.1456 -0.2891
14760TIP3   OH265770   5.403   4.431  14.443  0.2874  0.0211  0.0504
14760TIP3    H165771   5.362   4.418  14.528  3.6803  1.4224  2.0788
14760TIP3    H265772   5.334   4.412  14.380 -2.4356 -0.9026  3.0727
14761TIP3   OH265773   3.581   5.653   5.693  0.5835  0.0375 -0.4457
14761TIP3    H165774   3.561   5.561   5.678 -1.7285  0.0955  1.7043
14761TIP3    H265775   3.546   5.672   5.780  0.2013  3.1706 -1.1493
14762TIP3   OH265776   4.461   3.439  11.853  0.0710  0.3288 -0.4401
14762TIP3    H165777   4.370   3.416  11.872  0.0401  0.4400 -0.4519
14762TIP3    H265778   4.474   3.523  11.897  0.4041 -0.0592  0.2209
14763TIP3   OH265779   5.783   3.236  15.647 -0.1051 -0.3101 -0.1528
14763TIP3    H165780   5.857   3.270  15.597 -0.0856  0.3693  0.3225
14763TIP3    H265781   5.759   3.308  15.706  0.1425 -1.2354  1.1199
14764TIP3   OH265782   4.950   6.761   5.119 -0.2363  0.3577 -0.4329
14764TIP3    H165783   4.985   6.752   5.030  1.3854 -1.6762  0.3328
14764TIP3    H265784   5.019   6.805   5.168 -0.5559  0.2424  0.1319
14765TIP3   OH265785   2.412   5.259   4.814 -0.4826 -0.3201  0.6888
14765TIP3    H165786   2.406   5.288   4.905 -0.4090  0.4101  0.4609
14765TIP3    H265787   2.327   5.279   4.776 -0.2186  0.1878  0.3599
14766TIP3   OH265788   3.424   4.313   5.708  0.8290 -0.1625 -0.2259
14766TIP3    H165789   3.441   4.351   5.622 -0.1057  1.0117  0.0839
14766TIP3    H265790   3.506   4.268   5.731  0.8904 -1.0301 -1.9746
14767TIP3   OH265791   0.703   5.705  12.537  0.6206  0.4644 -0.3711
14767TIP3    H165792   0.608   5.710  12.546  0.6704  0.3807  0.2363
14767TIP3    H265793   0.737   5.745  12.616  1.1063  1.1789 -0.9305
14768TIP3   OH265794   1.188   0.783   3.475 -0.0111  0.2885  0.0402
14768TIP3    H165795   1.155   0.836   3.548 -1.4718  1.5137 -1.4184
14768TIP3    H265796   1.112   0.734   3.445  0.5775 -0.2135 -0.6472
14769TIP3   OH265797   3.927   5.360   5.621  0.1922  0.8400 -0.2018
14769TIP3    H165798   3.926   5.436   5.563 -1.0854 -0.2002 -1.6137
14769TIP3    H265799   3.946   5.286   5.564  2.0053  0.1022  1.2355
14770TIP3   OH265800   2.902   0.802  15.139 -0.4730 -0.2043  0.2659
14770TIP3    H165801   2.923   0.727  15.194  0.3578 -0.3454 -0.2165
14770TIP3    H265802   2.872   0.870  15.199  1.8137  0.1671  1.1112
14771TIP3   OH265803   0.320   0.281  15.740  0.1775 -0.1232 -0.1067
14771TIP3    H165804   0.247   0.227  15.709  0.2240  0.0543 -0.5362
14771TIP3    H265805   0.319   0.271  15.835 -0.2297 -0.3484 -0.1332
14772TIP3   OH265806   4.298   1.487   0.452  0.2978  0.8991 -0.1053
14772TIP3    H165807   4.377   1.522   0.494  0.6268  0.2592 -0.1677
14772TIP3    H265808   4.228   1.545   0.479  0.2845 -0.1390  2.2645
14773TIP3   OH265809   3.107   5.879  11.485 -0.2420 -0.6160  0.1686
14773TIP3    H165810   3.128   5.800  11.436  0.7976 -0.7473  0.8113
14773TIP3    H265811   3.178   5.940  11.466 -0.2766 -0.3580  0.8298
14774TIP3   OH265812   3.521   5.945  11.535 -0.5887  0.0681  0.0359
14774TIP3    H165813   3.512   5.850  11.532  0.6121 -0.1088  0.9739
14774TIP3    H265814   3.609   5.961  11.502 -1.2811  0.9881 -1.4365
14775TIP3   OH265815   3.022   0.304  16.535  0.2599  0.1176 -0.0979
14775TIP3    H165816   2.956   0.372  16.527 -0.1922 -0.4117 -1.0506
14775TIP3    H265817   3.036   0.273  16.445  1.7851  0.1993  0.0756
14776TIP3   OH265818   4.207   1.335  14.492 -0.1555 -0.6654 -0.7018
14776TIP3    H165819   4.283   1.278  14.478  2.1205  1.3884  2.1050
14776TIP3    H265820   4.234   1.420  14.457 -0.3598  0.5538  1.9001
14777TIP3   OH265821   3.597   6.714  11.770  0.5131 -0.2954 -0.1640
14777TIP3    H165822   3.618   6.641  11.828  1.0305  0.1010  0.1614
14777TIP3    H265823   3.506   6.700  11.745  0.2165 -0.3664  0.9149
14778TIP3   OH265824   4.421   4.337   1.852  0.3541  0.0141  0.1761
14778TIP3    H165825   4.355   4.339   1.782  1.5086  1.2782 -0.9353
14778TIP3    H265826   4.469   4.419   1.842  2.3762 -1.0380  0.6648
14779TIP3   OH265827   3.769   2.315  13.210  0.1049 -0.0384 -0.9053
14779TIP3    H165828   3.715   2.257  13.156 -0.3191  0.3901 -0.9489
14779TIP3    H265829   3.756   2.402  13.172  0.2898  0.1718 -0.4939
14780TIP3   OH265830   2.757   1.117   3.583 -0.4619  0.1712 -0.2000
14780TIP3    H165831   2.717   1.075   3.507 -1.3805  1.8451 -0.6936
14780TIP3    H265832   2.690   1.178   3.614  1.3452  2.4655 -0.5229
14781TIP3   OH265833   3.523   2.922  16.926  0.2841  0.7004  0.3192
14781TIP3    H165834   3.614   2.904  16.906  0.2177 -0.1802  0.7296
14781TIP3    H265835   3.474   2.877  16.857  0.1487  0.4672  0.5625
14782TIP3   OH265836   3.252   3.213  13.546  0.1335  0.3679  0.6810
14782TIP3    H165837   3.188   3.145  13.566 -0.9005  0.8265 -0.8784
14782TIP3    H265838   3.334   3.180  13.583 -0.7482 -0.7805  1.7006
14783TIP3   OH265839   6.461   1.859   4.187  0.2867  0.1718 -0.2238
14783TIP3    H165840   6.396   1.871   4.118 -0.3674 -1.3055  0.0869
14783TIP3    H265841   6.412   1.872   4.268  0.4890 -0.4313  0.0009
14784TIP3   OH265842   5.085   6.284  11.058 -0.6895  0.6285  0.2873
14784TIP3    H165843   5.033   6.319  10.985 -1.1929 -0.2960  0.1943
14784TIP3    H265844   5.147   6.224  11.017 -0.4937  0.6509  0.5468
14785TIP3   OH265845   5.147   3.233   2.796 -0.5651 -0.2285  0.4905
14785TIP3    H165846   5.212   3.264   2.859 -0.3377  0.1122  0.0969
14785TIP3    H265847   5.093   3.171   2.845 -0.1650 -0.2420  0.9170
14786TIP3   OH265848   6.684   1.222  11.822 -0.4567  0.0896  0.5093
14786TIP3    H165849   6.663   1.292  11.882 -0.0729 -0.5844  1.4524
14786TIP3    H265850   6.764   1.251  11.778 -0.2339  0.1918  0.9809
14787TIP3   OH265851   0.451   0.781  13.951  0.0457 -0.2008  0.5279
14787TIP3    H165852   0.541   0.763  13.979  0.5261 -0.7569 -1.2505
14787TIP3    H265853   0.455   0.869  13.914  0.1748 -0.7317 -0.7552
14788TIP3   OH265854   5.497   6.697   0.411 -0.2401 -0.2794 -0.0285
14788TIP3    H165855   5.445   6.774   0.387 -0.3021 -0.5970 -0.9193
14788TIP3    H265856   5.511   6.650   0.329  2.3189  0.2971 -0.0014
14789TIP3   OH265857   2.153   2.086  15.879  0.3321  0.4664  0.2946
14789TIP3    H165858   2.202   2.135  15.814 -0.5421  0.3824 -0.4620
14789TIP3    H265859   2.088   2.148  15.912 -0.4094  0.0061 -0.2570
14790TIP3   OH265860   6.151   1.710   3.279  0.3251 -0.7937 -0.0929
14790TIP3    H165861   6.185   1.724   3.191 -1.8505 -1.6911 -1.1681
14790TIP3    H265862   6.228   1.703   3.335  1.8378 -2.0785 -2.2354
14791TIP3   OH265863   4.456   6.548  14.402  0.2634 -0.4805  0.4483
14791TIP3    H165864   4.479   6.471  14.348 -1.5829 -0.7007 -0.0877
14791TIP3    H265865   4.462   6.622  14.341 -1.7407 -0.7191 -0.1167
14792TIP3   OH265866   5.542   0.795   5.672  0.3720 -0.0302  0.3372
14792TIP3    H165867   5.562   0.710   5.632 -0.2242  1.2830 -3.0344
14792TIP3    H265868   5.622   0.847   5.658 -0.5612  1.0839 -1.0679
14793TIP3   OH265869   0.001   1.492   4.612  0.3693  0.2905  0.3903
14793TIP3    H165870   0.051   1.518   4.689  1.8785  4.2038 -1.6487
14793TIP3    H265871   0.062   1.501   4.539 -1.4286 -1.7670 -1.5311
14794TIP3   OH265872   0.651   1.688   0.175 -0.2921 -0.2048 -0.5808
14794TIP3    H165873   0.696   1.647   0.101 -0.3589  1.2394 -1.4484
14794TIP3    H265874   0.712   1.680   0.248  0.6330  0.1494 -1.2962
14795TIP3   OH265875   3.800   0.486  16.326 -0.0873 -0.8191  0.5719
14795TIP3    H165876   3.797   0.558  16.263  2.0314 -0.8106  0.4143
14795TIP3    H265877   3.724   0.500  16.382  0.1726  1.4667  0.4476
14796TIP3   OH265878   2.204   5.380   5.815 -0.3837 -0.0843  0.0519
14796TIP3    H165879   2.132   5.363   5.754  0.9320  2.0747 -2.3160
14796TIP3    H265880   2.188   5.469   5.846 -0.1574 -0.5762  1.6521
14797TIP3   OH265881   4.191   4.769  11.893  0.0850 -0.3443  0.5519
14797TIP3    H165882   4.102   4.734  11.887  0.1565 -0.4761  0.2246
14797TIP3    H265883   4.182   4.862  11.870  0.2419 -0.6783 -0.9193
14798TIP3   OH265884   4.988   5.726   4.009 -0.1495  0.0862  0.0271
14798TIP3    H165885   4.919   5.778   4.051  0.4822  0.9600  0.0006
14798TIP3    H265886   5.054   5.790   3.983  0.9860 -0.8157  0.6328
14799TIP3   OH265887   2.031   4.226   2.329 -0.2809  0.4065 -0.0612
14799TIP3    H165888   2.093   4.165   2.369 -1.0203  0.1105  0.6545
14799TIP3    H265889   2.086   4.288   2.281  0.6164  0.5454  1.1009
14800TIP3   OH265890   1.817   1.316   3.353 -0.5150  0.0154 -0.2776
14800TIP3    H165891   1.775   1.394   3.392  0.5788  0.3820  0.2080
14800TIP3    H265892   1.744   1.256   3.336 -1.5233  1.5287 -1.6179
14801TIP3   OH265893   3.080   5.055   3.284  0.1896  0.4111  0.4055
14801TIP3    H165894   3.099   5.125   3.346 -0.7160  0.5775  0.4988
14801TIP3    H265895   3.166   5.029   3.250  0.5611  1.2900  0.6604
14802TIP3   OH265896   6.814   6.643   4.129 -0.6963  0.2142 -0.1436
14802TIP3    H165897   6.826   6.602   4.043  0.2370 -1.1504  0.5908
14802TIP3    H265898   6.721   6.628   4.150 -0.2716 -2.1045  0.3316
14803TIP3   OH265899   4.249   5.909   5.098  0.2471 -0.5051  0.2612
14803TIP3    H165900   4.169   5.858   5.115  0.7652 -1.4477 -0.0523
14803TIP3    H265901   4.320   5.849   5.118  0.9111  0.5902  1.3330
14804TIP3   OH265902   2.767   3.580  14.475 -0.5039 -0.5462  0.4903
14804TIP3    H165903   2.706   3.586  14.548  1.5225  1.8861  2.1488
14804TIP3    H265904   2.750   3.658  14.422 -0.2607 -0.9886 -0.2600
14805TIP3   OH265905   2.775   3.046  13.399  0.1543 -0.3155  0.1760
14805TIP3    H165906   2.767   2.966  13.451  0.5197 -0.4451  0.0375
14805TIP3    H265907   2.718   3.109  13.443 -2.3217 -1.4102 -1.2138
14806TIP3   OH265908   4.418   1.196   4.865  0.2942  0.0443  0.0732
14806TIP3    H165909   4.493   1.210   4.808  1.6225  1.7514  2.1006
14806TIP3    H265910   4.383   1.111   4.838  1.2387  0.4277 -2.7437
14807TIP3   OH265911   2.270   4.825   0.223 -0.4550  0.5120 -0.6272
14807TIP3    H165912   2.274   4.749   0.281 -0.7392 -0.2700 -1.5965
14807TIP3    H265913   2.205   4.801   0.157  0.2392  1.1603 -1.5674
14808TIP3   OH265914   1.346   5.490  14.873  0.3265  0.3554  0.6009
14808TIP3    H165915   1.307   5.421  14.927 -0.8467  1.2374  0.9347
14808TIP3    H265916   1.298   5.487  14.791  1.2233 -0.1296  0.0874
14809TIP3   OH265917   5.841   6.464  11.323 -0.2254  0.6484  0.1250
14809TIP3    H165918   5.796   6.385  11.351 -0.7227  0.9828  0.2831
14809TIP3    H265919   5.773   6.531  11.321  0.6486  1.7363  2.7350
14810TIP3   OH265920   6.237   2.207  11.647  0.9519 -0.5164 -0.5254
14810TIP3    H165921   6.152   2.186  11.607  1.0520  0.5313 -1.3202
14810TIP3    H265922   6.271   2.122  11.676 -0.4926 -0.9266  0.0902
14811TIP3   OH265923   1.385   6.074  12.107 -0.4098 -0.0235 -0.3072
14811TIP3    H165924   1.303   6.100  12.065 -0.6770 -0.3856 -0.0093
14811TIP3    H265925   1.420   6.156  12.143 -0.4859  0.1835 -0.6957
14812TIP3   OH265926   5.364   2.408   4.944 -0.9182 -0.0699  0.3871
14812TIP3    H165927   5.400   2.376   5.027  0.8809 -0.0391 -0.3340
14812TIP3    H265928   5.291   2.463   4.969 -2.0896 -2.1350  1.8207
14813TIP3   OH265929   6.643   6.197   0.040 -0.3360  0.4020  0.8273
14813TIP3    H165930   6.631   6.191   0.135 -0.2546  0.6000  0.8506
14813TIP3    H265931   6.583   6.132   0.004  1.4466 -1.5167  1.1194
14814TIP3   OH265932   4.008   5.717   5.740  0.2497 -0.2214 -0.2478
14814TIP3    H165933   3.928   5.764   5.761  0.1062  1.5998 -4.0118
14814TIP3    H265934   4.077   5.767   5.784 -0.3885  0.0864  0.4233
14815TIP3   OH265935   6.545   5.189  11.497  0.6219  0.1830 -0.5257
14815TIP3    H165936   6.613   5.217  11.558 -0.8833  1.7328  0.5206
14815TIP3    H265937   6.525   5.099  11.522  1.2526  0.2097  0.0924
14816TIP3   OH265938   1.907   0.820  15.200 -0.1357 -0.0748 -0.1749
14816TIP3    H165939   1.993   0.857  15.219  0.0919 -0.0557 -1.2322
14816TIP3    H265940   1.925   0.735  15.161 -0.6124 -0.2157 -0.0946
14817TIP3   OH265941   1.411   1.231  14.406  0.1508 -0.3960  0.2508
14817TIP3    H165942   1.457   1.280  14.474 -0.4095 -0.1052  0.4297
14817TIP3    H265943   1.443   1.141  14.414  0.9888 -0.1210  0.0962
14818TIP3   OH265944   2.090   3.945   5.877  1.0453  0.1973 -0.5322
14818TIP3    H165945   2.064   3.900   5.958  0.1956  0.8016 -0.4639
14818TIP3    H265946   2.177   3.981   5.897 -0.0298  2.2044  0.9015
14819TIP3   OH265947   0.530   2.543  12.813  0.5411  0.2364 -0.5272
14819TIP3    H165948   0.613   2.497  12.825  0.7534 -0.1857 -2.9913
14819TIP3    H265949   0.471   2.477  12.777 -0.3888  0.9159 -0.2746
14820TIP3   OH265950   2.680   2.730   3.108 -0.2055 -0.6952  0.4153
14820TIP3    H165951   2.625   2.772   3.041 -1.8263  1.3427  2.8591
14820TIP3    H265952   2.668   2.783   3.186  3.4434 -1.6146  1.7899
14821TIP3   OH265953   2.865   5.211   6.783  0.4940  0.0765  0.6048
14821TIP3    H165954   2.831   5.239   6.698  0.4603 -0.4436  0.4496
14821TIP3    H265955   2.956   5.187   6.766  0.7450  0.7815  0.8847
14822TIP3   OH265956   0.295   1.096  12.654  0.2576  0.5902 -0.1416
14822TIP3    H165957   0.344   1.128  12.579  0.4493  1.8029  0.4807
14822TIP3    H265958   0.205   1.093  12.625  0.4264  0.3533 -0.6450
14823TIP3   OH265959   5.007   6.264  14.213 -0.0576  0.7026 -0.3041
14823TIP3    H165960   5.082   6.322  14.226  0.9310 -0.6989  0.4773
14823TIP3    H265961   4.989   6.229  14.300 -2.2910  1.7518 -0.2758
14824TIP3   OH265962   4.644   3.423   5.351  0.5619  0.0420  0.6231
14824TIP3    H165963   4.565   3.370   5.356  1.0978 -0.8949 -0.3138
14824TIP3    H265964   4.700   3.377   5.287 -0.2270  3.3895 -2.8930
14825TIP3   OH265965   5.307   3.578  16.346  0.2376  0.2714 -0.3474
14825TIP3    H165966   5.280   3.504  16.400  0.4471  0.6487  0.2890
14825TIP3    H265967   5.254   3.652  16.378 -1.9442 -0.1266 -2.7659
14826TIP3   OH265968   4.750   1.057  15.349  0.4851 -0.0542 -0.2405
14826TIP3    H165969   4.764   0.963  15.337 -0.4550 -0.3992  1.1720
14826TIP3    H265970   4.785   1.075  15.436  2.0394  1.2345 -1.0832
14827TIP3   OH265971   6.228   5.625   2.182  0.6581 -0.5234 -0.4155
14827TIP3    H165972   6.236   5.548   2.126  2.4819 -1.5387  1.1162
14827TIP3    H265973   6.316   5.662   2.184 -0.0250  1.1910 -0.5049
14828TIP3   OH265974   6.567   5.729   0.169 -0.4349  0.5284 -0.4272
14828TIP3    H165975   6.474   5.726   0.149 -0.2698  0.7808 -1.2659
14828TIP3    H265976   6.599   5.641   0.147 -0.8322 -0.2554  1.8260
14829TIP3   OH265977   0.123   0.819   1.450 -0.3052  0.1846  0.2596
14829TIP3    H165978   0.200   0.764   1.467  0.5004  0.7984 -1.2284
14829TIP3    H265979   0.052   0.756   1.434  0.2832 -0.4179 -0.0377
14830TIP3   OH265980   5.922   0.377  16.684  0.1813 -0.0615 -0.3444
14830TIP3    H165981   5.929   0.399  16.591  0.7386 -2.7952 -1.0361
14830TIP3    H265982   5.968   0.448  16.729  1.6320  0.3439 -2.3263
14831TIP3   OH265983   2.696   0.720   4.609  0.3922 -0.0534  0.0552
14831TIP3    H165984   2.756   0.765   4.550 -0.0901  1.4111  0.6174
14831TIP3    H265985   2.729   0.741   4.697 -1.0992  1.1067  0.3880
14832TIP3   OH265986   0.832   3.445   5.270  0.3538 -0.1265  0.2586
14832TIP3    H165987   0.743   3.481   5.277 -0.0006 -0.9218  0.0361
14832TIP3    H265988   0.886   3.519   5.245  0.0110  0.6923  1.8117
14833TIP3   OH265989   4.157   4.226   5.333 -0.1766  0.3511  0.0366
14833TIP3    H165990   4.206   4.303   5.360 -0.3117  0.5793 -0.3591
14833TIP3    H265991   4.131   4.244   5.243 -2.6724  1.0923  0.8331
14834TIP3   OH265992   0.651   6.149  13.588  0.0362 -0.0594 -0.3564
14834TIP3    H165993   0.564   6.126  13.555 -0.1834 -0.7745  0.7002
14834TIP3    H265994   0.658   6.244  13.573 -1.7292  0.3961  1.3700
14835TIP3   OH265995   0.005   1.409  15.146  0.2118 -0.6751 -0.4144
14835TIP3    H165996   0.028   1.484  15.091 -0.4117 -0.1007  0.0895
14835TIP3    H265997  -0.055   1.445  15.212  2.5475 -0.8796  1.9778
14836TIP3   OH265998   6.807   5.631   4.522 -0.1880  0.3806  0.0914
14836TIP3    H165999   6.886   5.642   4.575 -0.2127 -2.5360  0.9068
14836TIP3    H266000   6.744   5.589   4.581 -2.3795  2.5066 -0.5691
14837TIP3   OH266001   1.354   1.676   4.017 -0.1229  0.1665  0.1218
14837TIP3    H166002   1.377   1.584   4.026  0.6753  0.1216 -1.9117
14837TIP3    H266003   1.399   1.719   4.089 -1.6683 -1.1644  1.9924
14838TIP3   OH266004   6.374   1.126  13.412  0.1290  0.3890 -0.2915
14838TIP3    H166005   6.362   1.221  13.409 -0.6025  0.4074  1.8917
14838TIP3    H266006   6.423   1.106  13.331  0.2330  2.5809 -0.8439
14839TIP3   OH266007   1.768   4.650   4.019 -0.0674 -0.4751  0.0761
14839TIP3    H166008   1.676   4.675   4.031  0.1709  0.2657  0.4522
14839TIP3    H266009   1.802   4.645   4.108  0.8945  1.7861 -0.0951
14840TIP3   OH266010   4.755   5.387  11.947  0.5320 -0.4958 -0.6220
14840TIP3    H166011   4.675   5.424  11.985  1.9320 -0.5160  2.6903
14840TIP3    H266012   4.786   5.454  11.886  0.0926  1.3679  1.0901
14841TIP3   OH266013   3.882   4.334   3.123  0.1367 -0.1930 -0.3861
14841TIP3    H166014   3.811   4.387   3.086 -1.7817 -2.1978  0.2247
14841TIP3    H266015   3.961   4.368   3.082 -1.3468  1.0306 -2.4125
14842TIP3   OH266016   4.672   2.366  13.223 -0.1615  0.6388  0.0671
14842TIP3    H166017   4.643   2.299  13.161 -0.0309  0.6833 -0.0437
14842TIP3    H266018   4.672   2.447  13.172  1.4314  0.4364 -0.3240
14843TIP3   OH266019   0.334   6.709   1.680 -0.2266 -0.6770  0.0097
14843TIP3    H166020   0.332   6.615   1.664 -0.3523 -0.9753  1.6473
14843TIP3    H266021   0.336   6.717   1.775 -2.3508  1.0096 -0.0152
14844TIP3   OH266022   3.163   4.294   0.335 -0.2471  0.3192  0.0464
14844TIP3    H166023   3.242   4.311   0.283  0.3923  1.6696  1.3783
14844TIP3    H266024   3.173   4.204   0.366  0.2450  0.1200 -0.6520
14845TIP3   OH266025   5.115   6.825   2.982 -0.1540 -0.2647  0.0334
14845TIP3    H166026   5.119   6.745   2.931  0.4352 -0.4869  0.4192
14845TIP3    H266027   5.194   6.873   2.958  0.4872 -0.6875  1.2395
14846TIP3   OH266028   2.850   2.715  12.643 -0.4114 -0.1701 -0.8260
14846TIP3    H166029   2.925   2.683  12.693 -0.5289 -0.9747 -1.1510
14846TIP3    H266030   2.799   2.767  12.705 -0.2722 -0.7026 -0.2653
14847TIP3   OH266031   3.060   1.218  16.240 -0.2126 -0.4108  0.1393
14847TIP3    H166032   3.104   1.238  16.323 -0.8732  1.9225 -0.0064
14847TIP3    H266033   2.996   1.151  16.262 -0.3794  0.1790  1.5295
14848TIP3   OH266034   0.077   2.550   1.339 -0.3695 -0.0207  0.1194
14848TIP3    H166035   0.131   2.622   1.374  0.1164 -0.4115  0.1878
14848TIP3    H266036   0.141   2.481   1.318 -0.5691  0.3481 -1.9458
14849TIP3   OH266037   2.819   2.153  15.376 -0.2268  0.0950  0.5704
14849TIP3    H166038   2.787   2.168  15.287 -2.6253 -2.8891  0.7539
14849TIP3    H266039   2.911   2.179  15.374  0.1837 -1.1454 -3.1831
14850TIP3   OH266040   5.969   5.071  12.906  0.0969 -0.3000  0.0850
14850TIP3    H166041   5.953   5.040  12.996 -1.4555  1.3010  0.4239
14850TIP3    H266042   6.038   5.136  12.915 -0.0188 -0.1809  0.1139
14851TIP3   OH266043   0.435   0.488  16.202 -0.8675  0.0501 -0.1138
14851TIP3    H166044   0.469   0.405  16.238 -0.8415  0.3874  0.6629
14851TIP3    H266045   0.396   0.531  16.278 -1.0927  0.6419 -0.5717
14852TIP3   OH266046   1.434   5.754   6.586 -0.1789  0.0267 -0.5085
14852TIP3    H166047   1.453   5.699   6.661  0.6351  1.1203  0.1090
14852TIP3    H266048   1.400   5.835   6.623  0.4992  0.6884 -1.2836
14853TIP3   OH266049   5.466   2.227   5.126  0.6028 -0.4318 -0.0588
14853TIP3    H166050   5.498   2.136   5.122  0.6663 -0.3726 -2.2685
14853TIP3    H266051   5.431   2.236   5.215 -0.1207 -2.8756 -0.0120
14854TIP3   OH266052   4.550   6.721  17.087 -0.2613  0.3387 -0.2187
14854TIP3    H166053   4.557   6.625  17.086  2.7327  0.4699 -1.7931
14854TIP3    H266054   4.638   6.752  17.066 -1.1329  3.4787  0.2490
14855TIP3   OH266055   3.734   3.428   4.181 -0.2984  0.5207  0.3723
14855TIP3    H166056   3.705   3.510   4.220 -0.6595  0.3949  0.3771
14855TIP3    H266057   3.654   3.376   4.174 -0.3323  0.7454 -1.0499
14856TIP3   OH266058   1.874   0.776   3.660  0.7685  0.0264  0.4907
14856TIP3    H166059   1.894   0.869   3.654  0.8314 -0.0750 -1.4557
14856TIP3    H266060   1.932   0.735   3.596 -0.2953 -1.1786  0.2702
14857TIP3   OH266061   5.348   3.239   4.929  0.5474  0.0645 -0.1961
14857TIP3    H166062   5.395   3.178   4.872  0.2466  1.1364 -1.6395
14857TIP3    H266063   5.262   3.248   4.888 -0.5581 -0.9624  1.7621
14858TIP3   OH266064   2.648   6.441   3.335 -0.2506  0.2530  0.1657
14858TIP3    H166065   2.602   6.385   3.397 -1.9206  0.8111 -0.5158
14858TIP3    H266066   2.741   6.417   3.345 -0.7783 -1.7039  0.7815
14859TIP3   OH266067   4.388   2.873  17.092  0.5220 -0.2146  0.2240
14859TIP3    H166068   4.325   2.941  17.117  1.5398  2.0433 -2.8788
14859TIP3    H266069   4.472   2.918  17.087  1.5250 -2.0680 -0.5089
14860TIP3   OH266070   4.305   6.738   4.608 -0.1902 -0.3330 -0.0540
14860TIP3    H166071   4.335   6.666   4.552 -1.8533 -0.2902 -1.0772
14860TIP3    H266072   4.377   6.801   4.607  0.5410 -1.1562 -0.6564
14861TIP3   OH266073   1.160   5.735  14.780 -0.4305 -0.4115 -0.3770
14861TIP3    H166074   1.142   5.829  14.776 -1.9789 -0.7149 -3.5323
14861TIP3    H266075   1.184   5.711  14.690 -0.2661 -3.0790  0.2963
14862TIP3   OH266076   2.188   6.573   6.375 -0.2869  0.5279  0.4009
14862TIP3    H166077   2.200   6.666   6.359 -0.5815  0.4749 -0.1422
14862TIP3    H266078   2.235   6.530   6.303  0.4687  0.2384  1.0476
14863TIP3   OH266079   6.635   0.210   6.066  0.1903 -0.0233  0.6408
14863TIP3    H166080   6.593   0.192   6.150  1.5130 -0.1015  1.3011
14863TIP3    H266081   6.670   0.299   6.074 -2.9021  1.5352 -1.2145
14864TIP3   OH266082   6.578   5.150  14.887 -0.3334  0.1689  0.0356
14864TIP3    H166083   6.515   5.217  14.912  0.0330  0.1475  1.0345
14864TIP3    H266084   6.658   5.199  14.865 -0.2302  0.0967  0.2487
14865TIP3   OH266085   5.911   4.366   2.015 -0.3018  0.0412 -0.0009
14865TIP3    H166086   5.986   4.426   2.017 -1.0153  0.9367  0.5332
14865TIP3    H266087   5.871   4.382   1.929 -1.5486  1.6939  0.8446
14866TIP3   OH266088   5.998   0.091   3.482 -0.2943 -0.5963  0.2753
14866TIP3    H166089   5.932   0.040   3.434 -0.0481 -1.9615  1.3364
14866TIP3    H266090   6.081   0.048   3.462  0.0814  0.1302  0.2425
14867TIP3   OH266091   0.351   3.459  16.729 -0.9250  0.5554  0.4946
14867TIP3    H166092   0.430   3.506  16.755  0.4645 -0.7846 -1.1075
14867TIP3    H266093   0.360   3.445  16.635 -2.1272 -1.2970  0.5828
14868TIP3   OH266094   5.689   2.830  15.274 -0.4312  0.3915  0.5597
14868TIP3    H166095   5.701   2.749  15.225  0.6873 -1.4072  3.5429
14868TIP3    H266096   5.637   2.886  15.216  1.8182 -0.9954 -3.0941
14869TIP3   OH266097   5.887   5.091   6.171 -0.1473  0.7928  0.3702
14869TIP3    H166098   5.931   5.026   6.118 -0.5946 -0.9820  2.0395
14869TIP3    H266099   5.822   5.041   6.221 -1.1894  2.6791  1.0246
14870TIP3   OH266100   4.223   5.428   4.057  0.5651 -0.4430  0.2743
14870TIP3    H166101   4.248   5.521   4.058 -1.8202  0.2577  0.8874
14870TIP3    H266102   4.296   5.384   4.101  1.7585  1.1192 -0.0186
14871TIP3   OH266103   6.211   0.602  12.835 -0.2503 -0.1266  0.2843
14871TIP3    H166104   6.300   0.616  12.867  0.0575 -1.8318  0.2791
14871TIP3    H266105   6.159   0.592  12.915 -0.0414 -1.2043  0.3075
14872TIP3   OH266106   5.239   3.833   2.016  0.4236  0.8077  0.3244
14872TIP3    H166107   5.170   3.823   2.082  0.4993 -2.1352  0.0906
14872TIP3    H266108   5.271   3.744   2.001  3.8847  1.9650 -0.0305
14873TIP3   OH266109   1.871   0.045   5.345  0.5452  0.2030  0.1642
14873TIP3    H166110   1.945   0.001   5.387  1.1576 -0.4085 -1.4849
14873TIP3    H266111   1.794   0.007   5.387  1.1052 -1.2600 -0.0890
14874TIP3   OH266112   1.261   1.873   3.835  0.0466  0.0412  0.1593
14874TIP3    H166113   1.243   1.816   3.909  0.1501  1.0044  0.9405
14874TIP3    H266114   1.180   1.922   3.821  0.6178  1.2332  0.8810
14875TIP3   OH266115   0.929   4.046   4.533 -0.2695  1.0908 -0.3530
14875TIP3    H166116   0.902   4.072   4.620 -0.7557  2.5562 -0.9212
14875TIP3    H266117   0.920   4.125   4.479  1.2158  0.5587 -1.4627
14876TIP3   OH266118   1.772   6.788   0.119  0.0415  0.1050  0.1039
14876TIP3    H166119   1.730   6.764   0.202  1.0437 -1.3306  0.2255
14876TIP3    H266120   1.716   6.857   0.083 -0.6787  0.4221  1.7370
14877TIP3   OH266121   1.646   2.468  12.662 -0.3484  0.0408  0.0066
14877TIP3    H166122   1.725   2.416  12.679 -0.6616 -1.7638 -3.1081
14877TIP3    H266123   1.580   2.431  12.720  0.1558 -1.2214 -0.1737
14878TIP3   OH266124   6.750   2.016   4.961 -0.0320  0.0711  0.5905
14878TIP3    H166125   6.658   1.994   4.974  0.3653 -1.4306  1.0586
14878TIP3    H266126   6.761   2.101   5.004 -0.4959 -1.2116  3.5173
14879TIP3   OH266127   6.501   3.423  14.974  0.6864  0.5267  0.0544
14879TIP3    H166128   6.441   3.472  15.030 -0.7764 -1.4370  0.3104
14879TIP3    H266129   6.448   3.396  14.900  1.7277  0.1967 -0.5908
14880TIP3   OH266130   0.593   4.842   4.780 -0.1790 -0.5862 -0.3107
14880TIP3    H166131   0.661   4.796   4.731 -0.9545 -1.3371 -0.7108
14880TIP3    H266132   0.559   4.776   4.840 -2.1456 -0.9489 -1.7242
14881TIP3   OH266133   2.093   2.019   3.676 -0.0964  0.0329 -0.5752
14881TIP3    H166134   2.110   1.951   3.611 -0.4183  0.2596 -0.9010
14881TIP3    H266135   1.999   2.037   3.668  0.1270  1.0616 -1.0330
14882TIP3   OH266136   6.681   6.046  13.129  0.6008 -0.1127  0.2715
14882TIP3    H166137   6.661   6.104  13.203 -0.1615 -0.1905  0.1335
14882TIP3    H266138   6.765   6.078  13.096  0.5580  0.4338  0.6682
14883TIP3   OH266139   5.773   2.185  15.970 -0.0743 -0.3076 -0.4300
14883TIP3    H166140   5.821   2.219  15.894 -2.4488  0.2195 -1.7951
14883TIP3    H266141   5.834   2.196  16.043  1.8578  0.3133 -2.0209
14884TIP3   OH266142   2.541   0.827   1.357  0.4157 -0.1866  0.0252
14884TIP3    H166143   2.626   0.831   1.400  0.1497  0.2323  0.5274
14884TIP3    H266144   2.483   0.878   1.413  0.1306  0.6578 -0.9890
14885TIP3   OH266145   1.753   0.301  13.975 -0.1432 -0.0336 -0.7418
14885TIP3    H166146   1.797   0.374  14.020  0.2209 -0.9922  0.5407
14885TIP3    H266147   1.818   0.231  13.975 -1.2157 -1.0628  0.0283
14886TIP3   OH266148   0.648   5.052  14.285  0.2106  0.5542  0.2700
14886TIP3    H166149   0.563   5.011  14.297 -1.3991  3.5641  0.1890
14886TIP3    H266150   0.706   4.982  14.255 -1.5500 -2.1338  2.7350
14887TIP3   OH266151   0.967   3.869  14.413  0.0335  0.0477  0.4730
14887TIP3    H166152   0.939   3.846  14.325  0.0752 -2.2125  0.9893
14887TIP3    H266153   0.918   3.949  14.434 -1.1180 -0.2277 -1.0098
14888TIP3   OH266154   6.013   4.242  16.462  0.6232  0.3134 -0.2373
14888TIP3    H166155   5.983   4.327  16.430  1.9515  0.9898  0.2828
14888TIP3    H266156   6.088   4.221  16.408 -0.9295 -1.5787 -1.8123
14889TIP3   OH266157   6.392   6.804   5.284  0.4650  0.1191  0.1647
14889TIP3    H166158   6.487   6.813   5.280  0.4058  2.2031  2.0484
14889TIP3    H266159   6.366   6.848   5.365 -2.3191  1.7403 -1.4276
14890TIP3   OH266160   1.735   2.708  16.505 -0.2983 -0.4797 -0.1525
14890TIP3    H166161   1.729   2.757  16.423 -1.4721 -1.0231 -0.4127
14890TIP3    H266162   1.645   2.680  16.523  0.4741 -3.6268 -0.7091
14891TIP3   OH266163   6.197   3.782   1.253 -0.5738 -0.7932  0.0195
14891TIP3    H166164   6.203   3.746   1.165 -0.9697 -2.2534  0.5416
14891TIP3    H266165   6.153   3.866   1.243  0.3457 -0.4473 -1.2774
14892TIP3   OH266166   1.518   6.379   1.383  0.3100  0.4915 -0.3464
14892TIP3    H166167   1.499   6.288   1.361 -0.2032  0.5536 -0.1877
14892TIP3    H266168   1.554   6.416   1.302  0.8861  0.0520 -0.2952
14893TIP3   OH266169   4.403   5.741   0.402  0.2412 -0.5865 -0.6266
14893TIP3    H166170   4.366   5.656   0.426 -0.5974 -0.0613  0.0043
14893TIP3    H266171   4.467   5.759   0.470 -0.5612 -0.1016  0.0154
14894TIP3   OH266172   0.962   1.368   1.870  0.1090  0.3009 -0.4851
14894TIP3    H166173   0.980   1.359   1.964 -1.0283  0.7561 -0.2025
14894TIP3    H266174   0.987   1.283   1.833 -0.3512 -0.2404  0.3951
14895TIP3   OH266175   5.249   1.921  13.907  0.1397 -0.3204 -0.0671
14895TIP3    H166176   5.242   1.893  13.999  0.1293 -0.8965 -0.2420
14895TIP3    H266177   5.257   1.840  13.858  0.5808  0.0071 -0.5433
14896TIP3   OH266178   5.821   0.923   2.818  0.2333  0.1437 -0.0127
14896TIP3    H166179   5.793   0.856   2.879  0.7421 -0.8896 -0.8704
14896TIP3    H266180   5.833   1.002   2.871 -1.7458 -0.0509  0.7709
14897TIP3   OH266181   1.239   4.563  10.247 -0.3960  0.3981  0.9980
14897TIP3    H166182   1.261   4.470  10.257  0.2518  0.3218 -0.6909
14897TIP3    H266183   1.310   4.610  10.290 -0.3148  0.1129  1.1761
14898TIP3   OH266184   1.633   4.108   1.334  0.1788 -0.1010  0.4399
14898TIP3    H166185   1.648   4.046   1.405 -0.6513 -1.1549 -0.2810
14898TIP3    H266186   1.600   4.055   1.262  1.1150  0.9177 -0.7915
14899TIP3   OH266187   0.088   2.326  14.680 -0.3191 -0.0938 -0.1244
14899TIP3    H166188   0.069   2.233  14.672  1.3032 -0.4997  0.3850
14899TIP3    H266189   0.170   2.338  14.634  1.4066  0.3298  2.7844
14900TIP3   OH266190   4.698   6.088   1.702 -0.3239  0.6783 -0.3994
14900TIP3    H166191   4.783   6.127   1.724 -0.2967  0.1128  0.5965
14900TIP3    H266192   4.685   6.108   1.610  2.4814 -2.0979 -1.5983
14901TIP3   OH266193   2.377   1.934  13.360  0.3647 -0.2401 -0.3987
14901TIP3    H166194   2.470   1.956  13.355  0.7058 -0.9054  1.8972
14901TIP3    H266195   2.335   2.016  13.386  0.4253 -0.1474 -0.5901
14902TIP3   OH266196   3.041   1.339  15.332  0.1855 -0.3502 -0.1138
14902TIP3    H166197   2.974   1.350  15.399  0.1234  1.4513 -0.4401
14902TIP3    H266198   3.100   1.273  15.369  0.9079  1.5286  2.3763
14903TIP3   OH266199   5.645   3.285   2.932  0.2548  0.6460 -0.1784
14903TIP3    H166200   5.561   3.264   2.893  0.1849  1.2381 -0.3527
14903TIP3    H266201   5.654   3.223   3.005  0.9033 -1.2627 -1.7953
14904TIP3   OH266202   3.444   4.603   1.982  0.8519 -0.9500 -0.4988
14904TIP3    H166203   3.446   4.523   1.928  0.0009 -1.1462 -0.2697
14904TIP3    H266204   3.401   4.575   2.063 -0.2019 -0.0914 -0.7340
14905TIP3   OH266205   0.062   1.278   1.947 -0.1019 -0.2972  0.0912
14905TIP3    H166206  -0.016   1.228   1.970 -1.2703  1.7382  0.7766
14905TIP3    H266207   0.089   1.242   1.863 -1.7717 -1.0601 -0.1688
14906TIP3   OH266208   3.627   5.981   1.028  0.2746  0.3040 -0.6146
14906TIP3    H166209   3.695   6.047   1.041  0.4274  0.4110 -1.8460
14906TIP3    H266210   3.578   5.980   1.110  0.9888  1.1164 -0.1681
14907TIP3   OH266211   1.147   4.604   5.706 -0.2802 -0.4827  0.0008
14907TIP3    H166212   1.189   4.623   5.790  0.9424  0.2111 -0.7333
14907TIP3    H266213   1.120   4.513   5.712 -0.9960 -0.2024  1.4577
14908TIP3   OH266214   1.780   1.999  15.899  0.2768 -0.3053 -0.1302
14908TIP3    H166215   1.786   2.045  15.983 -1.4856  0.7026 -0.5168
14908TIP3    H266216   1.849   1.932  15.903  1.6015  1.0767  1.2579
14909TIP3   OH266217   4.510   6.392   0.976  0.1430 -0.1650  0.0427
14909TIP3    H166218   4.523   6.318   0.917 -0.0581  0.5111 -0.8589
14909TIP3    H266219   4.478   6.463   0.920 -2.5750 -0.2522  1.3593
14910TIP3   OH266220   3.141   6.290   5.156  0.2726  0.7861 -0.3845
14910TIP3    H166221   3.053   6.284   5.119 -0.6925  0.2830  1.8243
14910TIP3    H266222   3.188   6.215   5.119 -0.4319  0.6637 -1.0538
14911TIP3   OH266223   3.665   1.463  16.829  0.1720  0.2167  0.3167
14911TIP3    H166224   3.620   1.404  16.768 -1.6184  1.3311  0.4608
14911TIP3    H266225   3.685   1.409  16.905  0.8105 -0.7591 -0.5168
14912TIP3   OH266226   0.534   4.367  15.832  0.4296  0.1325 -0.1111
14912TIP3    H166227   0.479   4.332  15.903 -0.1667  2.2392  0.5538
14912TIP3    H266228   0.588   4.293  15.805  0.6060 -0.8141  2.4866
14913TIP3   OH266229   0.503   0.778  10.968 -0.1207  0.2793 -0.0617
14913TIP3    H166230   0.586   0.823  10.948 -0.8740  1.6712 -0.2056
14913TIP3    H266231   0.457   0.775  10.884 -0.6922  0.5496  0.2406
14914TIP3   OH266232   2.091   2.343   4.472 -0.1102 -0.8136 -0.2370
14914TIP3    H166233   2.132   2.390   4.399  1.0948 -0.3250  0.7113
14914TIP3    H266234   2.158   2.281   4.501 -0.0892 -0.1830  1.1825
14915TIP3   OH266235   0.858   5.860   1.466  0.2201  0.0945 -0.4265
14915TIP3    H166236   0.837   5.797   1.397  2.4919 -1.3419  0.0468
14915TIP3    H266237   0.900   5.806   1.534  0.8406  1.9191  0.6932
14916TIP3   OH266238   0.622   0.570   3.464 -0.5153 -0.5035 -0.3923
14916TIP3    H166239   0.616   0.482   3.502 -0.8546  0.0173  0.8289
14916TIP3    H266240   0.533   0.604   3.471 -0.0395  0.5554  0.7214
14917TIP3   OH266241   3.141   2.820   0.016  0.0643 -0.3305 -0.2698
14917TIP3    H166242   3.211   2.886   0.015  0.3685 -0.6419  0.3142
14917TIP3    H266243   3.142   2.785   0.105 -1.3771  0.2189 -0.0165
14918TIP3   OH266244   1.740   5.468   2.311 -0.0352 -0.0139  0.1610
14918TIP3    H166245   1.777   5.507   2.390  0.2411  0.3907 -0.1612
14918TIP3    H266246   1.785   5.385   2.301 -0.6564 -0.4442  0.8770
14919TIP3   OH266247   5.554   5.515   0.135 -0.0519  0.1141 -0.3992
14919TIP3    H166248   5.472   5.537   0.179  0.7077  1.8520  0.2005
14919TIP3    H266249   5.604   5.596   0.133  1.1285 -0.5892 -1.9448
14920TIP3   OH266250   0.590   4.512  10.209 -0.0754  0.1986 -0.1630
14920TIP3    H166251   0.496   4.526  10.198  0.0742  0.6123 -0.9938
14920TIP3    H266252   0.600   4.486  10.300 -1.1445 -1.1455 -0.4046
14921TIP3   OH266253   3.060   2.803  12.511 -0.4745  0.1827 -0.0557
14921TIP3    H166254   2.979   2.766  12.547 -1.1549  1.0480 -0.6772
14921TIP3    H266255   3.112   2.824  12.589 -1.2337  0.4835  0.3838
14922TIP3   OH266256   1.592   1.685   1.859  0.2831 -0.0298  0.3210
14922TIP3    H166257   1.520   1.654   1.914 -0.2437 -0.5063 -0.6204
14922TIP3    H266258   1.655   1.723   1.921 -0.7277  0.3074  1.1636
14923TIP3   OH266259   4.919   5.632  16.001  0.3393  0.2939 -0.1577
14923TIP3    H166260   4.896   5.556  16.055 -0.7819  1.4691  1.0992
14923TIP3    H266261   4.875   5.615  15.917 -1.0533  0.1587  0.5645
14924TIP3   OH266262   0.916   2.204  16.539  0.5209 -0.5571  0.1490
14924TIP3    H166263   0.891   2.125  16.491  0.7611 -0.0987 -0.7681
14924TIP3    H266264   0.949   2.172  16.623  2.3241 -1.5921 -0.8855
14925TIP3   OH266265   1.545   2.031   2.110  0.3214 -0.0091 -0.3277
14925TIP3    H166266   1.538   2.075   2.195 -0.6940  0.5832 -0.7008
14925TIP3    H266267   1.540   1.937   2.132 -0.3420  0.1503  0.2365
14926TIP3   OH266268   6.044   2.037  13.441 -0.2261 -0.0519 -0.1081
14926TIP3    H166269   5.999   1.959  13.409 -0.8440  1.1056 -2.2841
14926TIP3    H266270   5.974   2.097  13.465  0.2440 -0.0406  1.3211
14927TIP3   OH266271   1.135   2.360   3.191 -0.4982 -0.2883  0.1631
14927TIP3    H166272   1.230   2.363   3.190 -0.5339  1.1277 -0.4301
14927TIP3    H266273   1.114   2.268   3.176  0.7633 -0.3955 -1.1088
14928TIP3   OH266274   3.939   5.041  14.277 -0.3659  0.2807  0.3815
14928TIP3    H166275   4.004   5.010  14.339  0.2217 -0.7063 -0.7042
14928TIP3    H266276   3.968   5.008  14.192 -3.8195 -2.9106  0.1817
14929TIP3   OH266277   6.639   6.565   2.536  0.3844 -0.9402  0.3308
14929TIP3    H166278   6.625   6.659   2.547 -0.1246 -0.8722 -0.8286
14929TIP3    H266279   6.693   6.540   2.612  1.1663  0.4166  0.2474
14930TIP3   OH266280   3.527   5.903   5.524 -0.0219  0.1088 -0.9382
14930TIP3    H166281   3.538   5.826   5.581 -0.2369 -0.0710 -1.1349
14930TIP3    H266282   3.552   5.977   5.579 -0.2693 -0.0574 -0.5929
14931TIP3   OH266283   0.326   0.694   2.736  0.1871  0.4537 -0.9539
14931TIP3    H166284   0.416   0.710   2.766 -0.5045  0.6421  1.2470
14931TIP3    H266285   0.323   0.599   2.722  0.8011  0.4867 -1.3671
14932TIP3   OH266286   0.453   2.024  13.803  0.4516  0.1632  0.2378
14932TIP3    H166287   0.511   2.099  13.820  1.6581 -0.8674  0.9040
14932TIP3    H266288   0.431   1.991  13.890 -0.9136  0.3295 -0.0219
14933TIP3   OH266289   0.475   2.552   4.880 -0.1287  0.3732 -0.4828
14933TIP3    H166290   0.508   2.607   4.951 -1.1344  0.7009 -0.2441
14933TIP3    H266291   0.438   2.615   4.817 -2.1998 -0.0271  0.2578
14934TIP3   OH266292   4.565   1.204   5.478 -0.2909 -0.7104  0.0567
14934TIP3    H166293   4.581   1.297   5.468 -1.8431 -0.4678 -0.3966
14934TIP3    H266294   4.514   1.197   5.559  1.0334 -1.3490  0.8891
14935TIP3   OH266295   6.457   2.903  12.508  0.0669  0.1195 -0.1213
14935TIP3    H166296   6.462   2.988  12.465 -0.8421  0.2853  0.0702
14935TIP3    H266297   6.423   2.922  12.596 -1.4825 -0.5550 -0.5293
14936TIP3   OH266298   2.469   3.607   3.761  0.4066  0.0023  0.0800
14936TIP3    H166299   2.495   3.687   3.714 -0.4604 -1.1509 -2.5392
14936TIP3    H266300   2.548   3.553   3.759  0.1437 -0.3782 -0.8976
14937TIP3   OH266301   4.799   3.781   5.991 -0.1776 -0.0186  0.2144
14937TIP3    H166302   4.765   3.863   6.027 -0.5730  0.6358 -1.5391
14937TIP3    H266303   4.723   3.724   5.984 -0.1971  0.0439 -0.0748
14938TIP3   OH266304   0.439   6.348  16.642  0.5734 -0.2876 -0.4592
14938TIP3    H166305   0.529   6.318  16.634  1.8069  2.6888  0.5391
14938TIP3    H266306   0.411   6.364  16.552  1.1357 -0.9818 -0.7664
14939TIP3   OH266307   1.406   0.601   0.979  0.4581  0.2156 -0.0383
14939TIP3    H166308   1.492   0.598   0.939  0.2233 -0.0182 -0.5352
14939TIP3    H266309   1.423   0.602   1.073  1.0034  0.2917 -0.1371
14940TIP3   OH266310   6.433   2.124  14.005 -0.0301 -0.4475 -0.0733
14940TIP3    H166311   6.499   2.100  13.940  0.8278  2.4453 -0.4342
14940TIP3    H266312   6.482   2.144  14.084 -0.6986 -0.5417  0.3734
14941TIP3   OH266313   4.603   5.278  13.359 -0.1111  0.3163 -0.3559
14941TIP3    H166314   4.635   5.227  13.285 -1.2030  0.2017 -0.7676
14941TIP3    H266315   4.675   5.336  13.381  1.1164 -1.2880  0.0347
14942TIP3   OH266316   5.514   2.321  12.735  0.2942  0.1823 -0.4334
14942TIP3    H166317   5.556   2.332  12.820  1.3759 -1.2931 -0.7240
14942TIP3    H266318   5.525   2.405  12.691  2.8236 -0.0699 -0.4136
14943TIP3   OH266319   4.308   0.858  13.643 -0.0577 -0.3606  0.4138
14943TIP3    H166320   4.314   0.950  13.615  1.6801 -0.5379  0.0934
14943TIP3    H266321   4.228   0.854  13.696 -0.3108  1.2699  0.2093
14944TIP3   OH266322   1.566   5.832   3.827  0.6062 -0.0195 -0.5951
14944TIP3    H166323   1.554   5.901   3.762  1.5248  0.4716 -0.2660
14944TIP3    H266324   1.580   5.879   3.909  2.5166 -0.5295 -0.5714
14945TIP3   OH266325   5.549   2.785  11.386 -1.0526 -0.3164  0.4341
14945TIP3    H166326   5.621   2.820  11.439 -3.0679  1.4986  2.1495
14945TIP3    H266327   5.532   2.853  11.321 -1.0404 -0.8896 -0.1842
14946TIP3   OH266328   3.271   3.958   6.247 -0.1982  0.1653  0.1396
14946TIP3    H166329   3.240   3.948   6.337 -0.8856  0.6988 -0.0298
14946TIP3    H266330   3.197   3.997   6.201  0.2490  0.1550 -0.5957
14947TIP3   OH266331   1.360   2.361  11.613  0.1154  0.0403  0.2500
14947TIP3    H166332   1.361   2.444  11.565  0.3152 -0.0461  0.0993
14947TIP3    H266333   1.351   2.386  11.705  1.1654  0.2852  0.3057
14948TIP3   OH266334   2.879   3.973  15.475 -0.4614 -0.2132  0.3948
14948TIP3    H166335   2.832   3.891  15.463 -1.1510  0.3248 -0.7555
14948TIP3    H266336   2.811   4.038  15.490  0.0628  0.1900  1.1050
14949TIP3   OH266337   1.388   6.046   2.422 -0.1001  0.3253  0.2630
14949TIP3    H166338   1.436   5.963   2.420 -1.0448 -0.2460 -2.3901
14949TIP3    H266339   1.307   6.025   2.469 -0.2111 -0.2119 -0.1514
14950TIP3   OH266340   0.937   1.155  12.390 -0.4481  1.0472 -0.0889
14950TIP3    H166341   0.885   1.144  12.470 -1.7107  2.5070 -0.6587
14950TIP3    H266342   0.938   1.069  12.349  0.3241  0.2405  1.5244
14951TIP3   OH266343   6.111   3.171  15.512 -0.0372 -0.7378 -0.0022
14951TIP3    H166344   6.042   3.108  15.492 -0.3227 -0.4464  0.0650
14951TIP3    H266345   6.131   3.156  15.604  0.5899 -1.4044 -0.2330
14952TIP3   OH266346   2.052   2.506   3.766  0.0288  0.4243  0.1052
14952TIP3    H166347   1.976   2.548   3.728 -0.6673  0.9946  2.0065
14952TIP3    H266348   2.030   2.495   3.859  0.9119 -2.4706  0.0951
14953TIP3   OH266349   1.430   3.485  16.396  0.1491  0.5215 -0.6248
14953TIP3    H166350   1.499   3.547  16.421  2.0709 -1.9339  0.5882
14953TIP3    H266351   1.441   3.474  16.302 -0.3848  2.1480 -0.9047
14954TIP3   OH266352   0.529   3.377   5.505  0.2005 -0.5859 -0.6424
14954TIP3    H166353   0.481   3.295   5.495  1.4222 -1.6582  1.4334
14954TIP3    H266354   0.546   3.406   5.416 -0.5685 -2.4162 -1.4446
14955TIP3   OH266355   2.404   2.612  15.804 -0.2162  0.4509 -0.7011
14955TIP3    H166356   2.487   2.658  15.787 -1.1991  1.6700 -2.5607
14955TIP3    H266357   2.386   2.629  15.897  2.4636 -1.3959  0.2709
14956TIP3   OH266358   1.434   3.230   5.528 -0.7915  0.0577 -0.3330
14956TIP3    H166359   1.520   3.263   5.554 -0.2347 -1.0439 -0.7514
14956TIP3    H266360   1.406   3.289   5.458 -1.5145  1.9540  1.4359
14957TIP3   OH266361   1.465   3.792   0.770 -0.2397  0.2603  0.2198
14957TIP3    H166362   1.544   3.742   0.790  0.1820 -0.3420 -2.6507
14957TIP3    H266363   1.393   3.731   0.784 -0.2683  0.6825  2.4013
14958TIP3   OH266364   4.259   2.941  15.993  0.0491 -0.6436 -0.2747
14958TIP3    H166365   4.319   2.877  16.032 -0.3225 -0.4516  0.6264
14958TIP3    H266366   4.217   2.983  16.067 -1.3338 -0.8879 -0.8867
14959TIP3   OH266367   6.377   0.761  13.427 -0.2800 -0.1753  0.2609
14959TIP3    H166368   6.309   0.827  13.444  0.2400  0.1384  1.2302
14959TIP3    H266369   6.446   0.781  13.491 -0.3822 -2.0471  1.0334
14960TIP3   OH266370   3.599   2.923  11.620 -0.0506 -0.1764  0.2712
14960TIP3    H166371   3.535   2.928  11.548 -0.8021  0.4651  0.9653
14960TIP3    H266372   3.671   2.871  11.584 -1.2333 -1.4794 -0.3260
14961TIP3   OH266373   0.883   6.448   1.052 -0.3574  0.1319 -0.4017
14961TIP3    H166374   0.853   6.491   1.132 -2.8794  1.2578 -1.8492
14961TIP3    H266375   0.959   6.500   1.024  1.8937 -1.4506  2.1537
14962TIP3   OH266376   2.414   1.912   3.930  0.0614  0.1906  0.2429
14962TIP3    H166377   2.459   1.871   4.005  1.3124  1.7275  0.3789
14962TIP3    H266378   2.323   1.885   3.940  0.5067 -1.0444  1.3417
14963TIP3   OH266379   2.139   1.645  12.307  0.0037  0.2681  0.0711
14963TIP3    H166380   2.044   1.645  12.295  0.1647  0.9438 -1.5328
14963TIP3    H266381   2.154   1.707  12.379 -0.7194  0.9498 -0.3452
14964TIP3   OH266382   6.160   0.312  11.988 -0.6471 -0.0930 -0.6973
14964TIP3    H166383   6.082   0.329  12.040 -0.4150  0.8004 -0.6373
14964TIP3    H266384   6.233   0.334  12.045 -0.3417 -0.8017 -0.7990
14965TIP3   OH266385   1.384   3.841  13.383  1.0036 -0.0722  0.1316
14965TIP3    H166386   1.410   3.774  13.320  2.9880  1.2516 -0.5683
14965TIP3    H266387   1.430   3.816  13.464 -0.6969 -1.1797  0.8154
14966TIP3   OH266388   6.363   0.642  14.336  0.8198 -0.0128 -0.5556
14966TIP3    H166389   6.425   0.712  14.314  0.4135  0.0331 -1.6290
14966TIP3    H266390   6.277   0.679  14.316  0.4248 -0.0507  1.0007
14967TIP3   OH266391   6.441   6.391  11.851  0.8492  0.1779 -0.3811
14967TIP3    H166392   6.404   6.396  11.762  0.2331 -0.9424 -0.2098
14967TIP3    H266393   6.534   6.377  11.837  0.3777 -3.1641 -0.9629
14968TIP3   OH266394   2.130   4.496  13.746 -0.3110 -0.3636 -0.7004
14968TIP3    H166395   2.160   4.453  13.825  1.2471  4.1254  1.4888
14968TIP3    H266396   2.199   4.480  13.681  1.2611  0.5117  0.7046
14969TIP3   OH266397   1.144   5.159   4.850 -0.1978 -0.0879 -0.2511
14969TIP3    H166398   1.050   5.166   4.869 -0.1729  1.6213 -0.6403
14969TIP3    H266399   1.166   5.069   4.875 -2.0231 -0.6813 -0.5735
14970TIP3   OH266400   3.220   5.307  15.219 -0.6182 -0.1094  0.2454
14970TIP3    H166401   3.155   5.292  15.151  1.0613  2.3636 -2.1092
14970TIP3    H266402   3.302   5.274  15.181  0.5710  2.3787  0.4843
14971TIP3   OH266403   6.762   4.686  12.007  0.0502 -0.0180  0.0137
14971TIP3    H166404   6.843   4.737  12.004  0.2767 -0.1355  2.3668
14971TIP3    H266405   6.791   4.596  12.022 -0.5035 -0.0833  0.7395
14972TIP3   OH266406   5.035   2.999   2.642 -0.0935 -0.2318 -0.6371
14972TIP3    H166407   5.130   3.005   2.641 -0.1830  4.2424 -1.0509
14972TIP3    H266408   5.008   3.025   2.554 -1.6543  2.4959  0.5288
14973TIP3   OH266409   2.932   0.854  12.915  0.3745 -0.1527  0.2225
14973TIP3    H166410   3.017   0.827  12.948 -0.4457 -0.5120  2.1596
14973TIP3    H266411   2.869   0.801  12.963 -0.9761  0.3306 -0.9329
14974TIP3   OH266412   2.771   3.016  16.944  0.2427  0.2083  0.1443
14974TIP3    H166413   2.821   3.090  16.909  0.1699 -0.0739 -0.5797
14974TIP3    H266414   2.782   2.947  16.878 -1.1785  0.1728 -0.0927
14975TIP3   OH266415   6.372   0.418  12.147 -0.3197  0.3492  0.4640
14975TIP3    H166416   6.460   0.455  12.148  0.0792 -0.5555  0.2860
14975TIP3    H266417   6.387   0.323  12.145 -1.2459  0.1887 -2.2541
14976TIP3   OH266418   1.687   5.689  11.723  0.1871 -0.3336  0.1298
14976TIP3    H166419   1.660   5.755  11.658 -0.8135 -1.0638 -0.2214
14976TIP3    H266420   1.700   5.609  11.672  0.0424 -0.7504  0.7398
14977TIP3   OH266421   4.617   3.242   3.642 -0.2549 -0.0157  0.6305
14977TIP3    H166422   4.569   3.210   3.718 -0.7627 -0.6005  0.0782
14977TIP3    H266423   4.660   3.322   3.672 -0.6215 -0.1249  1.4652
14978TIP3   OH266424   1.464   4.192  16.807  0.0364 -0.2388 -0.7115
14978TIP3    H166425   1.551   4.209  16.771  0.4083 -0.7360 -0.0473
14978TIP3    H266426   1.440   4.106  16.771  0.2888 -0.6057 -0.0301
14979TIP3   OH266427   3.454   2.382   6.069  0.1754  0.3069 -0.5279
14979TIP3    H166428   3.526   2.429   6.111 -0.0991  1.2429 -1.0658
14979TIP3    H266429   3.430   2.438   5.994 -0.7567 -0.2503 -0.6578
14980TIP3   OH266430   0.324   3.599   0.953  0.0077  0.7180  0.2319
14980TIP3    H166431   0.399   3.657   0.960  0.8156 -0.2401 -0.2595
14980TIP3    H266432   0.330   3.561   0.865 -0.5995  0.0357  0.4689
14981TIP3   OH266433   1.287   4.794  15.809 -0.1920 -1.0015  0.3060
14981TIP3    H166434   1.380   4.781  15.825 -0.1720 -0.2668  0.8665
14981TIP3    H266435   1.279   4.796  15.714  0.3945 -0.8943  0.2540
14982TIP3   OH266436   1.420   3.564  15.115  0.1033  0.4386 -0.1565
14982TIP3    H166437   1.357   3.634  15.131  2.2916  2.3315  0.7747
14982TIP3    H266438   1.450   3.538  15.202  1.1361  0.1133 -0.5872
14983TIP3   OH266439   3.802   6.283   6.476 -0.0338  0.2368 -0.9259
14983TIP3    H166440   3.849   6.199   6.470  2.0717  0.8339  3.3341
14983TIP3    H266441   3.712   6.258   6.498 -0.2444 -0.8794 -2.8823
14984TIP3   OH266442   1.988   6.605  10.545 -0.0702  0.1182 -0.4909
14984TIP3    H166443   1.963   6.534  10.604 -0.3274 -0.0909 -0.8516
14984TIP3    H266444   1.941   6.588  10.464  0.0665  0.5584 -0.6699
14985TIP3   OH266445   3.035   0.500  15.095 -0.2251 -0.7606  0.0199
14985TIP3    H166446   3.038   0.511  15.191  0.6763 -0.1637 -0.0616
14985TIP3    H266447   3.122   0.469  15.072  0.0390  0.4941 -0.7624
14986TIP3   OH266448   6.278   2.724  16.042  0.1072 -0.4388 -0.1235
14986TIP3    H166449   6.285   2.758  16.131  0.3194 -0.8623  0.0216
14986TIP3    H266450   6.203   2.664  16.045  0.0222 -0.3398 -0.2658
14987TIP3   OH266451   4.410   2.207   6.405 -0.5698 -0.0322  0.3741
14987TIP3    H166452   4.324   2.174   6.378 -0.2688 -1.8408  1.5053
14987TIP3    H266453   4.415   2.294   6.364 -2.6994 -0.0856 -0.1533
14988TIP3   OH266454   0.815   2.160  13.501 -1.0812 -0.4095  0.4314
14988TIP3    H166455   0.884   2.101  13.531  0.2968  0.7630 -0.3580
14988TIP3    H266456   0.804   2.223  13.572 -1.1399 -0.4117  0.4252
14989TIP3   OH266457   0.356   4.759  14.108  0.5088  0.2849  0.6186
14989TIP3    H166458   0.423   4.773  14.042 -0.2247  0.6339 -0.0619
14989TIP3    H266459   0.324   4.670  14.091 -0.8802  0.9880 -0.6242
14990TIP3   OH266460   1.820   5.400   5.077  0.2400 -0.0851  0.3632
14990TIP3    H166461   1.757   5.450   5.128  0.4054  0.7192 -0.1903
14990TIP3    H266462   1.830   5.450   4.996  1.0092 -0.6066  0.1207
14991TIP3   OH266463   3.104   1.917  14.427  0.2273  0.6889  0.7042
14991TIP3    H166464   3.070   1.978  14.362  1.6826 -0.9703 -1.7904
14991TIP3    H266465   3.199   1.925  14.421  0.4470 -1.3189  0.7618
14992TIP3   OH266466   2.218   0.800  14.798 -0.1468  0.2202  0.0138
14992TIP3    H166467   2.314   0.796  14.802 -0.2008  0.2317  1.9601
14992TIP3    H266468   2.200   0.834  14.710  1.6049 -0.3733 -0.6138
14993TIP3   OH266469   2.594   4.057   6.595  0.1985 -0.3250 -0.0152
14993TIP3    H166470   2.641   3.983   6.557 -0.5561 -0.5441 -0.5326
14993TIP3    H266471   2.657   4.129   6.592  1.4945 -1.2717  1.8882
14994TIP3   OH266472   2.000   6.130  15.636 -0.1935 -0.4730  0.1891
14994TIP3    H166473   1.983   6.193  15.566 -1.5307 -0.0184  0.8854
14994TIP3    H266474   2.009   6.183  15.715  2.9137 -0.8438  0.1997
14995TIP3   OH266475   3.569   2.608  11.375 -0.6610 -0.1224 -0.0390
14995TIP3    H166476   3.490   2.646  11.413  0.3205  0.4779  1.4906
14995TIP3    H266477   3.553   2.609  11.280 -1.1931  3.0572 -0.0311
14996TIP3   OH266478   3.273   5.112   4.620 -0.2077  0.6682  0.2792
14996TIP3    H166479   3.275   5.166   4.698  0.6780  0.3513  0.4974
14996TIP3    H266480   3.347   5.143   4.568 -0.2835  0.3227 -0.0401
14997TIP3   OH266481   0.873   6.543   1.303 -0.1674 -0.0627  0.2102
14997TIP3    H166482   0.916   6.474   1.353 -0.8136  1.6909  3.4861
14997TIP3    H266483   0.943   6.603   1.278  0.0144 -0.2745  0.2121
14998TIP3   OH266484   6.720   3.308   2.064  0.0033  0.0360 -0.2849
14998TIP3    H166485   6.716   3.343   1.974 -1.3821  1.1946  0.1665
14998TIP3    H266486   6.776   3.370   2.111 -1.4215  1.0089  0.2211
14999TIP3   OH266487   3.951   0.926   2.502  0.8948  0.2510  0.7831
14999TIP3    H166488   3.916   0.961   2.584  1.6122 -1.4920  1.8700
14999TIP3    H266489   4.033   0.884   2.526 -0.3886 -3.1134 -0.1840
15000TIP3   OH266490   2.136   5.624  14.351 -0.0314  0.0569  0.4446
15000TIP3    H166491   2.097   5.581  14.275  0.0227 -0.6842  0.8269
15000TIP3    H266492   2.229   5.632  14.330 -0.3905  2.0885 -0.5927
15001TIP3   OH266493   5.596   1.710  14.237 -0.0324 -0.3659 -0.1516
15001TIP3    H166494   5.580   1.802  14.255 -0.5063 -0.7166  1.3861
15001TIP3    H266495   5.624   1.673  14.321  2.1081 -1.2426 -1.1590
15002TIP3   OH266496   3.520   4.900   5.325  0.3363  0.0441 -0.5353
15002TIP3    H166497   3.566   4.982   5.340 -1.4425  0.8265  0.9325
15002TIP3    H266498   3.496   4.869   5.412 -3.3264  0.5692 -1.2193
15003TIP3   OH266499   5.743   3.971  13.530  0.3134 -1.1496  0.0959
15003TIP3    H166500   5.838   3.973  13.521  0.2845 -0.1721 -0.1215
15003TIP3    H266501   5.710   3.994  13.443 -0.1131 -1.2960  0.2156
15004TIP3   OH266502   0.936   5.549   0.287  0.1211  0.2600 -0.0186
15004TIP3    H166503   1.015   5.536   0.339 -0.2504  0.1870  0.5317
15004TIP3    H266504   0.893   5.624   0.326 -1.2302 -1.0494  1.1385
15005TIP3   OH266505   6.695   4.533  12.948  0.1530  0.4167  0.0413
15005TIP3    H166506   6.674   4.586  13.025 -0.8679  0.8956 -0.5374
15005TIP3    H266507   6.721   4.448  12.983  4.4454  1.9206  1.2018
15006TIP3   OH266508   2.691   4.921  15.109  0.2448  0.6492  0.4368
15006TIP3    H166509   2.649   4.984  15.051  0.5410  0.1260 -0.3605
15006TIP3    H266510   2.666   4.949  15.197 -0.2061  1.4554  0.0625
15007TIP3   OH266511   4.092   5.654   1.061 -0.5530 -0.4331  0.0136
15007TIP3    H166512   4.001   5.681   1.065  0.0015  1.6382 -0.2050
15007TIP3    H266513   4.092   5.574   1.008 -2.3769 -1.2994  1.2376
15008TIP3   OH266514   5.307   6.007  14.125 -0.0962 -0.1649 -0.0088
15008TIP3    H166515   5.300   5.989  14.031  1.6373 -2.1136  0.1760
15008TIP3    H266516   5.248   5.945  14.166  0.1147 -0.1867  0.2617
15009TIP3   OH266517   3.754   5.354   1.469 -0.5586 -0.2099 -0.3338
15009TIP3    H166518   3.820   5.299   1.427 -1.8890 -1.3309 -1.0273
15009TIP3    H266519   3.757   5.437   1.421  1.3229  0.3207  0.5932
15010TIP3   OH266520   3.876   1.267   4.221 -0.1891  0.3854 -0.5524
15010TIP3    H166521   3.949   1.270   4.159 -0.8684  0.5013 -1.3806
15010TIP3    H266522   3.804   1.228   4.170 -0.6197  0.0019  0.3299
15011TIP3   OH266523   6.283   4.069  11.504 -0.5991  0.1927  0.3776
15011TIP3    H166524   6.342   4.143  11.489  0.4712 -0.8280 -0.6435
15011TIP3    H266525   6.333   4.010  11.561 -0.5117 -0.8189 -0.7261
15012TIP3   OH266526   1.149   2.998   2.540 -0.0381 -0.2034 -0.7921
15012TIP3    H166527   1.059   2.969   2.555  0.3788 -1.0232  0.2317
15012TIP3    H266528   1.201   2.948   2.603  0.8758  1.8840  0.1719
15013TIP3   OH266529   2.374   1.780  12.108  0.3431  0.3968 -0.2230
15013TIP3    H166530   2.425   1.839  12.053  4.2556 -1.9071  0.5485
15013TIP3    H266531   2.339   1.835  12.178  1.1601  2.2759 -1.2404
15014TIP3   OH266532   5.189   1.044  11.796 -0.2446  0.1090 -0.4332
15014TIP3    H166533   5.136   1.038  11.876  2.1045  0.4826  1.2459
15014TIP3    H266534   5.269   1.088  11.824  0.3931  0.8485 -3.1835
15015TIP3   OH266535   4.477   3.235   5.990 -0.4855 -0.3832 -0.0293
15015TIP3    H166536   4.485   3.321   6.030  0.0981 -1.3235  2.0177
15015TIP3    H266537   4.567   3.204   5.981 -0.7243 -1.2375  0.3856
15016TIP3   OH266538   5.938   1.997  12.487 -0.4170 -0.7460 -0.2411
15016TIP3    H166539   5.851   1.958  12.498 -1.3709  0.6731 -2.1796
15016TIP3    H266540   5.955   1.991  12.393  2.1702 -2.0998  0.2483
15017TIP3   OH266541   3.259   4.795   6.436 -0.1485 -0.4281  0.0772
15017TIP3    H166542   3.305   4.853   6.374 -0.2856  0.2082  0.5585
15017TIP3    H266543   3.167   4.820   6.428 -0.1470 -0.2213  0.6531
15018TIP3   OH266544   2.046   3.090  12.523  0.5758 -0.7352  0.5823
15018TIP3    H166545   2.141   3.091  12.532  0.5964 -1.4977  0.4720
15018TIP3    H266546   2.018   3.013  12.571  0.2330 -1.9069 -1.4045
15019TIP3   OH266547   4.889   6.102  14.994  0.0481  0.0396  0.2316
15019TIP3    H166548   4.833   6.105  14.917 -0.6060 -0.3155  0.6797
15019TIP3    H266549   4.830   6.076  15.065  0.6834  0.1410  0.8057
15020TIP3   OH266550   6.590   3.943  14.316  0.0698 -0.8400  0.0361
15020TIP3    H166551   6.581   3.989  14.233  0.0929 -0.7864  0.0626
15020TIP3    H266552   6.546   3.999  14.380 -0.5160 -1.2011 -0.0483
15021TIP3   OH266553   3.192   3.852  17.034 -0.5993  0.1086  0.0228
15021TIP3    H166554   3.256   3.921  17.051  0.0129 -0.6429  0.7522
15021TIP3    H266555   3.243   3.776  17.009 -0.9668 -1.3291  3.2263
15022TIP3   OH266556   0.877   0.493   5.544 -0.1217  0.1230  0.6149
15022TIP3    H166557   0.837   0.419   5.499 -0.8219 -1.0624  3.0065
15022TIP3    H266558   0.963   0.461   5.572  0.1824  0.7260  0.3869
15023TIP3   OH266559   6.101   0.943  13.932  0.1856 -0.2806 -0.2561
15023TIP3    H166560   6.055   0.863  13.907  0.4146 -0.8414  1.0683
15023TIP3    H266561   6.043   0.985  13.996 -1.7683  2.5792 -3.5343
15024TIP3   OH266562   5.232   2.562  16.405  0.8408 -0.0811 -0.0419
15024TIP3    H166563   5.227   2.515  16.322 -0.7439 -0.5232  0.2620
15024TIP3    H266564   5.159   2.527  16.457  0.2781  1.9009  0.6198
15025TIP3   OH266565   6.173   3.239   4.121  0.2293  0.2528 -0.7816
15025TIP3    H166566   6.263   3.219   4.097  0.6134  0.4404  0.4311
15025TIP3    H266567   6.147   3.167   4.179 -0.3461  0.2853 -0.9903
15026TIP3   OH266568   3.220   1.071  10.484  0.4116 -0.0038 -0.5283
15026TIP3    H166569   3.286   1.004  10.467 -0.2037 -1.0761  0.9802
15026TIP3    H266570   3.137   1.029  10.460  0.1494  0.7707 -0.9878
15027TIP3   OH266571   0.514   4.180  10.917  0.0459 -0.4189  0.5721
15027TIP3    H166572   0.511   4.240  10.843  0.3337 -1.0870  0.0020
15027TIP3    H266573   0.423   4.168  10.942 -0.0871 -0.4937  0.0677
15028TIP3   OH266574   4.681   0.862  12.262  0.0800 -0.5252 -0.4684
15028TIP3    H166575   4.628   0.858  12.341  1.1914  0.2531  0.3437
15028TIP3    H266576   4.618   0.878  12.192 -0.9062 -1.0605  0.2724
15029TIP3   OH266577   0.750   5.064  16.138 -0.4799  0.1930 -0.2252
15029TIP3    H166578   0.803   4.987  16.120  0.3006  0.7500 -0.3500
15029TIP3    H266579   0.683   5.033  16.199  0.3373 -0.3935  0.4017
15030TIP3   OH266580   1.976   6.310  15.437  0.2647 -0.2890  0.0287
15030TIP3    H166581   2.063   6.343  15.460  1.2416 -1.9289 -1.0177
15030TIP3    H266582   1.915   6.372  15.475  1.9132  2.2920 -1.2432
15031TIP3   OH266583   1.108   5.303  16.939 -0.0111 -0.2344 -0.3295
15031TIP3    H166584   1.052   5.246  16.885  0.4423 -0.9129 -0.0888
15031TIP3    H266585   1.133   5.375  16.880 -1.9476  0.6429 -0.1690
15032TIP3   OH266586   4.938   1.332  12.416  0.3343  0.4320 -0.1706
15032TIP3    H166587   4.926   1.295  12.328 -0.6609  0.3045  0.0074
15032TIP3    H266588   4.957   1.256  12.471 -1.5839  0.1468  0.1715
15033TIP3   OH266589   2.755   1.137   2.730 -0.4845  0.3997  0.2577
15033TIP3    H166590   2.757   1.232   2.744  1.0382  0.2915  0.9720
15033TIP3    H266591   2.786   1.125   2.641 -0.8903  0.5861  0.0919
15034TIP3   OH266592   3.584   6.338  11.788 -0.2187  0.1095  0.3019
15034TIP3    H166593   3.600   6.358  11.696  0.5322 -0.2937  0.3365
15034TIP3    H266594   3.633   6.405  11.836 -0.3433  0.1229  0.4102
15035TIP3   OH266595   5.356   0.418   1.884  0.3265  0.2520  0.0769
15035TIP3    H166596   5.281   0.424   1.826  0.7476  0.5879 -0.4452
15035TIP3    H266597   5.364   0.325   1.906  0.8433 -0.0555 -1.3201
15036TIP3   OH266598   2.700   0.935  16.479  0.0219  0.1547 -0.0196
15036TIP3    H166599   2.628   0.954  16.539  0.3774 -0.3685  0.5927
15036TIP3    H266600   2.657   0.904  16.399 -0.4355 -1.4757  0.7991
15037TIP3   OH266601   2.112   4.806   4.700 -0.3364  0.0399  0.2151
15037TIP3    H166602   2.154   4.871   4.756 -1.6877  0.0001  1.3229
15037TIP3    H266603   2.158   4.724   4.719  0.1384  0.3027  0.2012
15038TIP3   OH266604   2.047   5.176   5.283 -0.1633  0.1958  0.0336
15038TIP3    H166605   1.957   5.168   5.314 -1.4189  2.3388 -2.6098
15038TIP3    H266606   2.073   5.086   5.261 -2.2427 -0.3130 -0.5676
15039TIP3   OH266607   2.658   0.871   2.762 -0.1796 -0.5089 -0.5496
15039TIP3    H166608   2.701   0.953   2.740 -1.5874  0.4043 -0.0083
15039TIP3    H266609   2.728   0.817   2.800  0.1394  1.7578  2.4902
15040TIP3   OH266610   5.966   3.625  11.036  0.6286 -0.2404  0.0359
15040TIP3    H166611   5.884   3.650  11.078  1.7173  2.0921  0.9576
15040TIP3    H266612   5.977   3.533  11.058 -0.9571 -0.1839  1.2486
15041TIP3   OH266613   6.261   2.883  15.622  0.4128 -0.1251  0.1306
15041TIP3    H166614   6.273   2.836  15.540  2.1854  2.5199 -1.2524
15041TIP3    H266615   6.168   2.908  15.621  0.1866 -0.9345 -0.5775
15042TIP3   OH266616   4.622   3.828   4.908  0.5446 -0.7717  0.3803
15042TIP3    H166617   4.706   3.819   4.952  1.6479  1.0383 -1.2155
15042TIP3    H266618   4.640   3.806   4.817 -0.4716  0.5823 -0.1747
15043TIP3   OH266619   2.968   3.734  12.069 -0.3271  0.4836  0.2814
15043TIP3    H166620   3.002   3.654  12.029  0.0313  0.1555  1.2051
15043TIP3    H266621   2.969   3.716  12.163 -0.3650  1.5284  0.4948
15044TIP3   OH266622   3.310   0.786   2.296  0.1787  0.2370 -0.0112
15044TIP3    H166623   3.405   0.782   2.284  0.0969 -0.3083 -0.5132
15044TIP3    H266624   3.287   0.876   2.272  0.7685  0.8746  1.7017
15045TIP3   OH266625   1.160   4.147   1.572  0.3214 -0.3726 -0.1090
15045TIP3    H166626   1.102   4.201   1.625  0.4584  1.1797 -1.4603
15045TIP3    H266627   1.102   4.080   1.535 -0.9869  1.8210 -2.3508
15046TIP3   OH266628   1.948   0.798  12.103 -0.4979 -0.4943 -0.3029
15046TIP3    H166629   1.899   0.857  12.161  0.9428  0.8300 -0.3747
15046TIP3    H266630   1.882   0.762  12.045 -1.7375 -0.5997  1.1103
15047TIP3   OH266631   2.802   6.484  14.408 -0.4541 -0.0945  0.3696
15047TIP3    H166632   2.714   6.478  14.372 -0.3555 -0.8297  0.2525
15047TIP3    H266633   2.791   6.472  14.502 -0.4087 -0.8752  0.2813
15048TIP3   OH266634   3.543   4.860  14.299  0.3914 -0.0210  0.2492
15048TIP3    H166635   3.479   4.798  14.263 -1.1888  1.3554  0.5695
15048TIP3    H266636   3.602   4.880  14.226 -0.4521 -0.1825 -0.4851
15049TIP3   OH266637   5.979   4.256  13.450  0.3071 -0.6811 -0.3828
15049TIP3    H166638   5.980   4.244  13.545  0.7997  0.0091 -0.2922
15049TIP3    H266639   5.887   4.268  13.429  0.2412 -0.2941  0.0871
15050TIP3   OH266640   0.148   4.376  16.218 -0.3528 -0.4232 -0.0082
15050TIP3    H166641   0.228   4.324  16.225  0.2071  0.6322  2.7342
15050TIP3    H266642   0.078   4.314  16.239 -0.2655 -1.2211 -1.8882
15051TIP3   OH266643   4.597   5.163   1.992 -0.5243 -0.4984 -0.4565
15051TIP3    H166644   4.592   5.214   2.073  0.3225 -0.7335 -0.2426
15051TIP3    H266645   4.639   5.081   2.018 -1.1953 -1.0019 -0.9401
15052TIP3   OH266646   6.167   1.251  17.113  0.8854  0.2170 -0.1417
15052TIP3    H166647   6.132   1.194  17.044  1.3046  0.0424 -0.2165
15052TIP3    H266648   6.208   1.190  17.175  0.5977  0.3804  0.2104
15053TIP3   OH266649   6.534   6.393   1.867  0.1828  0.1033 -0.2790
15053TIP3    H166650   6.494   6.320   1.915  0.6322  1.2957  2.0878
15053TIP3    H266651   6.608   6.353   1.821 -0.4707 -1.1855 -0.2728
15054TIP3   OH266652   1.122   5.029  11.196 -0.2600 -0.2357 -0.2393
15054TIP3    H166653   1.109   5.050  11.104  0.9099 -2.8537 -1.1026
15054TIP3    H266654   1.218   5.026  11.206 -0.3263  1.3872  1.4691
15055TIP3   OH266655   0.740   1.065  13.253  0.3808 -0.0179  0.3198
15055TIP3    H166656   0.727   1.020  13.336 -3.5701 -0.3572 -0.2939
15055TIP3    H266657   0.759   0.994  13.191 -1.5207 -0.4142  0.1365
15056TIP3   OH266658   5.935   2.270   0.604  0.2657 -0.1415 -0.1638
15056TIP3    H166659   5.965   2.222   0.680  1.9091  1.7561  0.4590
15056TIP3    H266660   5.841   2.281   0.618 -0.0010 -2.3773  0.0602
15057TIP3   OH266661   2.746   4.202  11.872 -0.8164 -0.0702  0.1503
15057TIP3    H166662   2.686   4.128  11.867 -2.2345  0.9700  1.0381
15057TIP3    H266663   2.724   4.245  11.954  2.0121 -0.3340  1.1563
15058TIP3   OH266664   3.856   6.562  15.429 -0.3424  0.6197  0.0284
15058TIP3    H166665   3.834   6.650  15.401 -0.1883  0.8362  0.5697
15058TIP3    H266666   3.781   6.508  15.402 -0.6456  0.9976  0.1176
15059TIP3   OH266667   5.562   1.332   0.388 -0.3207  0.1426 -0.4507
15059TIP3    H166668   5.590   1.305   0.475 -1.6368 -0.1285 -0.0890
15059TIP3    H266669   5.638   1.374   0.350  0.3190  0.1214  0.7736
15060TIP3   OH266670   5.640   6.348  14.357 -0.1654  0.5337  0.6312
15060TIP3    H166671   5.610   6.346  14.448 -0.2932  1.7209  0.6321
15060TIP3    H266672   5.726   6.388  14.361 -0.7790  1.9556  0.0982
15061TIP3   OH266673   6.456   2.081  14.809 -0.5254 -0.1686 -0.8991
15061TIP3    H166674   6.483   2.009  14.752  0.0887  0.5807 -1.5853
15061TIP3    H266675   6.375   2.051  14.849 -1.1766 -0.5807 -2.4539
15062TIP3   OH266676   2.089   0.301  13.545  0.2797 -0.4433  0.0605
15062TIP3    H166677   2.104   0.393  13.521 -1.0143  0.4480  2.3162
15062TIP3    H266678   2.009   0.278  13.498  1.0744 -0.7441 -1.1965
15063TIP3   OH266679   1.027   2.611   1.328  0.5521 -0.3731 -0.3957
15063TIP3    H166680   0.958   2.632   1.265 -0.3263  1.9696  1.2033
15063TIP3    H266681   1.041   2.693   1.377  0.5756 -2.2207  3.0029
15064TIP3   OH266682   0.373   6.538  11.403  0.8091  0.6712 -0.3272
15064TIP3    H166683   0.314   6.468  11.431  1.4987 -0.1183 -0.7973
15064TIP3    H266684   0.375   6.530  11.308 -0.2333  2.2771 -0.5117
15065TIP3   OH266685   5.581   5.575  11.871  0.0712  0.3798 -0.5035
15065TIP3    H166686   5.612   5.656  11.830  1.1730 -0.0980 -0.6586
15065TIP3    H266687   5.632   5.568  11.952 -1.3932  0.8114  0.5016
15066TIP3   OH266688   1.585   1.141   1.544 -0.2451 -0.1366 -0.0476
15066TIP3    H166689   1.674   1.170   1.525 -0.6000  0.5823 -0.6801
15066TIP3    H266690   1.533   1.176   1.472 -1.9308  3.9350  2.7951
15067TIP3   OH266691   6.226   4.806  11.666  0.5254 -0.9593  0.1080
15067TIP3    H166692   6.158   4.764  11.718 -0.6638 -0.6996 -1.1598
15067TIP3    H266693   6.177   4.862  11.605  1.7569 -2.0274 -1.9606
15068TIP3   OH266694   3.348   5.234  15.567 -0.2177  0.3740  0.5884
15068TIP3    H166695   3.406   5.210  15.639 -1.5775 -0.5017  1.4454
15068TIP3    H266696   3.387   5.193  15.490 -0.7503 -1.9850  1.5001
15069TIP3   OH266697   4.249   3.758   0.546  0.0590  0.8256  0.4567
15069TIP3    H166698   4.200   3.841   0.543 -0.8801  0.2761  0.1296
15069TIP3    H266699   4.328   3.775   0.494 -1.5337  0.6682 -2.2233
15070TIP3   OH266700   4.139   0.844   2.895 -0.4947 -0.2767 -0.4608
15070TIP3    H166701   4.068   0.785   2.868  2.4582 -2.8378 -3.5924
15070TIP3    H266702   4.213   0.786   2.912  1.6863  2.3783 -0.2711
15071TIP3   OH266703   4.622   6.577   5.893 -0.1756 -0.0794  0.0495
15071TIP3    H166704   4.598   6.497   5.940 -1.1677  0.4218  0.4225
15071TIP3    H266705   4.576   6.571   5.809 -0.4480  0.2027  0.1748
15072TIP3   OH266706   5.208   5.129   4.352  0.0281 -0.2160 -0.5974
15072TIP3    H166707   5.254   5.211   4.369  0.1263 -0.5366  0.8149
15072TIP3    H266708   5.269   5.078   4.299  1.4814 -0.7065  1.3864
15073TIP3   OH266709   1.343   4.705  13.741  0.2105  0.6660  0.0143
15073TIP3    H166710   1.379   4.791  13.721  0.3254  0.6085 -0.0307
15073TIP3    H266711   1.277   4.722  13.808  0.5505  0.7371  0.3341
15074TIP3   OH266712   2.411   5.094  14.096  0.1065 -0.1432 -0.1289
15074TIP3    H166713   2.371   5.171  14.056  0.4525 -0.5310 -1.2673
15074TIP3    H266714   2.339   5.032  14.106  0.0200 -0.0539 -0.1948
15075TIP3   OH266715   0.632   2.048   2.821  0.1136  0.1323  0.1420
15075TIP3    H166716   0.554   2.021   2.772 -0.4997  0.3005  1.0014
15075TIP3    H266717   0.700   1.987   2.793 -0.6243 -0.7565  0.2360
15076TIP3   OH266718   4.147   0.891   0.880  0.6278 -0.1093  0.0339
15076TIP3    H166719   4.092   0.817   0.906  2.0948 -1.1003  0.4752
15076TIP3    H266720   4.102   0.968   0.913 -0.9439 -0.7811 -0.4325
15077TIP3   OH266721   1.916   5.079   3.538  0.0556  0.6244 -0.2390
15077TIP3    H166722   1.910   5.086   3.633 -0.4905  0.8332 -0.2871
15077TIP3    H266723   2.006   5.049   3.522 -0.1759 -0.4590  0.4023
15078TIP3   OH266724   3.957   5.896   1.225  0.1694  0.0733 -0.6530
15078TIP3    H166725   3.919   5.983   1.212  0.4711 -0.0764 -2.8012
15078TIP3    H266726   4.013   5.882   1.149  1.0043 -1.5730  0.1970
15079TIP3   OH266727   4.260   1.719  11.897  0.1055 -0.2925 -0.3019
15079TIP3    H166728   4.314   1.751  11.969 -0.8692  0.8929 -0.0665
15079TIP3    H266729   4.171   1.713  11.933 -0.0181 -1.8318 -0.7848
15080TIP3   OH266730   1.722   1.808   4.022 -0.3880  0.2600  0.3377
15080TIP3    H166731   1.662   1.846   3.957  0.5185  1.2394  0.0429
15080TIP3    H266732   1.800   1.786   3.971  0.5065  1.4451  1.1419
15081TIP3   OH266733   2.286   2.664   1.044  0.2302 -0.3716  0.7084
15081TIP3    H166734   2.239   2.727   1.097  0.5256 -0.0088  0.5468
15081TIP3    H266735   2.242   2.665   0.959  0.8122  0.3114  0.4105
15082TIP3   OH266736   3.142   1.673  15.417 -0.1941  0.3168 -0.4429
15082TIP3    H166737   3.147   1.579  15.402 -1.6516  0.1169  0.1801
15082TIP3    H266738   3.175   1.712  15.336  1.9910 -0.6886 -0.1313
15083TIP3   OH266739   5.426   2.193  14.631 -0.3804  0.0846  0.1258
15083TIP3    H166740   5.363   2.122  14.641 -2.0708  1.4636 -0.3035
15083TIP3    H266741   5.404   2.255  14.701 -1.2676  1.8190 -1.5985
15084TIP3   OH266742   2.948   6.282  13.015  0.4088  0.5278  0.7344
15084TIP3    H166743   2.946   6.276  12.919  0.1107  2.5698  0.5704
15084TIP3    H266744   2.855   6.285  13.040  0.4991  0.7893  1.0355
15085TIP3   OH266745   0.955   0.124   1.084 -0.5386  0.4631  0.0419
15085TIP3    H166746   1.022   0.086   1.027 -0.9791  0.5079 -0.5056
15085TIP3    H266747   0.991   0.114   1.172  0.2090  0.5223 -0.2481
15086TIP3   OH266748   6.607   1.982   5.513  0.4416 -0.4117 -0.2002
15086TIP3    H166749   6.636   1.893   5.495  1.5347 -0.8995  3.3528
15086TIP3    H266750   6.687   2.032   5.525 -0.1777  0.7290 -0.6521
15087TIP3   OH266751   6.008   0.901  16.229  0.2822  0.5409 -0.2159
15087TIP3    H166752   6.088   0.914  16.281 -0.3588 -0.8509  1.1828
15087TIP3    H266753   6.000   0.981  16.178  2.2483  0.9639  0.0570
15088TIP3   OH266754   0.861   3.259   4.938 -0.0960  0.0202  0.1572
15088TIP3    H166755   0.951   3.290   4.951  0.0078  0.4934 -1.4380
15088TIP3    H266756   0.809   3.340   4.932 -0.5106 -0.2320  0.3249
15089TIP3   OH266757   1.610   0.854  15.258  0.3116  0.4063  0.6726
15089TIP3    H166758   1.704   0.837  15.259  0.3058  0.2312 -0.4345
15089TIP3    H266759   1.569   0.772  15.284  0.4031 -0.2978 -1.2485
15090TIP3   OH266760   4.827   5.581   2.546  0.0721  0.0097 -0.7306
15090TIP3    H166761   4.854   5.524   2.474  0.6073 -0.6278 -0.0510
15090TIP3    H266762   4.738   5.609   2.523  0.0512 -0.5712 -1.3969
15091TIP3   OH266763   4.535   5.889   1.024 -0.2678 -0.2128  0.5328
15091TIP3    H166764   4.505   5.850   0.942  2.0870  0.2207 -0.5988
15091TIP3    H266765   4.527   5.818   1.088 -1.6643 -0.7083 -0.1395
15092TIP3   OH266766   2.167   2.479  12.068  0.5171 -0.0422  0.0446
15092TIP3    H166767   2.083   2.454  12.029 -0.1480  1.5105  0.4240
15092TIP3    H266768   2.210   2.532  12.001  1.9330 -2.0395 -0.7617
15093TIP3   OH266769   6.471   2.121  15.637  1.0228 -0.6088 -0.8082
15093TIP3    H166770   6.435   2.085  15.556 -1.2726  0.9163 -0.5720
15093TIP3    H266771   6.565   2.123  15.623  0.8456 -2.1401 -2.6640
15094TIP3   OH266772   6.042   6.509   2.653 -0.3583  0.0356 -0.3479
15094TIP3    H166773   6.130   6.533   2.623 -0.4016  0.9833  0.2644
15094TIP3    H266774   6.050   6.416   2.674  0.9736  0.4575  1.2706
15095TIP3   OH266775   6.751   4.539  16.418  0.0272 -0.2192 -1.1823
15095TIP3    H166776   6.799   4.591  16.482 -0.7591 -2.8851  1.8510
15095TIP3    H266777   6.815   4.477  16.384  0.2818  0.7723 -2.6398
15096TIP3   OH266778   3.164   5.078   6.266  0.0253  0.0743 -0.1990
15096TIP3    H166779   3.193   5.152   6.212  2.2115 -0.0719  0.6415
15096TIP3    H266780   3.201   5.001   6.223 -1.0907 -0.4103 -0.3188
15097TIP3   OH266781   3.815   5.274   6.269 -0.2860  0.0495  0.0643
15097TIP3    H166782   3.818   5.337   6.341  0.1359 -0.2668  0.3279
15097TIP3    H266783   3.907   5.256   6.249 -0.3935  0.3953 -0.7917
15098TIP3   OH266784   1.983   4.439  11.339  0.2026  0.0487  0.3501
15098TIP3    H166785   1.905   4.391  11.367  0.3297  0.1830  0.9658
15098TIP3    H266786   2.035   4.375  11.291  0.0595 -0.2492  0.5897
15099TIP3   OH266787   0.254   4.247   3.689  0.2784 -0.4615 -0.4889
15099TIP3    H166788   0.343   4.230   3.657  1.3851  0.3609  1.9259
15099TIP3    H266789   0.231   4.332   3.651  1.8914  0.8924  1.3669
15100TIP3   OH266790   6.266   2.815  16.299 -0.5754  0.3222  0.4570
15100TIP3    H166791   6.353   2.846  16.323 -0.3478 -0.3543  0.5311
15100TIP3    H266792   6.237   2.764  16.375 -0.9806  0.4417  0.3847
15101TIP3   OH266793   2.626   1.120   3.343 -0.4641 -0.1924  0.0042
15101TIP3    H166794   2.539   1.120   3.302 -0.3842 -0.8241 -0.1786
15101TIP3    H266795   2.685   1.088   3.274 -0.4961 -2.4696  0.9250
15102TIP3   OH266796   4.383   0.279   0.013  0.3967  0.4253 -0.0958
15102TIP3    H166797   4.312   0.300   0.074  0.6371 -0.1977  0.4174
15102TIP3    H266798   4.385   0.183   0.011  0.5922  0.4423 -0.8531
15103TIP3   OH266799   1.230   0.862   1.933 -0.0797 -0.3709  0.4388
15103TIP3    H166800   1.319   0.848   1.903  0.3496  0.0428  1.4454
15103TIP3    H266801   1.227   0.956   1.955 -0.7491 -0.3893  0.4545
15104TIP3   OH266802   0.355   3.807  14.251 -0.3676  0.2635 -0.6143
15104TIP3    H166803   0.411   3.740  14.212 -0.3991 -0.7061  0.9237
15104TIP3    H266804   0.267   3.786  14.221 -0.5794 -1.2716  0.9370
15105TIP3   OH266805   3.444   3.482  15.290 -0.0357 -0.2137 -0.2438
15105TIP3    H166806   3.388   3.410  15.320 -0.1187 -1.4719 -3.0181
15105TIP3    H266807   3.388   3.532  15.230  0.4913  1.2888  0.4815
15106TIP3   OH266808   5.964   6.752  14.494  0.0816  0.5069  0.0001
15106TIP3    H166809   6.018   6.754  14.573 -0.6024 -1.7531  0.6309
15106TIP3    H266810   6.016   6.796  14.427  2.6952 -1.4076  0.6032
15107TIP3   OH266811   1.300   2.556   2.261 -0.3234 -0.5780  0.4536
15107TIP3    H166812   1.250   2.496   2.207  0.4988 -1.2117  0.3818
15107TIP3    H266813   1.247   2.568   2.340 -0.1603 -1.9745  0.7904
15108TIP3   OH266814   1.509   2.354  15.978  0.1131  0.5830  0.2433
15108TIP3    H166815   1.501   2.313  16.064  1.0073  1.3286  0.6935
15108TIP3    H266816   1.595   2.396  15.979 -0.0205  0.9145 -0.8835
15109TIP3   OH266817   5.079   0.845  14.081 -0.0582  0.2234 -0.0345
15109TIP3    H166818   5.023   0.890  14.144 -0.3803  1.4545 -1.1641
15109TIP3    H266819   5.162   0.834  14.127 -1.3103 -2.1419  1.8744
15110TIP3   OH266820   0.316   3.176   5.746  0.2545 -1.0470  0.0994
15110TIP3    H166821   0.237   3.177   5.800 -0.0489 -0.0473 -0.3333
15110TIP3    H266822   0.284   3.190   5.657  0.8164 -1.8999 -0.2442
15111TIP3   OH266823   4.926   6.702   3.220  0.2879  0.0357 -0.0164
15111TIP3    H166824   4.891   6.789   3.202  0.7366 -0.1748 -2.2627
15111TIP3    H266825   4.869   6.643   3.170  1.5829 -0.6559 -0.7523
15112TIP3   OH266826   6.216   2.033   4.717 -0.1737 -0.6173 -0.7395
15112TIP3    H166827   6.252   2.067   4.799 -0.4694 -0.4801 -0.6679
15112TIP3    H266828   6.155   1.964   4.744 -1.5258  0.5371 -0.7536
15113TIP3   OH266829   6.685   6.212  12.246  0.0019  0.1393  0.0618
15113TIP3    H166830   6.612   6.258  12.288  1.2360  1.4875  0.7860
15113TIP3    H266831   6.697   6.257  12.162 -0.7284 -0.8423 -0.5964
15114TIP3   OH266832   0.870   2.619   0.406  0.2232  0.7528 -0.2489
15114TIP3    H166833   0.818   2.578   0.475 -0.0613  0.8799 -0.3871
15114TIP3    H266834   0.847   2.712   0.411  1.0109  0.9367  0.1979
15115TIP3   OH266835   4.506   3.115   3.868  0.2954 -0.3054 -0.0318
15115TIP3    H166836   4.470   3.163   3.943  0.2530  1.6356 -1.2065
15115TIP3    H266837   4.436   3.056   3.841 -0.5729  0.6429  0.0755
15116TIP3   OH266838   4.535   6.354  12.925  0.3378  0.7345 -0.1971
15116TIP3    H166839   4.511   6.267  12.957  0.0667  1.1885  0.8599
15116TIP3    H266840   4.547   6.407  13.004  0.3451  1.7020 -0.8243
15117TIP3   OH266841   2.700   4.485   5.507  0.3351  0.2846  0.2077
15117TIP3    H166842   2.616   4.456   5.471  0.4358 -0.1680  0.3301
15117TIP3    H266843   2.700   4.453   5.597  1.2504 -0.9961 -0.2199
15118TIP3   OH266844   3.272   1.326   2.899 -0.1912 -0.7222 -0.5611
15118TIP3    H166845   3.216   1.378   2.841 -1.0218 -0.9044  0.0566
15118TIP3    H266846   3.284   1.243   2.852 -0.6741 -0.7859 -0.5739
15119TIP3   OH266847   4.219   4.792  15.699  0.3929  0.4818 -0.2221
15119TIP3    H166848   4.257   4.865  15.649  0.3757  1.1776  0.7557
15119TIP3    H266849   4.235   4.815  15.790 -1.3279  0.2139  0.1797
15120TIP3   OH266850   3.433   0.984   2.984 -0.1576  0.1908 -0.5291
15120TIP3    H166851   3.380   1.009   2.908 -0.9838 -0.6327 -0.2469
15120TIP3    H266852   3.502   1.049   2.987 -0.8485  0.9869 -1.2385
15121TIP3   OH266853   4.094   2.503  16.562  0.0664 -0.3201 -0.1779
15121TIP3    H166854   4.144   2.448  16.502  0.9231 -1.5840  1.6163
15121TIP3    H266855   4.002   2.480  16.545  0.3365 -1.2436 -0.4305
15122TIP3   OH266856   4.942   1.092   3.033  0.5271  0.1430  0.4930
15122TIP3    H166857   4.999   1.166   3.013  0.8631 -0.1196  0.4730
15122TIP3    H266858   5.002   1.022   3.059  0.1827  0.0420  1.0355
15123TIP3   OH266859   5.306   3.779   5.951 -0.1702  0.1490 -0.3857
15123TIP3    H166860   5.264   3.700   5.917  0.2461 -0.2718  0.0432
15123TIP3    H266861   5.273   3.787   6.041 -1.0341  1.0812 -0.7628
15124TIP3   OH266862   0.314   5.255   6.021  0.0647  0.4554 -0.4868
15124TIP3    H166863   0.234   5.275   6.068  0.7980  0.6225  0.7346
15124TIP3    H266864   0.352   5.340   5.999 -0.3254  0.3817 -1.5078
15125TIP3   OH266865   1.875   6.353   0.950  0.0053 -0.2717 -0.0777
15125TIP3    H166866   1.885   6.258   0.941  1.0080 -0.2416  0.5504
15125TIP3    H266867   1.958   6.389   0.917  0.1421  0.3052  0.8695
15126TIP3   OH266868   1.052   1.226  14.246  0.2164  0.8715  0.3543
15126TIP3    H166869   1.077   1.177  14.168  1.7537  1.3211  0.5419
15126TIP3    H266870   0.985   1.288  14.215 -0.3499 -0.0256 -0.2611
15127TIP3   OH266871   2.785   6.812   2.393  0.0201  0.4626 -0.1982
15127TIP3    H166872   2.764   6.761   2.471  0.2609  1.0609  0.2676
15127TIP3    H266873   2.851   6.761   2.347  0.2389  0.3457  0.2461
15128TIP3   OH266874   1.726   1.487  17.207  0.1959 -0.4381  0.2824
15128TIP3    H166875   1.811   1.444  17.201  0.0089 -0.8834  0.7069
15128TIP3    H266876   1.676   1.433  17.268 -1.1366 -1.4424 -1.5754
15129TIP3   OH266877   1.755   4.932   3.208 -0.3983  0.4076  0.4007
15129TIP3    H166878   1.737   4.992   3.281  0.3664 -1.5105  2.2801
15129TIP3    H266879   1.830   4.881   3.237  1.2573  0.8821 -2.6352
15130TIP3   OH266880   3.021   4.634  12.698  0.4741  0.8008  0.2546
15130TIP3    H166881   2.982   4.629  12.611  1.3689 -1.1449 -0.0972
15130TIP3    H266882   2.947   4.643  12.758 -0.4481 -1.3575 -0.4921
15131TIP3   OH266883   6.435   1.536  15.921  0.0248 -0.3089 -0.1075
15131TIP3    H166884   6.395   1.620  15.946 -0.0628 -0.6451  0.9147
15131TIP3    H266885   6.456   1.547  15.828  1.0508  1.2717  0.2624
15132TIP3   OH266886   5.551   2.917   4.343 -0.0154 -0.3615  0.1094
15132TIP3    H166887   5.641   2.945   4.363  1.7970 -3.3384 -2.8548
15132TIP3    H266888   5.543   2.831   4.385 -1.0133 -0.6718 -0.6853
15133TIP3   OH266889   2.991   1.527  15.143 -0.2499 -0.8053  0.2001
15133TIP3    H166890   2.905   1.496  15.116 -0.9755 -0.8498  2.3621
15133TIP3    H266891   3.005   1.488  15.229  1.6009 -0.1724  0.2423
15134TIP3   OH266892   6.190   1.278  14.061 -0.2569  0.6071  0.2269
15134TIP3    H166893   6.153   1.310  13.978  0.3170  0.4292 -0.1007
15134TIP3    H266894   6.284   1.284  14.049 -0.0492 -2.2466 -0.2784
15135TIP3   OH266895   0.207   5.433   1.379  0.4325 -0.1670  0.2982
15135TIP3    H166896   0.124   5.472   1.352  0.9191  0.2633 -0.6592
15135TIP3    H266897   0.183   5.356   1.430 -0.5512 -0.1969 -0.1947
15136TIP3   OH266898   5.651   6.259  16.615  0.1094 -0.0514  0.0532
15136TIP3    H166899   5.740   6.232  16.591 -0.3285  0.6145 -2.5809
15136TIP3    H266900   5.610   6.180  16.649  1.7453 -0.3176  1.5179
15137TIP3   OH266901   2.297   4.818   5.413 -0.1068 -0.7493 -0.1499
15137TIP3    H166902   2.357   4.802   5.486 -0.7241  0.6972  0.7069
15137TIP3    H266903   2.339   4.887   5.363 -0.0180 -1.2696 -0.8118
15138TIP3   OH266904   4.765   6.303   4.455 -0.0927 -0.0762 -0.2359
15138TIP3    H166905   4.787   6.270   4.367  2.4975  0.8174 -0.0059
15138TIP3    H266906   4.843   6.286   4.507 -0.9583  0.9322  1.4836
15139TIP3   OH266907   1.262   0.766  16.109 -0.5636  0.1548 -0.5540
15139TIP3    H166908   1.290   0.824  16.039 -0.2644  0.8457  0.1253
15139TIP3    H266909   1.305   0.800  16.188 -0.5647 -0.8408 -0.0963
15140TIP3   OH266910   3.191   6.364  11.016 -0.3691 -0.0714 -0.0261
15140TIP3    H166911   3.235   6.279  11.019 -0.9094 -0.3480  0.1460
15140TIP3    H266912   3.101   6.344  10.990 -1.8718 -0.1395  4.4139
15141TIP3   OH266913   6.591   0.804   3.119  0.0681 -0.2110 -0.3920
15141TIP3    H166914   6.575   0.769   3.032  0.3081  0.0177 -0.5303
15141TIP3    H266915   6.516   0.776   3.171  0.0242 -0.5173 -0.6220
15142TIP3   OH266916   1.954   6.210   5.478  0.5488  0.1718 -0.3866
15142TIP3    H166917   2.018   6.140   5.462 -0.5442 -0.8999 -0.2618
15142TIP3    H266918   1.957   6.222   5.573  0.5928  0.1461 -0.3841
15143TIP3   OH266919   5.117   4.549  15.097  0.6589 -0.2867 -0.4513
15143TIP3    H166920   5.150   4.636  15.075  0.2893 -0.2153 -0.7444
15143TIP3    H266921   5.174   4.518  15.167 -0.1073  0.7976  0.6917
15144TIP3   OH266922   5.288   4.133  11.981 -0.0016  0.1518  0.4603
15144TIP3    H166923   5.300   4.151  12.074 -0.1069 -1.8523  0.9244
15144TIP3    H266924   5.195   4.111  11.973 -0.7564  3.2682 -0.7499
15145TIP3   OH266925   5.150   4.135  13.918 -0.1263 -0.1912 -0.4131
15145TIP3    H166926   5.192   4.095  13.994 -0.0343  0.2052 -0.2543
15145TIP3    H266927   5.065   4.091  13.912 -0.1541 -0.1918 -0.0493
15146TIP3   OH266928   6.185   2.204   6.250  0.1177 -0.1559  0.6653
15146TIP3    H166929   6.209   2.111   6.248  1.2134  0.1264 -0.2016
15146TIP3    H266930   6.089   2.204   6.259 -0.1072 -1.3991 -1.1814
15147TIP3   OH266931   5.289   1.677   5.277  0.8762 -0.2870 -0.0326
15147TIP3    H166932   5.372   1.721   5.259  1.8518 -1.8107  0.5402
15147TIP3    H266933   5.309   1.617   5.348 -0.5321 -1.2608 -0.4241
15148TIP3   OH266934   4.302   5.865   6.128 -0.1334  0.1684  0.4056
15148TIP3    H166935   4.233   5.801   6.141 -0.0460  0.1772  0.9138
15148TIP3    H266936   4.351   5.865   6.210  0.7231 -0.1464 -0.0903
15149TIP3   OH266937   5.309   3.244   1.059  0.2897 -0.1336  0.3096
15149TIP3    H166938   5.318   3.337   1.039 -0.3208 -0.0546  0.4018
15149TIP3    H266939   5.228   3.217   1.016  0.1195 -0.4656  0.8260
15150TIP3   OH266940   6.605   2.013   1.172 -0.2289  0.6012 -0.4025
15150TIP3    H166941   6.515   2.034   1.198  0.1836  2.5036 -0.3546
15150TIP3    H266942   6.654   2.093   1.190  1.3947 -0.2593 -0.8457
15151TIP3   OH266943   4.845   2.334  11.778 -0.2319 -0.3854 -0.6745
15151TIP3    H166944   4.872   2.257  11.828  2.1819  0.8917  0.1523
15151TIP3    H266945   4.839   2.404  11.843 -1.5717  0.3358 -1.5322
15152TIP3   OH266946   4.294   5.425   3.290 -0.7006 -0.3340 -0.1128
15152TIP3    H166947   4.278   5.436   3.196  0.4630 -0.6356 -0.3633
15152TIP3    H266948   4.363   5.488   3.309 -0.7513 -0.4593  0.4897
15153TIP3   OH266949   5.171   0.143   2.069  0.1098 -0.0099  0.3264
15153TIP3    H166950   5.113   0.124   2.142  0.6308  4.3930  2.1865
15153TIP3    H266951   5.112   0.161   1.996 -0.5362 -1.7149  0.3998
15154TIP3   OH266952   4.844   3.856   2.388  0.2836  0.9723 -0.2853
15154TIP3    H166953   4.807   3.912   2.456 -0.6396  0.5433 -0.4260
15154TIP3    H266954   4.861   3.773   2.432  2.3585  1.5522  0.1140
15155TIP3   OH266955   0.542   6.276   1.031 -0.6184 -0.1424 -0.1275
15155TIP3    H166956   0.544   6.253   1.124  1.8715 -0.7144 -0.2722
15155TIP3    H266957   0.464   6.232   0.997  0.3227 -2.8759  1.0142
15156TIP3   OH266958   5.795   2.539   1.954  0.0522 -0.1651  0.5306
15156TIP3    H166959   5.803   2.469   1.889 -1.4688 -1.4744  1.6804
15156TIP3    H266960   5.875   2.532   2.006  0.3529 -0.3821  0.0540
15157TIP3   OH266961   5.195   1.897  16.674 -0.8544 -0.0371  0.1237
15157TIP3    H166962   5.230   1.898  16.763 -0.0542 -1.3516 -0.1394
15157TIP3    H266963   5.159   1.984  16.661 -0.9831  0.1804  1.7318
15158TIP3   OH266964   1.031   0.573   3.837 -0.5785 -0.0548 -0.4028
15158TIP3    H166965   1.122   0.593   3.819 -0.2091 -0.8063  0.5233
15158TIP3    H266966   0.988   0.658   3.844  0.1981  0.3235 -0.1426
15159TIP3   OH266967   3.769   2.504   1.384 -0.7455 -0.3292  0.1815
15159TIP3    H166968   3.736   2.556   1.457 -3.1565 -1.0738 -0.2632
15159TIP3    H266969   3.789   2.568   1.316 -0.9417  0.2117  0.6274
15160TIP3   OH266970   2.732   5.677  16.053 -0.0206 -0.0280 -0.4320
15160TIP3    H166971   2.677   5.599  16.047  1.6828 -1.2129 -1.2225
15160TIP3    H266972   2.757   5.696  15.962 -2.8613  3.3695 -0.7666
15161TIP3   OH266973   2.522   1.445   0.389 -0.3778 -0.5193 -0.0724
15161TIP3    H166974   2.456   1.503   0.349  0.1816 -0.3753 -0.8026
15161TIP3    H266975   2.481   1.416   0.471 -0.2689  1.7533  0.8704
15162TIP3   OH266976   5.164   3.850   5.480 -0.2979  0.3408 -0.8649
15162TIP3    H166977   5.115   3.857   5.562 -0.7547 -0.4807 -1.0588
15162TIP3    H266978   5.141   3.929   5.432 -1.1800  0.1338 -0.8073
15163TIP3   OH266979   3.989   5.845  11.239 -0.0840  0.4368  0.1204
15163TIP3    H166980   4.020   5.762  11.204 -0.7240  0.5947 -0.8564
15163TIP3    H266981   3.951   5.823  11.324  1.2312 -0.0005  0.6221
15164TIP3   OH266982   6.459   1.753  16.199 -0.5756  0.1128  0.0987
15164TIP3    H166983   6.546   1.785  16.174 -0.3024  0.1343  1.0496
15164TIP3    H266984   6.399   1.822  16.170 -0.3819 -0.3002 -1.3601
15165TIP3   OH266985   3.942   3.716   3.186  0.8760 -0.3912  0.1976
15165TIP3    H166986   4.018   3.682   3.140  0.3480  1.1269 -1.9316
15165TIP3    H266987   3.970   3.801   3.220 -0.0223  0.5611 -1.3040
15166TIP3   OH266988   3.751   2.770  12.631 -0.0461  0.0059  0.2717
15166TIP3    H166989   3.783   2.794  12.718  1.2696 -2.4298  0.5337
15166TIP3    H266990   3.754   2.674  12.629  0.1620 -0.0154 -2.5285
15167TIP3   OH266991   4.745   3.835   3.798 -0.5460  0.2433 -0.2304
15167TIP3    H166992   4.678   3.896   3.768  1.2704  2.4167 -0.1209
15167TIP3    H266993   4.697   3.772   3.852 -2.4422  2.0550  0.3397
15168TIP3   OH266994   3.918   5.245  12.664  0.0973  0.1228  0.0984
15168TIP3    H166995   3.835   5.273  12.702 -1.5380 -2.1339 -1.5449
15168TIP3    H266996   3.917   5.276  12.574  1.4715  0.8005  0.2790
15169TIP3   OH266997   0.709   4.863  13.009 -0.1620  1.0339  0.5809
15169TIP3    H166998   0.722   4.897  13.098  1.0562  1.6854  0.1718
15169TIP3    H266999   0.747   4.929  12.952 -0.9116  0.6121 -0.4440
15170TIP3   OH267000   2.266   2.982   4.714  0.1782 -0.5768 -0.2781
15170TIP3    H167001   2.258   3.075   4.695  2.4609 -0.6705 -2.1312
15170TIP3    H267002   2.194   2.941   4.667  0.5803  0.0631 -1.4907
15171TIP3   OH267003   5.242   6.042  14.869 -0.7664  0.2170 -0.4335
15171TIP3    H167004   5.332   6.013  14.880 -0.3674  0.9243 -1.7004
15171TIP3    H267005   5.193   5.961  14.854 -1.1142 -0.7055  4.1236
15172TIP3   OH267006   0.610   2.991   2.550  0.1440  0.2934 -0.3314
15172TIP3    H167007   0.561   2.977   2.631 -0.7467  0.8436 -0.7583
15172TIP3    H267008   0.581   3.077   2.519 -0.4803 -0.4283 -1.8727
15173TIP3   OH267009   5.370   3.503  16.082 -0.5072 -0.4390 -0.3689
15173TIP3    H167010   5.370   3.566  16.010 -1.8408  1.3780  1.1385
15173TIP3    H267011   5.363   3.556  16.161  0.7510 -2.3808  1.1450
15174TIP3   OH267012   1.038   2.753  15.187  0.3649  0.1690  0.0414
15174TIP3    H167013   0.964   2.721  15.136  0.2447 -0.7390  0.7629
15174TIP3    H267014   1.047   2.690  15.259  0.7356  1.2290  0.9513
15175TIP3   OH267015   0.706   0.722   0.621 -0.4629  0.4049  0.1676
15175TIP3    H167016   0.665   0.637   0.638 -0.8127  0.6674  0.6467
15175TIP3    H267017   0.792   0.715   0.662  0.4408 -0.5314 -1.7485
15176TIP3   OH267018   5.096   1.406  13.472  0.0658 -0.1193  0.0935
15176TIP3    H167019   5.017   1.427  13.522 -0.2846 -0.4018 -0.3337
15176TIP3    H267020   5.084   1.451  13.389  0.3299 -0.2046  0.0087
15177TIP3   OH267021   0.627   2.857   4.219 -0.2591 -0.6304 -0.3961
15177TIP3    H167022   0.629   2.786   4.283  3.0135 -0.5237 -0.2268
15177TIP3    H267023   0.633   2.813   4.134  2.0308 -0.6753 -0.2828
15178TIP3   OH267024   3.904   3.822  15.806 -0.1030  0.3111  0.1637
15178TIP3    H167025   3.994   3.790  15.799 -0.6962 -1.4129 -0.1257
15178TIP3    H267026   3.864   3.767  15.874 -1.1250  0.5855 -0.1889
15179TIP3   OH267027   0.026   2.030  15.843  0.6262 -0.1751 -0.1903
15179TIP3    H167028  -0.056   2.038  15.794  0.8689 -0.5584 -0.6641
15179TIP3    H267029   0.058   1.943  15.823  0.6950 -0.3738  0.7245
15180TIP3   OH267030   1.509   0.381   0.619 -0.1459 -0.1552 -0.2009
15180TIP3    H167031   1.456   0.358   0.695  0.3227  0.9548  0.4884
15180TIP3    H267032   1.475   0.466   0.591 -1.1264 -1.0739 -2.0125
15181TIP3   OH267033   2.815   3.916  15.118 -0.0310  0.0388  0.2566
15181TIP3    H167034   2.816   3.851  15.189  0.3967  1.6223  1.7652
15181TIP3    H267035   2.895   3.900  15.069  1.9676  1.6288  2.7773
15182TIP3   OH267036   1.024   3.842  11.155 -0.3425 -0.5167 -0.2005
15182TIP3    H167037   1.020   3.766  11.097 -0.9188  0.5349 -1.5741
15182TIP3    H267038   1.106   3.886  11.133  0.7184 -1.4538  1.5878
15183TIP3   OH267039   1.784   1.185   1.343  0.5632 -0.1547 -0.0032
15183TIP3    H167040   1.780   1.111   1.284 -0.9073 -0.7037  0.7213
15183TIP3    H267041   1.718   1.246   1.310  0.2444 -0.1443  0.6331
15184TIP3   OH267042   2.619   0.855  11.343  0.2697 -0.2009 -0.2351
15184TIP3    H167043   2.712   0.879  11.346  0.4413 -0.8016 -0.5953
15184TIP3    H267044   2.612   0.782  11.405 -0.3513  1.0724  1.2605
15185TIP3   OH267045   3.614   6.675   1.927 -0.5429 -0.3719  0.1313
15185TIP3    H167046   3.535   6.630   1.954  0.2558 -2.3397 -0.6357
15185TIP3    H267047   3.677   6.605   1.908  0.9752  1.0859 -0.5035
15186TIP3   OH267048   3.518   6.539   2.344 -0.0940  0.2083 -0.0216
15186TIP3    H167049   3.457   6.613   2.344  0.4942  0.7029  0.2346
15186TIP3    H267050   3.604   6.579   2.334  0.5191 -0.1887  2.8059
15187TIP3   OH267051   4.248   5.850  12.574 -0.5037  0.2797 -0.0226
15187TIP3    H167052   4.251   5.755  12.577 -4.3225 -0.0066 -0.5315
15187TIP3    H267053   4.286   5.879  12.657 -0.5325 -1.7417  0.7392
15188TIP3   OH267054   4.909   5.046   1.020 -0.3096  0.4731 -0.2818
15188TIP3    H167055   4.952   5.120   1.062  1.4501  0.4203 -1.8830
15188TIP3    H267056   4.942   5.046   0.930 -0.9987 -1.6928 -0.5986
15189TIP3   OH267057   6.763   6.325   4.861 -0.0687  0.0628  0.3637
15189TIP3    H167058   6.837   6.268   4.883  0.4882  1.0630  1.2018
15189TIP3    H267059   6.801   6.391   4.804 -0.4487  0.2360  0.3121
15190TIP3   OH267060   3.487   4.479  17.253 -0.8202  0.2784 -0.0598
15190TIP3    H167061   3.422   4.549  17.257 -2.0075 -0.8050  0.1923
15190TIP3    H267062   3.489   4.453  17.160 -0.7359  0.3185 -0.0694
15191TIP3   OH267063   3.254   1.127  13.542 -0.1924 -0.8261  0.0078
15191TIP3    H167064   3.259   1.108  13.448  2.1068 -2.3490  0.3607
15191TIP3    H267065   3.289   1.216  13.550 -0.3714 -0.6998 -0.5615
15192TIP3   OH267066   6.036   2.679   1.366  0.4336  0.9282 -0.5793
15192TIP3    H167067   6.029   2.667   1.271 -0.0440  0.7307 -0.5208
15192TIP3    H267068   6.051   2.773   1.376  0.0061  1.0254 -0.8264
15193TIP3   OH267069   3.616   3.043  14.919  0.3731  0.4702 -0.6110
15193TIP3    H167070   3.529   3.081  14.913  0.9633  1.8905 -0.4583
15193TIP3    H267071   3.618   3.000  15.004  0.5847  2.4966  0.4581
15194TIP3   OH267072   0.288   0.804   0.903  0.5935  0.5724 -0.3979
15194TIP3    H167073   0.367   0.857   0.913  1.1887 -0.2894 -0.4248
15194TIP3    H267074   0.265   0.778   0.992  1.4228 -0.6994 -0.5287
15195TIP3   OH267075   4.180   0.900   4.500  0.0255 -0.1482 -0.1554
15195TIP3    H167076   4.128   0.945   4.434  0.2307  3.5140  1.8989
15195TIP3    H267077   4.117   0.845   4.546 -0.0595 -3.0851 -3.3579
15196TIP3   OH267078   3.529   0.797   1.646  0.2394 -0.0224  0.5998
15196TIP3    H167079   3.439   0.779   1.619  0.6916 -0.2209 -0.8894
15196TIP3    H267080   3.582   0.750   1.582  1.4462  2.7856 -0.6502
15197TIP3   OH267081   2.883   5.597   6.179 -0.0341 -0.4289  0.1368
15197TIP3    H167082   2.936   5.559   6.248 -1.3446 -0.8370  0.9639
15197TIP3    H267083   2.893   5.692   6.190 -0.6770 -0.4725  1.2931
15198TIP3   OH267084   0.821   4.093  10.276  0.3234 -0.3794 -0.4710
15198TIP3    H167085   0.772   4.094  10.358  0.6809 -1.9284 -0.1952
15198TIP3    H267086   0.774   4.153  10.219 -2.3749 -2.2911 -0.4565
15199TIP3   OH267087   2.810   0.331   3.247  0.3059 -0.5677 -0.0415
15199TIP3    H167088   2.900   0.322   3.276  0.2401  0.8253  0.6604
15199TIP3    H267089   2.759   0.284   3.314  0.3035  1.1143  1.2065
15200TIP3   OH267090   2.788   3.637   0.809  0.4230  0.4773  0.1630
15200TIP3    H167091   2.850   3.579   0.853  1.8843  0.2593 -2.0209
15200TIP3    H267092   2.738   3.579   0.751 -1.7619  0.6861  1.7180
15201TIP3   OH267093   6.119   0.404   3.920 -0.1225 -0.5714 -0.2036
15201TIP3    H167094   6.105   0.494   3.890  2.3229  0.2804  0.8850
15201TIP3    H267095   6.179   0.367   3.855 -1.5144 -1.6473 -0.9265
15202TIP3   OH267096   4.338   1.885   6.055  0.0504 -0.8116 -0.4423
15202TIP3    H167097   4.339   1.977   6.082  0.5334 -1.5374  2.3104
15202TIP3    H267098   4.287   1.841   6.122  2.4647 -2.9822  0.1326
15203TIP3   OH267099   3.356   4.538  15.348  0.5463  0.1070  0.5372
15203TIP3    H167100   3.313   4.581  15.421  1.5706  1.0147  0.6183
15203TIP3    H267101   3.448   4.534  15.372  0.6553 -1.1327  0.0353
15204TIP3   OH267102   1.566   6.577   3.143 -0.5443  0.0800 -0.3657
15204TIP3    H167103   1.544   6.487   3.119 -1.9909  1.1405 -3.6461
15204TIP3    H267104   1.654   6.590   3.107 -0.1955 -0.0951  0.4087
15205TIP3   OH267105   2.357   6.423   6.568 -0.3470  0.6671 -0.3472
15205TIP3    H167106   2.352   6.338   6.524 -1.5539 -0.1323  1.2437
15205TIP3    H267107   2.287   6.474   6.529 -0.8388  0.2689  0.0015
15206TIP3   OH267108   0.594   3.387  15.297  0.4362  0.7392  0.4739
15206TIP3    H167109   0.602   3.482  15.293 -2.4425  1.1114  0.9784
15206TIP3    H267110   0.639   3.362  15.377  2.2686  1.4872 -0.2781
15207TIP3   OH267111   1.130   1.137  15.213 -0.0387 -0.0111 -0.0258
15207TIP3    H167112   1.146   1.046  15.238  0.4694  0.3249  0.9228
15207TIP3    H267113   1.189   1.187  15.269 -0.6052  0.9310 -0.2651
15208TIP3   OH267114   5.673   3.109   6.192  0.2030  0.7328 -0.1563
15208TIP3    H167115   5.593   3.108   6.244 -0.2257  1.4444 -0.7735
15208TIP3    H267116   5.695   3.017   6.180 -0.7726  0.5031 -0.3354
15209TIP3   OH267117   0.078   3.413   6.043  0.1797  0.0094  0.2508
15209TIP3    H167118   0.054   3.353   5.972 -0.3227  0.5221 -0.0226
15209TIP3    H267119   0.168   3.440   6.022  0.0423  0.1409 -0.1837
15210TIP3   OH267120   0.081   0.283  13.094  0.6803 -0.2969 -0.3427
15210TIP3    H167121  -0.002   0.330  13.103  1.0769  0.5466 -0.9533
15210TIP3    H267122   0.146   0.342  13.132  1.2310 -0.2140 -1.3913
15211TIP3   OH267123   0.355   3.600   4.631  0.2566 -0.0599 -0.2236
15211TIP3    H167124   0.273   3.642   4.607 -0.7156 -0.4202  2.1464
15211TIP3    H267125   0.384   3.647   4.710  2.4061  0.1205 -1.0515
15212TIP3   OH267126   4.506   2.705  12.022 -0.1527 -0.8414  0.0299
15212TIP3    H167127   4.514   2.658  12.104 -1.1067  1.1188  1.3432
15212TIP3    H267128   4.566   2.779  12.031  0.0507 -0.8357 -1.2312
15213TIP3   OH267129   4.705   1.384  15.567  0.4338 -0.1458  0.6046
15213TIP3    H167130   4.640   1.441  15.527 -0.9862 -1.7458  0.5322
15213TIP3    H267131   4.736   1.433  15.643 -1.2434  0.4636  0.9372
15214TIP3   OH267132   6.037   0.546   1.048  0.7328 -1.0972  0.1968
15214TIP3    H167133   6.126   0.583   1.052  0.1936  0.3054 -0.1293
15214TIP3    H267134   6.001   0.561   1.135  0.8719 -1.8575  0.3937
15215TIP3   OH267135   3.582   4.430   5.492  0.4362 -0.3464 -0.2203
15215TIP3    H167136   3.590   4.499   5.426  0.1045 -0.4766 -0.3979
15215TIP3    H267137   3.668   4.387   5.492  1.3190  1.2427  1.2150
15216TIP3   OH267138   3.562   1.655   0.214 -0.1194 -0.1023  0.2408
15216TIP3    H167139   3.633   1.712   0.186 -0.2426 -0.6996 -1.3797
15216TIP3    H267140   3.536   1.689   0.300  1.0703  1.0807  0.1542
15217TIP3   OH267141   0.034   0.227   0.213 -0.3477 -0.1633 -0.1012
15217TIP3    H167142  -0.015   0.309   0.218  0.8071  0.5289  0.3342
15217TIP3    H267143   0.121   0.254   0.183 -0.1411 -1.3158 -0.5548
15218TIP3   OH267144   4.073   3.447  13.645 -0.3063  0.7537 -0.2110
15218TIP3    H167145   4.005   3.475  13.583 -1.7964  0.8758  1.3797
15218TIP3    H267146   4.079   3.519  13.708  1.6799  0.9453 -0.5566
15219TIP3   OH267147   6.802   1.200   0.341 -0.1076 -0.2714 -0.7745
15219TIP3    H167148   6.869   1.160   0.397 -0.1519  1.7540  0.8042
15219TIP3    H267149   6.727   1.142   0.349 -0.5339  0.5515  2.3271
15220TIP3   OH267150   1.685   6.197  15.667  0.0657  0.4103  0.1498
15220TIP3    H167151   1.689   6.264  15.735 -0.4845  1.7933 -1.1302
15220TIP3    H267152   1.707   6.243  15.586  2.5527 -1.5600 -0.4247
15221TIP3   OH267153   4.469   1.161   5.717  0.7407 -0.3587  0.2512
15221TIP3    H167154   4.419   1.111   5.781  1.2655  0.2407  1.1660
15221TIP3    H267155   4.559   1.129   5.726  0.4523 -1.9453 -1.8941
15222TIP3   OH267156   4.165   2.699   5.017  0.2489 -0.3910  0.1894
15222TIP3    H167157   4.246   2.751   5.021 -0.6017  0.9852  0.3503
15222TIP3    H267158   4.120   2.719   5.099 -0.8535 -0.1010 -0.4631
15223TIP3   OH267159   3.300   6.529   3.791 -0.2988 -0.0306  0.1801
15223TIP3    H167160   3.319   6.575   3.709 -1.7537 -0.6367 -0.5383
15223TIP3    H267161   3.381   6.483   3.812  0.4758  1.0884 -0.2604
15224TIP3   OH267162   1.366   4.063  12.919  0.0107  0.1967  0.0602
15224TIP3    H167163   1.380   4.066  12.825  0.7253 -0.2972  0.1389
15224TIP3    H267164   1.399   3.977  12.945  0.7592  0.7179  0.9027
15225TIP3   OH267165   3.198   0.752  13.854  0.1473 -0.3455 -0.0665
15225TIP3    H167166   3.164   0.735  13.766 -0.2810 -0.0319  0.0354
15225TIP3    H267167   3.145   0.824  13.887  0.4907 -0.2770  0.3461
15226TIP3   OH267168   6.115   3.263   1.008  0.4569  0.2816  0.2672
15226TIP3    H167169   6.056   3.194   1.037 -0.7822  1.3649  0.4195
15226TIP3    H267170   6.159   3.292   1.088 -1.4675  1.8770  0.8484
15227TIP3   OH267171   3.799   0.833   1.740  0.0158 -0.6910 -0.0281
15227TIP3    H167172   3.753   0.762   1.695  0.8762 -1.3416  0.0766
15227TIP3    H267173   3.820   0.896   1.672 -1.7109  0.0174  0.0502
15228TIP3   OH267174   6.321   6.086   3.972 -0.2923 -0.7283 -0.3565
15228TIP3    H167175   6.325   6.179   3.996  1.2549 -0.0699 -2.7633
15228TIP3    H267176   6.358   6.041   4.048  0.6310  0.8123  0.1702
15229TIP3   OH267177   6.270   2.953   5.012  0.3808 -0.2496 -0.5199
15229TIP3    H167178   6.308   3.038   5.034  1.8799 -1.1849  0.7945
15229TIP3    H267179   6.300   2.935   4.923 -0.6507  0.9421 -1.1229
15230TIP3   OH267180   1.072   1.072  14.461  0.4371 -0.1017  0.1302
15230TIP3    H167181   1.156   1.042  14.426  1.0550  0.5368  1.0040
15230TIP3    H267182   1.027   1.109  14.386  0.4266 -1.5298 -0.5918
15231TIP3   OH267183   6.263   4.191   1.057 -0.4774 -0.4538 -0.1074
15231TIP3    H167184   6.315   4.172   1.135 -0.3666  0.1271 -0.0344
15231TIP3    H267185   6.328   4.210   0.989 -0.5712  1.9313  0.4024
15232TIP3   OH267186   4.592   0.676  14.586 -0.5458  0.2537 -0.6408
15232TIP3    H167187   4.591   0.601  14.526  0.1800  0.0884 -0.4656
15232TIP3    H267188   4.592   0.637  14.673 -2.2190  0.5054 -0.5117
15233TIP3   OH267189   1.972   2.291  16.622 -0.1501 -0.1241  0.3754
15233TIP3    H167190   1.992   2.278  16.715 -0.2228 -1.9350  0.1740
15233TIP3    H267191   1.876   2.281  16.617 -0.1329 -0.1458  0.0867
15234TIP3   OH267192   2.798   1.830   0.123  0.2098  0.0208  0.1143
15234TIP3    H167193   2.808   1.827   0.218  0.4189  0.7948  0.1235
15234TIP3    H267194   2.836   1.915   0.098 -0.1992 -0.0068 -0.6127
15235TIP3   OH267195   5.412   6.586  15.581  0.7299  0.6936  0.1690
15235TIP3    H167196   5.317   6.597  15.584  0.7987  1.1243  1.0530
15235TIP3    H267197   5.443   6.654  15.522  0.6300  1.7037  1.2358
15236TIP3   OH267198   4.771   3.550  15.892  0.0133  0.4226  0.5351
15236TIP3    H167199   4.828   3.478  15.915  0.2500  0.6382  0.6242
15236TIP3    H267200   4.722   3.569  15.972 -0.8227 -0.3419  0.2158
15237TIP3   OH267201   2.801   2.490  12.485  0.5571  0.5457 -0.2031
15237TIP3    H167202   2.801   2.584  12.503 -0.1128  0.9463 -2.0525
15237TIP3    H267203   2.773   2.450  12.568 -0.1385  2.0421  0.3343
15238TIP3   OH267204   0.202   3.434  13.242 -0.0080 -0.1045 -0.0605
15238TIP3    H167205   0.233   3.377  13.312 -0.7744 -0.3624  0.0805
15238TIP3    H267206   0.124   3.476  13.278  0.4685  0.9493 -0.2082
15239TIP3   OH267207   3.137   2.906  11.979 -0.1350 -0.4806  0.0224
15239TIP3    H167208   3.092   2.876  11.899 -0.2250 -0.2955  0.0044
15239TIP3    H267209   3.078   2.880  12.050  0.7347 -2.2208  0.1744
15240TIP3   OH267210   4.464   3.337  15.866  0.1573 -0.1193 -0.2116
15240TIP3    H167211   4.506   3.262  15.909 -0.2134  0.2113  0.7689
15240TIP3    H267212   4.373   3.310  15.856 -0.3540  0.7615  1.6092
15241TIP3   OH267213   4.099   1.513   2.210 -0.0959  0.0332  0.0625
15241TIP3    H167214   4.090   1.598   2.167  0.3742 -0.7453 -1.6619
15241TIP3    H267215   4.010   1.482   2.222 -0.2627 -0.9601 -3.0112
15242TIP3   OH267216   2.195   0.560   2.841 -0.6301  0.6877  0.2804
15242TIP3    H167217   2.268   0.620   2.856 -0.9642  0.8952  1.1671
15242TIP3    H267218   2.234   0.473   2.846 -0.0806  0.8051 -1.3482
15243TIP3   OH267219   3.459   2.044  12.761 -0.4710  0.9450 -1.1597
15243TIP3    H167220   3.396   1.998  12.817 -0.0372 -1.2426 -2.3606
15243TIP3    H267221   3.455   2.135  12.790 -1.6721  0.2486  1.0902
15244TIP3   OH267222   0.421   2.403  10.620 -0.3231  0.4056  0.0429
15244TIP3    H167223   0.349   2.340  10.607  0.7687 -0.6976 -0.9204
15244TIP3    H267224   0.397   2.477  10.564 -1.0342  0.3446  0.2485
15245TIP3   OH267225   3.909   6.342   3.987  0.2705 -0.0081  0.6823
15245TIP3    H167226   3.904   6.249   4.012 -4.8513 -0.5798 -1.3044
15245TIP3    H267227   3.860   6.388   4.054 -0.9562  0.5431 -0.5424
15246TIP3   OH267228   3.353   4.304   2.381 -0.3645  0.5954  0.1108
15246TIP3    H167229   3.395   4.289   2.297  0.5632  0.2310  0.6316
15246TIP3    H267230   3.271   4.255   2.377  1.4737 -2.8388  0.8882
15247TIP3   OH267231   5.689   1.262  12.539  0.0687  0.0301  0.0134
15247TIP3    H167232   5.701   1.274  12.445 -0.5282 -1.1905 -0.2491
15247TIP3    H267233   5.750   1.192  12.563 -0.0760  0.0478  0.4513
15248TIP3   OH267234   2.291   5.759   5.189  0.0097  0.0512 -0.1274
15248TIP3    H167235   2.204   5.788   5.217 -0.3932 -0.5693 -0.7187
15248TIP3    H267236   2.275   5.705   5.112  0.9652  0.3056 -0.5140
15249TIP3   OH267237   0.718   3.670  15.056  0.0064 -0.5483 -0.1503
15249TIP3    H167238   0.779   3.603  15.090  1.6414  0.2030 -1.4468
15249TIP3    H267239   0.715   3.653  14.962 -1.3462 -0.1782 -0.1847
15250TIP3   OH267240   2.345   6.378   4.271  0.2930 -0.0612 -0.7190
15250TIP3    H167241   2.292   6.426   4.208  1.8819  0.7922 -1.4481
15250TIP3    H267242   2.281   6.334   4.327 -1.2098  2.0794 -0.6484
15251TIP3   OH267243   1.010   2.218   0.923 -0.1270 -0.1877  0.2404
15251TIP3    H167244   0.935   2.160   0.913 -0.7803  0.6820 -0.0590
15251TIP3    H267245   1.072   2.190   0.856 -1.0106  0.3348 -0.8214
15252TIP3   OH267246   2.464   6.085  16.330 -0.2499  0.6345 -0.1052
15252TIP3    H167247   2.517   6.019  16.375 -0.0520  0.8284 -0.0512
15252TIP3    H267248   2.482   6.167  16.377 -1.0735  0.5926  0.3121
15253TIP3   OH267249   0.891   0.348   3.756  0.6524 -0.1263  0.7163
15253TIP3    H167250   0.956   0.416   3.772  0.3852 -0.1183  1.8405
15253TIP3    H267251   0.807   0.393   3.761  0.4991 -0.4209  0.8326
15254TIP3   OH267252   5.780   4.485   1.761  0.1513  0.2756  0.2690
15254TIP3    H167253   5.712   4.474   1.694 -0.6709 -1.2834  1.2906
15254TIP3    H267254   5.862   4.490   1.711 -0.4016 -1.1363 -0.8764
15255TIP3   OH267255   3.190   2.212  14.488  0.2838 -0.3495 -0.1998
15255TIP3    H167256   3.098   2.237  14.480  0.4457 -0.2128 -2.0300
15255TIP3    H267257   3.228   2.234  14.403  2.0167 -0.4070  0.5248
15256TIP3   OH267258   3.996   5.748   0.396  0.0979 -0.1150 -0.0377
15256TIP3    H167259   4.036   5.738   0.482  0.3878  1.5182  0.0540
15256TIP3    H267260   3.983   5.658   0.365  0.7795 -0.7196  1.3288
15257TIP3   OH267261   2.275   0.530  14.635 -0.3167  0.3593 -0.0005
15257TIP3    H167262   2.238   0.567  14.715  0.2071 -1.3728  1.0826
15257TIP3    H267263   2.369   0.548  14.641  0.3102 -2.7761  1.5897
15258TIP3   OH267264   0.904   4.370   6.010 -0.0826 -0.2989 -0.5333
15258TIP3    H167265   0.857   4.451   5.986 -0.8591 -0.6005 -0.0565
15258TIP3    H267266   0.927   4.331   5.926  0.4659  0.5035 -0.7762
15259TIP3   OH267267   5.335   0.072  15.446  0.2263 -0.1375 -0.1018
15259TIP3    H167268   5.315   0.161  15.474  0.1141 -1.0245  2.9943
15259TIP3    H267269   5.273   0.055  15.375 -1.1314  1.5829  0.5953
15260TIP3   OH267270   4.324   1.119   0.467  0.7328 -0.2630  0.3475
15260TIP3    H167271   4.316   1.028   0.440  2.0951 -0.1804 -0.4224
15260TIP3    H267272   4.396   1.119   0.531  1.5406  0.4286 -0.5411
15261TIP3   OH267273   2.979   1.275   0.673 -0.0135  0.0569 -0.3474
15261TIP3    H167274   2.901   1.271   0.617  0.8126 -0.0534 -1.5240
15261TIP3    H267275   2.972   1.360   0.717 -1.2632 -0.3449  0.2888
15262TIP3   OH267276   5.412   2.745   3.200  0.3181  0.1609  0.6511
15262TIP3    H167277   5.389   2.738   3.293  0.1774  0.2965  0.6248
15262TIP3    H267278   5.496   2.699   3.194 -1.3252 -3.1130  0.2016
15263TIP3   OH267279   3.416   0.650  14.376 -0.7090  0.2948  0.2623
15263TIP3    H167280   3.499   0.695  14.393 -0.7064 -0.2268  1.8045
15263TIP3    H267281   3.362   0.714  14.330  0.8375  0.3556 -1.5956
15264TIP3   OH267282   4.720   3.968   4.304 -0.1652 -0.3466 -0.3068
15264TIP3    H167283   4.812   3.996   4.306 -0.5428  0.9561  0.0815
15264TIP3    H267284   4.679   4.018   4.375 -1.2276 -0.6995 -0.6572
15265TIP3   OH267285   3.547   4.645   4.609  0.2176 -0.3154  0.2975
15265TIP3    H167286   3.520   4.716   4.666 -3.9457 -0.4605 -1.1788
15265TIP3    H267287   3.557   4.569   4.667 -0.8483  0.2233  1.2120
15266TIP3   OH267288   3.116   4.674   1.755  0.5631 -0.2315 -0.3955
15266TIP3    H167289   3.024   4.653   1.772  0.4768 -0.2846 -0.9081
15266TIP3    H267290   3.165   4.613   1.809  0.2968  0.3458  0.5139
15267TIP3   OH267291   4.995   5.754  15.355  0.5534 -0.4311  0.2396
15267TIP3    H167292   5.044   5.728  15.433  3.2346  0.4484 -1.0450
15267TIP3    H267293   5.000   5.850  15.354  0.2503 -0.4159 -0.8245
15268TIP3   OH267294   4.858   5.552  16.962 -0.0457 -0.3218  0.4566
15268TIP3    H167295   4.770   5.556  16.998 -0.8893  0.8875 -1.5495
15268TIP3    H267296   4.861   5.467  16.917 -0.5998  0.0985 -0.3958
15269TIP3   OH267297   6.768   1.845   2.329  0.1967 -0.2940 -0.6435
15269TIP3    H167298   6.739   1.936   2.335 -1.4020 -0.8344  0.1999
15269TIP3    H267299   6.787   1.832   2.236  2.8322  1.5534 -0.4982
15270TIP3   OH267300   0.814   3.135   3.097 -0.0464  0.0269 -0.0998
15270TIP3    H167301   0.766   3.171   3.172 -0.4522  0.4436 -0.5528
15270TIP3    H267302   0.855   3.056   3.131 -0.3778  0.1109  0.5163
15271TIP3   OH267303   4.847   2.489  13.748  0.2114 -0.4012  0.4600
15271TIP3    H167304   4.762   2.465  13.786  0.3591 -0.8503  0.5170
15271TIP3    H267305   4.838   2.468  13.655 -0.2939  1.0935  0.1544
15272TIP3   OH267306   0.217   3.164  13.995  0.1523  0.2664  1.0008
15272TIP3    H167307   0.207   3.119  14.079  0.5046 -0.6640  0.5581
15272TIP3    H267308   0.275   3.237  14.013  0.3267 -0.0053  1.5471
15273TIP3   OH267309   3.399   5.592  14.972  0.2034 -0.8268  0.5386
15273TIP3    H167310   3.492   5.614  14.980 -0.3739  1.9482  0.7989
15273TIP3    H267311   3.367   5.592  15.063 -0.3185 -0.2172  0.3655
15274TIP3   OH267312   4.108   5.710   1.693  0.4398 -0.2587 -0.2007
15274TIP3    H167313   4.064   5.735   1.612  0.1098  0.0852  0.0806
15274TIP3    H267314   4.198   5.693   1.668  0.4861  0.4543 -0.5292
15275TIP3   OH267315   3.789   1.217   6.281 -0.0186  0.0759 -0.0258
15275TIP3    H167316   3.747   1.203   6.366  0.1784  2.5627  0.5432
15275TIP3    H267317   3.878   1.184   6.292 -0.5911 -1.6084 -0.0183
15276TIP3   OH267318   4.333   0.214   6.267 -0.3955 -0.3037  0.0057
15276TIP3    H167319   4.339   0.310   6.269 -1.8096 -0.1241 -2.0651
15276TIP3    H267320   4.419   0.186   6.235  0.0631  0.2425  0.7204
15277TIP3   OH267321   3.324   4.972  16.601  0.1345 -0.3712  0.1828
15277TIP3    H167322   3.347   4.888  16.641 -0.6931 -0.7230 -0.0600
15277TIP3    H267323   3.269   4.948  16.526  0.3415  0.3600 -0.2072
15278TIP3   OH267324   2.685   2.752   3.602 -0.2515 -0.2192  0.5426
15278TIP3    H167325   2.604   2.710   3.631  1.0581 -2.6248  1.0232
15278TIP3    H267326   2.675   2.760   3.507 -1.1169 -0.3006  0.6162
15279TIP3   OH267327   0.763   5.920   2.515  0.0549 -0.0968  0.3787
15279TIP3    H167328   0.751   5.967   2.432 -0.2826  0.5034  0.7596
15279TIP3    H267329   0.675   5.893   2.540 -0.0360  0.9136  1.2211
15280TIP3   OH267330   4.867   2.416   2.214  0.1350 -0.5017  0.0627
15280TIP3    H167331   4.876   2.382   2.125  0.3703 -0.4442  0.0654
15280TIP3    H267332   4.908   2.502   2.211  0.5164 -0.6739  0.3316
15281TIP3   OH267333   4.831   3.932  14.124 -0.6338  0.4003 -0.6747
15281TIP3    H167334   4.887   3.999  14.163 -1.1667  0.7535 -0.4960
15281TIP3    H267335   4.742   3.959  14.148 -0.9359  0.3311 -1.6900
15282TIP3   OH267336   3.760   2.453  11.495  0.0177 -0.3374 -0.1847
15282TIP3    H167337   3.790   2.502  11.572 -0.8732 -1.5380  0.9775
15282TIP3    H267338   3.683   2.499  11.465  1.0628  0.8477 -1.1511
15283TIP3   OH267339   2.309   4.670  14.916  0.4771 -0.1851  0.0957
15283TIP3    H167340   2.343   4.581  14.907  1.2990  0.1905 -0.6079
15283TIP3    H267341   2.367   4.724  14.862  1.1449  1.0577  1.9417
15284TIP3   OH267342   5.447   0.857  17.181 -0.1691 -0.0886 -0.4568
15284TIP3    H167343   5.519   0.921  17.182  0.1925 -0.4996 -0.2181
15284TIP3    H267344   5.488   0.775  17.206 -0.7946 -0.2593  0.0182
15285TIP3   OH267345   4.511   2.336   0.124  0.6968  0.7864  0.3264
15285TIP3    H167346   4.444   2.397   0.154  0.7114  0.6197  0.7015
15285TIP3    H267347   4.578   2.337   0.192 -0.3848 -1.4003  1.5270
15286TIP3   OH267348   5.211   2.054   0.303 -0.0993 -0.6350 -0.1526
15286TIP3    H167349   5.213   1.998   0.380 -3.6656 -1.2263 -0.3298
15286TIP3    H267350   5.189   2.141   0.337  0.6865 -0.3691 -0.3069
15287TIP3   OH267351   5.337   1.059  16.077  0.3346  0.0444  0.4113
15287TIP3    H167352   5.251   1.018  16.079 -0.1935  0.9371 -1.3931
15287TIP3    H267353   5.351   1.090  16.166 -0.9267 -0.6734  0.8854
15288TIP3   OH267354   0.672   3.457   2.935 -0.2264  0.3705  0.1113
15288TIP3    H167355   0.626   3.377   2.909  1.4784 -0.9938  1.0430
15288TIP3    H267356   0.699   3.497   2.852  0.5325 -1.0694 -0.3869
15289TIP3   OH267357   1.465   4.540   0.629 -0.1296 -0.6682 -0.0442
15289TIP3    H167358   1.508   4.502   0.552 -0.7140  0.6660 -1.0607
15289TIP3    H267359   1.498   4.487   0.702 -0.3486 -2.6485 -1.2829
15290TIP3   OH267360   0.654   2.699  11.685 -0.0636 -0.4038  0.5550
15290TIP3    H167361   0.667   2.604  11.686 -1.9264 -0.6898  0.7493
15290TIP3    H267362   0.560   2.711  11.671 -0.2850  1.3603  2.8136
15291TIP3   OH267363   0.743   0.805  11.456  0.2056  0.4466  0.2769
15291TIP3    H167364   0.772   0.838  11.541  0.6149 -0.3189  0.4444
15291TIP3    H267365   0.745   0.710  11.465 -1.9021  0.3406  0.1299
15292TIP3   OH267366   4.819   1.863   2.945  0.1633 -0.1070 -0.3262
15292TIP3    H167367   4.776   1.907   2.871 -1.1202  0.1664  0.5691
15292TIP3    H267368   4.832   1.932   3.010  0.4462 -0.5429  0.0868
15293TIP3   OH267369   0.278   0.010  15.313  0.5326  0.0198 -0.2900
15293TIP3    H167370   0.216  -0.063  15.319 -0.4661  0.6428 -2.1006
15293TIP3    H267371   0.238   0.069  15.249  1.9152  1.5653  0.2232
15294TIP3   OH267372   0.220   4.423  14.368 -0.4391 -0.3343  0.8024
15294TIP3    H167373   0.180   4.360  14.428 -0.0795 -0.1357  1.2545
15294TIP3    H267374   0.147   4.472  14.331 -0.7511 -1.2610  0.1672
15295TIP3   OH267375   2.435   4.219  14.179  0.3295  0.3209  0.3662
15295TIP3    H167376   2.478   4.182  14.256 -0.8940 -0.0628  0.8866
15295TIP3    H267377   2.401   4.304  14.208  0.3833  0.4454  0.0714
15296TIP3   OH267378   3.490   0.747   1.310  0.1901 -0.1469 -0.1398
15296TIP3    H167379   3.519   0.660   1.334 -1.3963 -1.1577 -1.6246
15296TIP3    H267380   3.449   0.736   1.224  0.0162  2.0779 -0.4122
15297TIP3   OH267381   3.147   5.174   6.826  0.2164  0.1517 -0.4274
15297TIP3    H167382   3.226   5.165   6.772  1.3358  1.2273  0.9307
15297TIP3    H267383   3.145   5.095   6.879 -0.1937 -0.3302 -1.1398
15298TIP3   OH267384   4.509   3.175   1.155 -0.4396 -0.0363 -0.2859
15298TIP3    H167385   4.533   3.213   1.240 -0.8240 -1.7067  0.6101
15298TIP3    H267386   4.438   3.231   1.124  1.1646  1.9414 -0.6064
15299TIP3   OH267387   3.044   5.804   3.921  0.2060 -0.7043  0.6753
15299TIP3    H167388   3.096   5.812   3.841  2.5701 -1.8765  1.9562
15299TIP3    H267389   3.055   5.888   3.966 -0.0735 -0.4934  0.3498
15300TIP3   OH267390   5.373   2.056   1.829 -0.2307 -0.2405  0.7113
15300TIP3    H167391   5.319   2.033   1.753 -1.4603 -2.9813  2.2959
15300TIP3    H267392   5.463   2.054   1.796 -0.8221  1.2542 -1.2206
15301TIP3   OH267393   5.382   4.583  17.070 -0.1029 -0.0729 -1.0389
15301TIP3    H167394   5.439   4.507  17.064 -0.2559 -0.1784 -1.1550
15301TIP3    H267395   5.304   4.552  17.116  0.1817  0.2197 -0.3597
15302TIP3   OH267396   6.598   0.022   2.581 -0.2195 -0.6013 -0.0392
15302TIP3    H167397   6.645   0.067   2.652 -2.5529 -0.5703  1.5826
15302TIP3    H267398   6.637   0.058   2.501  2.5702 -0.6934  1.1432
15303TIP3   OH267399   3.316   2.988   2.161  0.1587 -0.6493 -0.0678
15303TIP3    H167400   3.274   2.921   2.107 -0.5851  1.1989 -1.9382
15303TIP3    H267401   3.371   3.037   2.101 -1.6997  2.3287  0.4055
15304TIP3   OH267402   3.008   3.997  17.168  0.2269 -0.4642 -0.3279
15304TIP3    H167403   2.917   3.971  17.156 -0.3425  1.5822 -0.9577
15304TIP3    H267404   3.058   3.941  17.110 -0.5117 -2.1216  0.5780
15305TIP3   OH267405   4.582   3.999  12.539  0.0288 -0.3227 -0.0233
15305TIP3    H167406   4.662   4.039  12.506 -0.7403  1.3648  0.0743
15305TIP3    H267407   4.517   4.012  12.470 -1.0071  1.2812  1.1755
15306TIP3   OH267408   6.536   5.827   4.579 -0.0580 -0.2299  0.7476
15306TIP3    H167409   6.513   5.763   4.646  0.4163  0.1136  1.2512
15306TIP3    H267410   6.515   5.912   4.618  0.2632 -0.0226  0.4795
15307TIP3   OH267411   3.261   3.071  11.660 -0.2633 -0.2026 -0.0036
15307TIP3    H167412   3.213   2.996  11.696  0.2978  0.1060  1.4388
15307TIP3    H267413   3.255   3.059  11.565 -1.7397 -1.0857  0.1554
15308TIP3   OH267414   3.470   4.067   0.926 -0.5761  0.0381 -1.0051
15308TIP3    H167415   3.381   4.034   0.920 -0.4829 -0.3094 -0.4964
15308TIP3    H267416   3.502   4.038   1.011 -0.7050  2.0072 -0.2425
15309TIP3   OH267417   5.059   2.229  11.431 -0.9795 -0.0310  0.1189
15309TIP3    H167418   5.133   2.207  11.487 -0.2705 -1.7114 -1.3837
15309TIP3    H267419   4.982   2.217  11.486 -0.3232 -1.9386  0.6794
15310TIP3   OH267420   3.962   2.974  14.884  0.4533 -0.2786  0.0945
15310TIP3    H167421   3.908   2.943  14.811 -0.0323  0.0682  0.3002
15310TIP3    H267422   3.902   2.977  14.958  0.7459  0.1621  0.3162
15311TIP3   OH267423   1.471   1.965  15.326 -0.1128  0.4758  0.3279
15311TIP3    H167424   1.566   1.955  15.317 -0.1559 -1.2054  1.4266
15311TIP3    H267425   1.439   1.877  15.343 -1.5011  1.4194  3.1461
15312TIP3   OH267426   5.542   2.848  15.885 -0.3592 -0.3253 -0.3585
15312TIP3    H167427   5.471   2.884  15.937 -0.0132 -1.0447  0.6372
15312TIP3    H267428   5.567   2.919  15.826 -0.8778  0.4405  0.3269
15313TIP3   OH267429   0.727   0.138  16.011  0.0694  0.5222  0.6221
15313TIP3    H167430   0.688   0.089  16.084 -0.3479 -1.9693 -1.1436
15313TIP3    H267431   0.821   0.120  16.019  0.3955  2.4671  1.9995
15314TIP3   OH267432   0.956   0.643   3.426  0.6448  0.5065  0.1568
15314TIP3    H167433   0.878   0.623   3.477  0.2731  1.0136 -0.2037
15314TIP3    H267434   0.987   0.558   3.394 -0.1728  0.3688 -0.2895
15315TIP3   OH267435   4.712   5.605   3.050  0.1823  0.3133  0.3037
15315TIP3    H167436   4.787   5.638   2.999 -0.1412  1.2355  0.4052
15315TIP3    H267437   4.744   5.523   3.088  1.5271  1.2197  1.2345
15316TIP3   OH267438   3.057   1.924  15.668 -0.3827 -0.0528  0.8689
15316TIP3    H167439   3.023   1.857  15.608 -0.5142  0.0512  0.8260
15316TIP3    H267440   2.979   1.969  15.700 -0.3659 -0.5733  1.6791
15317TIP3   OH267441   3.647   6.012   5.259  0.1408  0.4490 -0.1668
15317TIP3    H167442   3.685   5.977   5.179  0.4927  1.9244 -0.6763
15317TIP3    H267443   3.553   5.995   5.250  0.3872 -1.1513  0.0379
15318TIP3   OH267444   2.556   5.241  11.914 -0.8593 -0.7593 -1.0172
15318TIP3    H167445   2.601   5.271  11.993 -1.1395 -0.0518 -1.1173
15318TIP3    H267446   2.474   5.203  11.946 -2.0957  1.6565 -1.0818
15319TIP3   OH267447   2.967   6.814  14.708 -0.1446  0.6930  0.0851
15319TIP3    H167448   3.045   6.870  14.714  0.4413 -0.2674  4.5232
15319TIP3    H267449   2.901   6.858  14.762 -0.9646 -0.9625  0.5049
15320TIP3   OH267450   1.259   4.310   5.380  0.6970  0.0257 -0.1373
15320TIP3    H167451   1.329   4.349   5.327 -0.6512  1.7229 -0.7847
15320TIP3    H267452   1.302   4.243   5.432  2.7125  0.7002 -0.8481
15321TIP3   OH267453   6.359   2.642  14.548  0.1830  0.1268 -1.0439
15321TIP3    H167454   6.324   2.610  14.631  2.5819  0.5167  0.1967
15321TIP3    H267455   6.285   2.686  14.507 -1.4320 -1.2519  0.2270
15322TIP3   OH267456   0.004   5.768  11.250  0.0005  0.7807 -0.0574
15322TIP3    H167457  -0.016   5.804  11.337 -0.1692 -1.7231  1.0326
15322TIP3    H267458  -0.041   5.826  11.189 -0.7269  2.0328  1.5924
15323TIP3   OH267459   1.103   0.017   4.545  0.1642 -0.1802 -0.2544
15323TIP3    H167460   1.034  -0.030   4.593 -0.2145  0.8365  0.2186
15323TIP3    H267461   1.141  -0.050   4.487 -1.6162 -0.6413 -0.9791
15324TIP3   OH267462   3.560   2.260   0.815  0.4618  0.4741  0.7752
15324TIP3    H167463   3.613   2.277   0.737 -0.1470  0.3896  0.3352
15324TIP3    H267464   3.510   2.341   0.827 -1.2374 -0.3298 -0.3639
15325TIP3   OH267465   1.666   2.223  16.635 -0.2243  0.6261  0.5723
15325TIP3    H167466   1.644   2.139  16.595  2.2233 -0.7170  1.8094
15325TIP3    H267467   1.631   2.217  16.724 -4.8919  3.2611 -0.7265
15326TIP3   OH267468   0.790   1.248   3.599  0.7317 -0.3125  0.0107
15326TIP3    H167469   0.697   1.226   3.599  0.6927 -0.2495  1.6312
15326TIP3    H267470   0.828   1.191   3.533 -0.5958  0.3615 -1.3937
15327TIP3   OH267471   6.698   1.125  13.375  0.0034 -0.4634  0.0477
15327TIP3    H167472   6.680   1.215  13.400 -2.9667 -0.1420 -2.5706
15327TIP3    H267473   6.786   1.127  13.339  0.1123  1.3432  0.3142
15328TIP3   OH267474   6.802   5.885  14.031 -0.4121  0.4129  0.4872
15328TIP3    H167475   6.790   5.980  14.034  0.1952  0.4842  0.8040
15328TIP3    H267476   6.868   5.872  13.963  0.9662  0.3868  1.7707
15329TIP3   OH267477   5.410   5.509  11.240 -0.3240 -0.3049 -0.0206
15329TIP3    H167478   5.451   5.483  11.158 -0.8855  1.1994 -0.8227
15329TIP3    H267479   5.480   5.546  11.293  0.3771 -2.7647  0.9183
15330TIP3   OH267480   0.306   4.393  14.748 -0.3945  0.2230  0.0103
15330TIP3    H167481   0.332   4.381  14.656  1.4446 -1.2163  0.6545
15330TIP3    H267482   0.361   4.465  14.779  0.4063 -0.5622  0.4650
15331TIP3   OH267483   5.586   3.481  15.049 -0.2366  0.8952 -0.2406
15331TIP3    H167484   5.632   3.533  15.115 -1.2496  0.2316  1.0196
15331TIP3    H267485   5.494   3.490  15.071 -0.5152 -0.2664 -0.8846
15332TIP3   OH267486   4.629   2.100   6.164 -0.0425  0.5774  0.5882
15332TIP3    H167487   4.650   2.082   6.256 -0.7259 -0.5575  0.5369
15332TIP3    H267488   4.546   2.148   6.167  1.2271  2.8998  0.6659
15333TIP3   OH267489   1.563   1.572  15.997 -0.3959  0.3853 -0.7478
15333TIP3    H167490   1.585   1.511  16.067 -1.1442  0.0575 -0.7855
15333TIP3    H267491   1.646   1.615  15.975  0.1239 -0.5638 -0.6768
15334TIP3   OH267492   2.439   6.715   4.389  0.1937 -0.3011 -0.1461
15334TIP3    H167493   2.496   6.647   4.426  0.2493 -0.0019  0.3229
15334TIP3    H267494   2.360   6.713   4.443  1.1715  1.6719  1.4642
15335TIP3   OH267495   5.681   5.510   6.192  0.5648  0.6606  0.1825
15335TIP3    H167496   5.696   5.469   6.277  1.9973  0.7742  0.0160
15335TIP3    H267497   5.753   5.479   6.137  1.2109  2.6650 -0.1995
15336TIP3   OH267498   0.946   6.156  13.111 -0.2694  0.4966 -0.1684
15336TIP3    H167499   0.922   6.087  13.173 -2.5928 -0.0614 -1.5579
15336TIP3    H267500   1.032   6.130  13.078 -1.0316 -1.6861 -0.5678
15337TIP3   OH267501   3.150   4.733  12.095  0.9750  0.2229 -0.4118
15337TIP3    H167502   3.073   4.748  12.151  0.5240  2.1378 -1.4267
15337TIP3    H267503   3.124   4.661  12.037 -0.3589  1.2654 -1.1724
15338TIP3   OH267504   1.621   1.030  13.410  0.3650  0.4028 -0.0048
15338TIP3    H167505   1.699   0.994  13.453 -0.2033  0.4578  1.1251
15338TIP3    H267506   1.553   1.025  13.477 -0.4879  0.7918 -0.8205
15339TIP3   OH267507   1.261   3.554   3.938 -0.4969 -0.0082 -0.0449
15339TIP3    H167508   1.243   3.502   4.016  0.8496  1.2058  1.1273
15339TIP3    H267509   1.312   3.496   3.881  2.4473  0.4357  1.9459
15340TIP3   OH267510   6.361   4.882  15.201  0.0059 -0.3277 -0.2467
15340TIP3    H167511   6.421   4.955  15.212  1.3188 -1.2098 -1.2969
15340TIP3    H267512   6.344   4.878  15.106 -0.0484 -1.3723 -0.2079
15341TIP3   OH267513   3.119   4.553   3.843 -0.1983 -0.0830 -0.7986
15341TIP3    H167514   3.162   4.638   3.842  0.7299 -0.4926  0.5203
15341TIP3    H267515   3.035   4.570   3.886 -0.0757  0.2066 -0.6665
15342TIP3   OH267516   4.937   1.006  13.397 -0.9184  0.5842 -0.5435
15342TIP3    H167517   4.927   1.033  13.488 -1.1231  1.6970 -0.8771
15342TIP3    H267518   4.872   1.058  13.349 -0.7441  0.0926 -1.3388
15343TIP3   OH267519   1.007   5.387  15.378 -0.1196  0.1130 -0.0438
15343TIP3    H167520   1.082   5.389  15.318  0.1885 -2.2115  0.1706
15343TIP3    H267521   0.957   5.466  15.356  0.5663 -0.0545 -2.5905
15344TIP3   OH267522   1.711   3.979   3.091  0.7060  0.2924  0.3879
15344TIP3    H167523   1.748   4.027   3.017 -0.1146  0.1864 -0.1054
15344TIP3    H267524   1.777   3.913   3.113 -0.1862 -1.6295 -2.1455
15345TIP3   OH267525   2.794   6.759  12.556 -0.2333 -0.6780  0.0831
15345TIP3    H167526   2.823   6.678  12.514 -0.5210 -1.3114  1.0626
15345TIP3    H267527   2.774   6.733  12.646  2.5181  1.0619  1.3157
15346TIP3   OH267528   1.403   2.495   0.044 -0.3325 -0.0841 -0.5569
15346TIP3    H167529   1.468   2.505  -0.026  1.3144 -0.2798  0.8822
15346TIP3    H267530   1.424   2.564   0.107 -2.3047  0.6191 -0.5812
15347TIP3   OH267531   3.947   0.667   2.876  0.4738 -0.2246  0.5460
15347TIP3    H167532   3.931   0.633   2.788  2.3399  0.2125 -0.0045
15347TIP3    H267533   3.934   0.592   2.934 -1.6281 -0.3216  0.0304
15348TIP3   OH267534   5.951   2.047  16.579  0.3507  1.1339 -0.0887
15348TIP3    H167535   5.977   1.956  16.562 -0.4513  0.7989  0.4371
15348TIP3    H267536   5.857   2.043  16.593 -0.0878  2.3582 -2.1990
15349TIP3   OH267537   6.711   5.961   6.214 -0.0266  0.0986  0.4410
15349TIP3    H167538   6.629   5.968   6.166  0.3292  1.0528 -0.0679
15349TIP3    H267539   6.756   6.043   6.196  0.3836  0.2374  1.9457
15350TIP3   OH267540   1.934   2.898  14.255  0.3175 -0.8135  0.6056
15350TIP3    H167541   1.861   2.880  14.315 -0.3469  1.7306  0.6831
15350TIP3    H267542   1.983   2.968  14.298  0.8109 -0.1011 -1.0476
15351TIP3   OH267543   4.752   6.795   2.507  0.0341  0.3354  0.6101
15351TIP3    H167544   4.663   6.823   2.528 -0.9372 -1.7467 -0.3982
15351TIP3    H267545   4.797   6.789   2.592 -1.7305 -1.4226  1.4953
15352TIP3   OH267546   6.211   1.698   1.909 -0.4655 -0.2308 -0.0856
15352TIP3    H167547   6.173   1.783   1.928 -1.3667 -0.8191  0.8174
15352TIP3    H267548   6.170   1.672   1.826  2.2179  1.5823 -2.1859
15353TIP3   OH267549   3.341   2.054  11.492 -0.2049  0.3133  0.1756
15353TIP3    H167550   3.274   2.079  11.429 -0.8941 -0.4653  0.5839
15353TIP3    H267551   3.419   2.102  11.463 -0.9303  1.2757 -0.2738
15354TIP3   OH267552   5.070   6.044  12.268  0.7755  0.2866  0.1087
15354TIP3    H167553   5.161   6.040  12.239  0.8109 -1.0286  0.3647
15354TIP3    H267554   5.064   5.981  12.339  0.1977  2.0023  1.6477
15355TIP3   OH267555   1.925   5.107   1.307 -0.2432  0.8100  0.0274
15355TIP3    H167556   1.941   5.032   1.249 -0.7842  0.5783  0.1701
15355TIP3    H267557   1.842   5.143   1.277 -2.0570 -1.0491  2.3894
15356TIP3   OH267558   5.027   6.279   6.726  0.3568  0.0337 -0.5140
15356TIP3    H167559   5.032   6.362   6.679 -2.7396  0.1662 -0.8311
15356TIP3    H267560   4.969   6.225   6.673  0.8142 -1.6741  0.6299
15357TIP3   OH267561   2.007   3.717   4.331 -0.1958  0.3329 -0.2171
15357TIP3    H167562   1.920   3.708   4.291 -0.6370  0.2263  0.7388
15357TIP3    H267563   2.047   3.790   4.283 -1.0203  0.7354 -0.3249
15358TIP3   OH267564   6.475   0.675   2.062  0.1242 -0.2422  0.1821
15358TIP3    H167565   6.459   0.769   2.052 -1.3076 -0.4228  0.5208
15358TIP3    H267566   6.439   0.636   1.982  0.0043 -0.5648  0.3899
15359TIP3   OH267567   3.660   1.029   2.454  0.0247 -0.1176 -0.2473
15359TIP3    H167568   3.586   1.010   2.397 -1.0231  0.7882  0.7581
15359TIP3    H267569   3.721   0.956   2.440 -1.3415 -1.2347 -0.6128
15360TIP3   OH267570   0.751   4.934   0.806 -0.0265  0.4769  0.3667
15360TIP3    H167571   0.723   4.849   0.839 -1.7373  1.4715  1.5894
15360TIP3    H267572   0.703   4.946   0.724 -0.3994  0.6009  0.6020
15361TIP3   OH267573   5.841   3.923   3.285 -0.0680  0.7070  0.0514
15361TIP3    H167574   5.797   3.997   3.244  1.5089  1.8812  0.3717
15361TIP3    H267575   5.771   3.875   3.330 -1.5295  0.4837 -2.3161
15362TIP3   OH267576   2.997   6.207   3.195 -0.4439  0.3526 -0.4698
15362TIP3    H167577   3.090   6.205   3.171 -0.4927 -1.6689 -0.6593
15362TIP3    H267578   2.956   6.145   3.135 -1.6607  0.0616  0.6210
15363TIP3   OH267579   5.823   5.585   2.483 -0.0292 -0.0080 -0.6339
15363TIP3    H167580   5.867   5.530   2.418 -0.6729 -0.8229 -0.4050
15363TIP3    H267581   5.738   5.542   2.497  0.5093 -0.4910  1.5273
15364TIP3   OH267582   5.066   2.176  16.364  0.0545 -0.5156 -0.0199
15364TIP3    H167583   5.048   2.180  16.458 -0.0637  0.6184 -0.0713
15364TIP3    H267584   5.161   2.185  16.356 -0.0391  0.5960 -0.0451
15365TIP3   OH267585   0.068   0.955  13.002  0.0443 -0.0179  0.4799
15365TIP3    H167586   0.057   0.999  13.086 -1.0730 -2.4348  1.6694
15365TIP3    H267587  -0.011   0.979  12.952  0.6484  1.3104  0.1066
15366TIP3   OH267588   4.031   6.474  12.850 -0.9530 -1.0444  0.1731
15366TIP3    H167589   4.055   6.390  12.888 -0.7912 -0.6426  0.9799
15366TIP3    H267590   3.976   6.451  12.775  1.2811 -1.9467 -1.2724
15367TIP3   OH267591   0.791   0.410  15.526  0.5524 -0.6574 -0.1845
15367TIP3    H167592   0.743   0.481  15.483 -1.0111 -0.4401  1.7740
15367TIP3    H267593   0.861   0.455  15.573  0.9704 -0.6779 -0.7740
15368TIP3   OH267594   5.372   0.260  16.119 -0.2357  0.7979 -0.3803
15368TIP3    H167595   5.395   0.337  16.171  0.8752 -0.2175  0.6738
15368TIP3    H267596   5.451   0.240  16.069  0.0949 -0.6739  0.6751
15369TIP3   OH267597   0.125   2.380   4.076  0.1399  0.0903  0.2456
15369TIP3    H167598   0.044   2.366   4.126  0.4705  1.4686  1.2014
15369TIP3    H267599   0.151   2.469   4.097  0.9470  0.2914 -1.4806
15370TIP3   OH267600   4.350   4.193   0.447 -0.1406 -0.1253 -0.2675
15370TIP3    H167601   4.437   4.160   0.426 -0.8784 -1.7425 -0.9978
15370TIP3    H267602   4.335   4.262   0.383  0.0760 -0.8088 -1.0829
15371TIP3   OH267603   3.703   2.373  14.883 -0.2901 -1.0737  0.2983
15371TIP3    H167604   3.745   2.394  14.967 -1.2020  0.5614  0.3787
15371TIP3    H267605   3.613   2.350  14.907 -0.3220 -1.4159 -0.1538
15372TIP3   OH267606   5.696   5.170   2.681  0.1687  0.2987  0.4470
15372TIP3    H167607   5.618   5.137   2.724  0.2623 -0.2789  0.1785
15372TIP3    H267608   5.764   5.168   2.749 -0.1681  1.3455  0.8489
15373TIP3   OH267609   0.299   1.401  12.962 -0.0917 -0.0275 -0.1024
15373TIP3    H167610   0.215   1.444  12.979  0.3435  0.8195 -0.0129
15373TIP3    H267611   0.338   1.388  13.048  0.5945  1.1253 -0.2100
15374TIP3   OH267612   5.801   6.052  16.992 -0.0144  0.0173  0.1352
15374TIP3    H167613   5.749   6.052  17.073  0.9249 -0.6799  0.7679
15374TIP3    H267614   5.885   6.013  17.018  0.2614 -0.3344 -1.2181
15375TIP3   OH267615   1.042   1.400  15.498 -0.0894 -0.2266  0.5951
15375TIP3    H167616   0.989   1.353  15.433  0.1045 -1.2958  1.1815
15375TIP3    H267617   1.078   1.331  15.554  0.8732  0.5740  1.0014
15376TIP3   OH267618   3.545   1.637   2.642 -0.4498 -0.0569 -0.0682
15376TIP3    H167619   3.615   1.680   2.592 -1.5162  2.1920  0.2386
15376TIP3    H267620   3.583   1.625   2.729  0.5686 -1.7388 -0.6897
15377TIP3   OH267621   0.419   5.302  14.320 -0.1195 -0.0075  0.9794
15377TIP3    H167622   0.472   5.255  14.383 -0.2152 -0.2934  0.8512
15377TIP3    H267623   0.398   5.236  14.253  0.3532  0.4019  0.4213
15378TIP3   OH267624   0.732   5.083  12.840 -0.2942 -0.4392 -0.3237
15378TIP3    H167625   0.672   5.151  12.808 -3.0923 -1.9647  1.2391
15378TIP3    H267626   0.719   5.010  12.779  1.0356 -0.3543 -0.7314
15379TIP3   OH267627   5.009   3.123  15.273 -0.6059  0.3978 -0.3535
15379TIP3    H167628   4.999   3.029  15.256 -0.0020  0.3749 -0.6232
15379TIP3    H267629   4.931   3.147  15.322 -1.2668 -0.0339 -1.1706
15380TIP3   OH267630   4.435   3.607  15.863  0.5206 -0.0378 -0.4439
15380TIP3    H167631   4.479   3.522  15.855  0.4187  0.0029 -1.7724
15380TIP3    H267632   4.462   3.641  15.948  1.2156 -1.0426 -0.2518
15381TIP3   OH267633   0.240   4.171   0.555 -0.3185 -0.6335  0.6361
15381TIP3    H167634   0.298   4.135   0.488 -0.1850 -0.5019  0.6797
15381TIP3    H267635   0.200   4.094   0.597 -1.0677 -0.6951 -0.1754
15382TIP3   OH267636   3.490   3.878  10.910 -0.1500 -0.7757 -0.0512
15382TIP3    H167637   3.415   3.822  10.927  0.5714 -1.8379 -0.2696
15382TIP3    H267638   3.492   3.889  10.815 -0.6771  0.1850  0.0404
15383TIP3   OH267639   1.713   6.541   4.391  0.4773 -0.7134  0.3774
15383TIP3    H167640   1.748   6.471   4.336 -1.7790 -1.2962 -0.4416
15383TIP3    H267641   1.701   6.501   4.477  1.9286 -0.4337  0.7440
15384TIP3   OH267642   2.629   0.492  11.247  0.1149  0.1818  0.5612
15384TIP3    H167643   2.544   0.502  11.206  1.1750  1.3238 -1.5077
15384TIP3    H267644   2.682   0.447  11.182  0.7004 -2.1123  2.4703
15385TIP3   OH267645   1.714   2.164   1.287 -0.3539 -0.3079  0.1244
15385TIP3    H167646   1.729   2.255   1.262 -1.7331 -0.1480 -0.1568
15385TIP3    H267647   1.643   2.134   1.231 -1.7148 -0.7456  1.9693
15386TIP3   OH267648   1.035   6.071   0.525 -0.1763  0.0041  0.6531
15386TIP3    H167649   0.971   6.091   0.594 -0.6392  1.1899 -0.0887
15386TIP3    H267650   1.047   5.976   0.531 -2.3331 -0.3305  0.5512
15387TIP3   OH267651   1.917   1.164   3.631 -0.6522  0.1409  0.6740
15387TIP3    H167652   1.951   1.095   3.573 -0.7034  0.2580  0.5040
15387TIP3    H267653   1.878   1.228   3.571 -1.6584 -0.2488  0.8842
15388TIP3   OH267654   4.239   3.835  13.234 -0.2400 -0.3260 -0.8035
15388TIP3    H167655   4.332   3.819  13.218  0.0895 -1.3028  1.5558
15388TIP3    H267656   4.232   3.930  13.242  0.6794 -0.2716 -0.4583
15389TIP3   OH267657   2.146   6.106   3.145  0.1666  0.6420 -0.4213
15389TIP3    H167658   2.102   6.153   3.217 -0.9610 -0.3327 -0.4442
15389TIP3    H267659   2.130   6.160   3.068 -0.6363  0.5279 -0.3462
15390TIP3   OH267660   3.112   4.120   3.756  0.6303  0.1030  0.0983
15390TIP3    H167661   3.148   4.196   3.711  0.5861  0.4180  0.5909
15390TIP3    H267662   3.116   4.142   3.849  0.8310 -0.5891  0.2615
15391TIP3   OH267663   0.905   2.421   5.932  0.0897  0.1536  0.0096
15391TIP3    H167664   0.905   2.367   5.853  0.4123 -0.8506  0.6884
15391TIP3    H267665   0.850   2.374   5.994  1.1632  0.0948  0.9461
15392TIP3   OH267666   4.453   2.752   2.822  0.6974 -0.8097 -0.0205
15392TIP3    H167667   4.525   2.705   2.780  1.5610  0.3877  0.0878
15392TIP3    H267668   4.494   2.801   2.892 -0.0448  0.7168 -0.6148
15393TIP3   OH267669   3.814   5.231   3.976 -0.2661 -0.0698 -0.0756
15393TIP3    H167670   3.809   5.136   3.984  0.4325 -0.1315 -0.2670
15393TIP3    H267671   3.723   5.259   3.964 -0.3590 -0.8720 -1.5787
15394TIP3   OH267672   5.544   5.319   5.334 -0.5598 -0.1148  0.0629
15394TIP3    H167673   5.614   5.256   5.351  0.9877  1.2157 -1.0218
15394TIP3    H267674   5.509   5.339   5.420  0.8863 -0.3090  0.7378
15395TIP3   OH267675   5.151   4.607  12.058  0.6868 -0.4993 -0.1004
15395TIP3    H167676   5.226   4.631  12.002 -0.7008  2.2430 -0.9859
15395TIP3    H267677   5.085   4.576  11.996  0.4818 -1.2518  0.4904
15396TIP3   OH267678   5.461   0.844  16.296 -0.7244 -0.9277 -0.3359
15396TIP3    H167679   5.466   0.939  16.300 -0.8111 -0.9651  1.8222
15396TIP3    H267680   5.547   0.814  16.327 -0.0894 -1.6004 -2.5611
15397TIP3   OH267681   0.241   1.706   2.253 -0.0347  0.3201 -0.2991
15397TIP3    H167682   0.191   1.632   2.219  1.6474 -0.0309 -2.2149
15397TIP3    H267683   0.178   1.758   2.303 -1.5033 -1.7918  0.1471
15398TIP3   OH267684   4.676   0.072   6.390  0.6157 -0.0599  0.2044
15398TIP3    H167685   4.668   0.167   6.392 -3.0521 -0.2421  0.3598
15398TIP3    H267686   4.662   0.049   6.298  1.9156 -0.4894  0.0881
15399TIP3   OH267687   4.141   2.671   0.861  0.0195  0.0953  0.3217
15399TIP3    H167688   4.160   2.759   0.830 -2.4976  1.0652  1.2843
15399TIP3    H267689   4.115   2.622   0.783 -1.8141  1.1976  0.1918
15400TIP3   OH267690   0.120   2.583  11.736  0.2367 -0.3193 -0.2765
15400TIP3    H167691   0.054   2.633  11.689  0.4193 -0.1525 -0.3584
15400TIP3    H267692   0.105   2.602  11.828 -0.3736 -0.9541 -0.2353
15401TIP3   OH267693   4.393   5.187   5.848 -0.3768 -0.2073 -0.4683
15401TIP3    H167694   4.375   5.281   5.841 -0.1610 -0.1483 -0.2490
15401TIP3    H267695   4.323   5.154   5.905 -0.1713 -0.0932 -0.1472
15402TIP3   OH267696   3.477   5.406   5.568 -0.0965 -0.4343  0.2860
15402TIP3    H167697   3.396   5.360   5.590  0.9290 -2.6958 -0.3199
15402TIP3    H267698   3.514   5.356   5.495  1.0840  1.4660 -0.4838
15403TIP3   OH267699   5.027   5.449   2.428 -0.0280 -0.1438 -0.1931
15403TIP3    H167700   5.106   5.462   2.376 -0.3992  1.6525 -0.3740
15403TIP3    H267701   5.050   5.483   2.515 -0.6226  0.4669 -0.2719
15404TIP3   OH267702   6.516   1.574  14.588  0.2345 -0.0435  0.6487
15404TIP3    H167703   6.553   1.613  14.667 -0.7510  0.3640  0.9167
15404TIP3    H267704   6.544   1.634  14.518  1.7964 -0.8393  0.5455
15405TIP3   OH267705   4.494   1.644   3.346 -0.4295 -0.3980 -0.7520
15405TIP3    H167706   4.406   1.621   3.314 -0.5518  1.1901 -1.6951
15405TIP3    H267707   4.524   1.712   3.285  0.7166  0.3896  0.6248
15406TIP3   OH267708   4.646   0.292  16.516  0.4020 -0.4386  0.4629
15406TIP3    H167709   4.690   0.212  16.487  2.4213  0.6753  0.2922
15406TIP3    H267710   4.695   0.319  16.594 -0.3131  0.5675  0.5775
15407TIP3   OH267711   4.276   5.367   0.738 -0.0794  0.0628 -0.0798
15407TIP3    H167712   4.183   5.349   0.725 -0.2130 -0.1923  1.0978
15407TIP3    H267713   4.297   5.324   0.821  1.0737  0.1813 -0.2923
15408TIP3   OH267714   1.800   4.643  15.151  0.5629  0.2556 -0.1837
15408TIP3    H167715   1.840   4.568  15.108  1.6594  0.6187  0.1803
15408TIP3    H267716   1.708   4.618  15.163  0.4810 -0.2689 -1.7554
15409TIP3   OH267717   2.520   3.028   3.930  0.1543 -0.3696 -0.0116
15409TIP3    H167718   2.602   2.998   3.969  0.3717 -0.6346 -0.6533
15409TIP3    H267719   2.474   3.073   4.001  1.6334  1.3647 -0.0851
15410TIP3   OH267720   3.287   2.474  14.311 -0.3295 -0.7504  0.2179
15410TIP3    H167721   3.216   2.468  14.247 -0.3674  1.1108  0.0237
15410TIP3    H267722   3.367   2.460  14.260 -0.3870  0.3026 -0.1925
15411TIP3   OH267723   1.997   2.349   5.377  0.1033 -0.1164 -0.5592
15411TIP3    H167724   2.031   2.424   5.427  2.0896 -1.7774  0.7079
15411TIP3    H267725   1.931   2.311   5.435 -0.7291  0.4540 -1.1026
15412TIP3   OH267726   0.590   1.457   6.178  0.1265  0.5997 -0.2584
15412TIP3    H167727   0.605   1.532   6.236 -0.6704  0.9810 -0.5145
15412TIP3    H267728   0.542   1.394   6.231  1.5543 -0.1126  0.2127
15413TIP3   OH267729   0.058   4.923   0.615 -0.8585 -0.2862 -0.3378
15413TIP3    H167730   0.002   4.922   0.693 -0.0891  0.0191  0.2275
15413TIP3    H267731   0.015   4.985   0.556 -0.2045  1.3191  0.7989
15414TIP3   OH267732   2.245   4.101   3.972 -0.5746  0.2550  0.5465
15414TIP3    H167733   2.224   4.194   3.959 -2.5140 -0.2141  0.0624
15414TIP3    H267734   2.252   4.065   3.884  0.2178 -0.0828  0.7314
15415TIP3   OH267735   4.600   1.472   1.864 -0.2924 -0.0129  0.3823
15415TIP3    H167736   4.664   1.409   1.897  0.0920 -0.6517 -1.4507
15415TIP3    H267737   4.516   1.425   1.866  0.0641 -0.8115 -1.3988
15416TIP3   OH267738   3.097   1.121   1.264 -0.5158  0.6102  0.2517
15416TIP3    H167739   3.184   1.084   1.247 -0.1978  1.4249  0.0988
15416TIP3    H267740   3.037   1.047   1.253  0.2670 -0.2907  1.6688
15417TIP3   OH267741   3.701   0.995   3.115  0.3952 -0.9659 -0.4194
15417TIP3    H167742   3.676   1.081   3.082  0.3950 -1.1670 -0.9519
15417TIP3    H267743   3.689   0.936   3.041  0.1803 -1.4670  0.0075
15418TIP3   OH267744   0.070   1.539   1.697  0.4848  0.6045 -0.6393
15418TIP3    H167745   0.015   1.557   1.773  0.7313  1.6747 -0.6930
15418TIP3    H267746   0.095   1.447   1.706  0.4920  0.7154  0.5551
15419TIP3   OH267747   1.792   2.112  16.165 -0.6972  0.2823  0.4781
15419TIP3    H167748   1.706   2.127  16.204 -0.3370  0.2789  1.2840
15419TIP3    H267749   1.852   2.108  16.239  0.3178  2.3289 -0.1664
15420TIP3   OH267750   2.372   2.220   1.415 -0.4633 -0.2939  0.4276
15420TIP3    H167751   2.326   2.261   1.341  1.2251  0.8972 -0.0314
15420TIP3    H267752   2.319   2.242   1.491 -0.7417  0.9817 -0.0940
15421TIP3   OH267753   1.323   6.673   1.023 -0.1583 -0.0357  0.0286
15421TIP3    H167754   1.392   6.648   0.961  1.5036  2.7561  0.5880
15421TIP3    H267755   1.264   6.729   0.972 -0.7714 -0.5471  0.1491
15422TIP3   OH267756   1.014   5.497  14.894  0.3353 -0.0932 -0.1065
15422TIP3    H167757   1.087   5.481  14.952  1.1645 -2.1568 -1.5805
15422TIP3    H267758   1.040   5.573  14.841  0.7688  0.0660  0.3385
15423TIP3   OH267759   4.881   0.180   4.869 -0.3531  0.0314  0.1139
15423TIP3    H167760   4.960   0.214   4.910  0.1768 -0.2843 -0.6058
15423TIP3    H267761   4.873   0.229   4.787  0.3278 -1.3889 -0.8549
15424TIP3   OH267762   6.539   2.298   1.075 -0.7383  0.4438  0.6330
15424TIP3    H167763   6.465   2.351   1.104 -0.9150 -0.6758  2.3798
15424TIP3    H267764   6.502   2.212   1.057 -0.2528  0.5344 -0.9820
15425TIP3   OH267765   0.739   5.693  13.197 -0.4161 -0.2443 -0.3902
15425TIP3    H167766   0.752   5.696  13.102  2.0814 -1.2104 -0.1626
15425TIP3    H267767   0.662   5.638  13.209 -0.5797 -0.3715 -1.8635
15426TIP3   OH267768   5.526   3.192   5.786  0.5814 -0.6239  0.3514
15426TIP3    H167769   5.451   3.212   5.842  0.4666 -2.6743  1.0041
15426TIP3    H267770   5.522   3.098   5.773  1.0031 -0.3074 -2.6035
15427TIP3   OH267771   5.920   0.925  14.567  0.2963 -0.5135 -0.3211
15427TIP3    H167772   5.862   0.914  14.642 -1.3094 -1.2273 -1.6042
15427TIP3    H267773   6.002   0.957  14.604 -0.8601  0.4024  1.5786
15428TIP3   OH267774   3.286   5.092  14.242  0.1769 -0.1485  0.1653
15428TIP3    H167775   3.326   5.079  14.157 -1.6522 -0.2413 -0.7392
15428TIP3    H267776   3.359   5.112  14.301  1.6393 -1.4700 -1.1088
15429TIP3   OH267777   6.795   5.119  15.526 -0.1541  0.0410 -0.5549
15429TIP3    H167778   6.878   5.123  15.479 -0.3123 -1.4843 -0.9878
15429TIP3    H267779   6.796   5.035  15.571 -1.0893  0.3884  0.1613
15430TIP3   OH267780   2.771   3.840  14.331 -0.2675 -0.3761 -0.6050
15430TIP3    H167781   2.803   3.921  14.370  1.1902 -2.2301  2.4560
15430TIP3    H267782   2.704   3.868  14.269 -0.2982  3.1135  0.7669
15431TIP3   OH267783   4.896   4.162  11.250  0.2851 -0.4358  0.1271
15431TIP3    H167784   4.920   4.077  11.212 -0.5315 -0.4839 -0.2984
15431TIP3    H267785   4.879   4.143  11.343 -0.4285 -0.8440 -0.0842
15432TIP3   OH267786   3.134   5.379  11.526 -0.0810 -0.2333 -0.0018
15432TIP3    H167787   3.086   5.394  11.444 -0.6295  0.3637  0.4175
15432TIP3    H267788   3.099   5.445  11.587 -1.0575 -1.8496  1.2838
15433TIP3   OH267789   4.973   5.590  14.507 -0.4638 -0.3688 -0.1201
15433TIP3    H167790   5.058   5.633  14.514  0.1068 -1.1670 -1.7435
15433TIP3    H267791   4.969   5.557  14.417 -3.3077  1.3004 -0.7245
15434TIP3   OH267792   4.651   5.676   1.210  0.4859 -0.5174  0.1202
15434TIP3    H167793   4.631   5.712   1.296 -0.0969 -0.3404 -0.0833
15434TIP3    H267794   4.724   5.729   1.178 -0.2077  0.3391 -0.0758
15435TIP3   OH267795   0.935   2.815   6.096  0.3457 -0.1905  0.1734
15435TIP3    H167796   0.875   2.856   6.157  0.2701 -0.5911  0.3697
15435TIP3    H267797   0.883   2.801   6.017  0.9924  2.3152 -0.8086
15436TIP3   OH267798   0.607   1.201  15.568  0.0940  0.5184  0.1297
15436TIP3    H167799   0.549   1.157  15.506  0.4807  2.1811 -1.5310
15436TIP3    H267800   0.570   1.289  15.577  0.7968  0.7176  1.2602
15437TIP3   OH267801   0.303   4.835   2.276 -0.2827  0.2485  0.0355
15437TIP3    H167802   0.282   4.907   2.216  0.8631  0.8496  0.3274
15437TIP3    H267803   0.221   4.820   2.324 -0.6702  1.0343 -0.3543
15438TIP3   OH267804   1.944   4.459   3.411  0.1834 -0.0383 -0.0394
15438TIP3    H167805   1.933   4.392   3.344 -1.5073  0.5330 -0.3800
15438TIP3    H267806   1.880   4.437   3.478 -1.6600  2.0987 -0.9415
15439TIP3   OH267807   2.299   2.236   0.619 -0.0685  0.0059  0.0824
15439TIP3    H167808   2.353   2.314   0.631  2.0754 -1.4582  0.5201
15439TIP3    H267809   2.248   2.254   0.540  0.7195  1.6621 -0.0836
15440TIP3   OH267810   5.104   2.995   3.089  0.0864  0.0361  0.4331
15440TIP3    H167811   5.200   2.991   3.081 -0.0165 -1.0903 -0.6535
15440TIP3    H267812   5.077   2.903   3.098 -0.6770  0.4834  4.6393
15441TIP3   OH267813   2.746   0.141   0.884  0.2012  0.2213 -0.0334
15441TIP3    H167814   2.798   0.084   0.941  0.3190  1.3879  1.0807
15441TIP3    H267815   2.756   0.103   0.797  1.2713 -0.7461  0.4755
15442TIP3   OH267816   0.311   1.130  14.790  0.0232  0.3816 -0.4323
15442TIP3    H167817   0.403   1.126  14.766 -0.1332 -0.4465 -0.9049
15442TIP3    H267818   0.267   1.072  14.729 -0.8429  0.9099 -0.3254
15443TIP3   OH267819   0.143   0.069  15.763 -0.2111 -0.5404  0.0378
15443TIP3    H167820   0.145  -0.026  15.773  0.2894 -0.4897  0.5256
15443TIP3    H267821   0.062   0.096  15.806  0.3963 -0.6161  1.2633
15444TIP3   OH267822   2.909   4.248  17.165  0.7512  0.7493  0.3194
15444TIP3    H167823   2.941   4.158  17.176  1.1559  0.8948  0.3292
15444TIP3    H267824   2.923   4.288  17.251 -0.8113  0.3897  0.7753
15445TIP3   OH267825   5.976   0.224  13.714 -0.4949 -0.4484  0.3991
15445TIP3    H167826   5.978   0.138  13.671 -1.0632  0.2660 -1.1472
15445TIP3    H267827   6.061   0.230  13.758  0.5467 -0.8779 -1.4115
15446TIP3   OH267828   3.937   0.457  12.177  0.1956 -0.5639  0.0452
15446TIP3    H167829   3.842   0.444  12.178  0.1298 -0.1311 -0.2783
15446TIP3    H267830   3.948   0.552  12.176  0.5912 -0.5698 -2.0808
15447TIP3   OH267831   4.299   3.103   1.746 -0.2907 -0.0276 -0.1320
15447TIP3    H167832   4.347   3.113   1.665  1.0898 -1.8322  0.4134
15447TIP3    H267833   4.289   3.192   1.779 -2.0319  0.8934 -2.8523
15448TIP3   OH267834   3.929   0.687  14.280  0.0740 -0.2586  0.4557
15448TIP3    H167835   3.876   0.759  14.247 -1.4561 -1.7618 -0.5457
15448TIP3    H267836   3.991   0.728  14.340 -2.3943  1.5639  1.9228
15449TIP3   OH267837   6.651   2.453   3.983 -0.1121  1.4771 -0.3720
15449TIP3    H167838   6.565   2.483   4.012 -1.0188  0.0422 -1.4628
15449TIP3    H267839   6.692   2.420   4.063 -1.6106 -0.2032 -0.2381
15450TIP3   OH267840   5.092   2.469   3.050 -0.0324 -0.0610  0.5749
15450TIP3    H167841   5.037   2.439   3.122 -1.0045 -0.6420 -0.3865
15450TIP3    H267842   5.148   2.394   3.028 -0.0111 -0.0158  0.4715
15451TIP3   OH267843   4.264   3.918   2.917  0.2131  0.0489 -0.1955
15451TIP3    H167844   4.358   3.923   2.930  0.5635 -0.4106 -2.1742
15451TIP3    H267845   4.236   3.843   2.969  1.3313 -1.1281 -1.2243
15452TIP3   OH267846   6.387   1.715  11.528 -0.1328 -0.4769 -0.5550
15452TIP3    H167847   6.414   1.704  11.437 -1.3781 -0.5479 -0.9393
15452TIP3    H267848   6.379   1.626  11.561 -1.8864 -0.5743 -1.0948
15453TIP3   OH267849   2.771   4.503   6.073  0.3304  0.2326  0.5898
15453TIP3    H167850   2.761   4.418   6.115  2.7515 -0.1264  0.5991
15453TIP3    H267851   2.756   4.566   6.142  1.4457 -0.2904  1.3421
15454TIP3   OH267852   0.614   3.450  13.467 -0.1407  0.2316 -0.4054
15454TIP3    H167853   0.578   3.530  13.429 -0.8470 -0.0146 -0.2678
15454TIP3    H267854   0.668   3.480  13.540  0.6199  0.6611 -1.1341
15455TIP3   OH267855   2.632   5.542  12.835  0.4950  0.1342 -0.5625
15455TIP3    H167856   2.587   5.532  12.919 -0.9340  0.5642 -1.2450
15455TIP3    H267857   2.624   5.457  12.793  0.7382  0.0725 -0.4819
15456TIP3   OH267858   2.261   1.888  13.728 -0.5724  0.3339 -0.7819
15456TIP3    H167859   2.166   1.875  13.731 -0.6512  0.9312 -0.2031
15456TIP3    H267860   2.285   1.906  13.819 -0.1179  1.5413 -1.1230
15457TIP3   OH267861   2.087   4.248  10.566  0.3171  0.0778 -0.4729
15457TIP3    H167862   2.027   4.316  10.535  0.7305  0.3624 -0.6547
15457TIP3    H267863   2.151   4.238  10.495  0.5522 -0.1439 -0.2322
15458TIP3   OH267864   2.371   5.173  11.567  0.4839  0.5912 -0.4064
15458TIP3    H167865   2.415   5.115  11.629  1.8361  0.2751 -1.6057
15458TIP3    H267866   2.346   5.116  11.494 -0.8104  1.0105 -0.3111
15459TIP3   OH267867   0.102   3.940   2.744  0.6127  0.5650  0.3656
15459TIP3    H167868   0.197   3.935   2.758  0.5893 -0.6788  0.1635
15459TIP3    H267869   0.069   3.855   2.775 -0.2493  0.4125 -0.9286
15460TIP3   OH267870   5.198   2.395   3.507  0.1613 -0.6611  0.4644
15460TIP3    H167871   5.132   2.427   3.569  0.5126 -2.7982  2.0619
15460TIP3    H267872   5.151   2.389   3.424  0.2347  4.3849 -0.2584
15461TIP3   OH267873   5.718   1.113   2.060 -0.6890  0.0386 -0.4619
15461TIP3    H167874   5.745   1.204   2.049 -0.0071 -0.2414 -1.2789
15461TIP3    H267875   5.709   1.080   1.970 -0.8097 -0.7337 -0.1762
15462TIP3   OH267876   5.702   4.766  10.844 -0.3285 -0.6682 -0.6024
15462TIP3    H167877   5.688   4.849  10.889  1.7110 -0.4646 -0.2572
15462TIP3    H267878   5.669   4.781  10.755 -0.4551  0.3358 -0.3944
15463TIP3   OH267879   2.812   3.479  11.540  0.3023 -0.4348  0.6059
15463TIP3    H167880   2.901   3.462  11.573  0.7715 -0.0204 -0.3972
15463TIP3    H267881   2.816   3.453  11.448  0.4436  2.9113 -0.4625
15464TIP3   OH267882   0.335   1.351  14.101 -0.1181 -0.8655  0.0199
15464TIP3    H167883   0.369   1.348  14.011 -0.1930 -0.3081 -0.0299
15464TIP3    H267884   0.248   1.312  14.094 -1.1017  1.2771 -0.6209
15465TIP3   OH267885   4.401   4.667  11.113 -0.5595  0.5622 -0.3043
15465TIP3    H167886   4.472   4.731  11.111  1.3449 -1.4675 -0.6017
15465TIP3    H267887   4.391   4.644  11.205  1.2974 -1.3090 -0.4968
15466TIP3   OH267888   1.575   3.135  13.848  0.5573 -0.2129 -0.0935
15466TIP3    H167889   1.589   3.116  13.941 -2.1765 -0.1016  0.4152
15466TIP3    H267890   1.579   3.050  13.805 -2.5117 -0.9166  0.8314
15467TIP3   OH267891   0.840   1.533   0.936 -0.2037 -0.0501  0.3389
15467TIP3    H167892   0.824   1.442   0.910 -0.0385 -0.4130  1.4616
15467TIP3    H267893   0.764   1.581   0.904 -0.1670 -0.5265 -0.5034
15468TIP3   OH267894   2.645   3.433  11.750 -0.8296 -0.4928 -0.2950
15468TIP3    H167895   2.694   3.491  11.807  0.3480 -1.1342 -0.6354
15468TIP3    H267896   2.703   3.416  11.676 -1.8430 -0.6779 -1.0808
15469TIP3   OH267897   1.543   2.115   0.034  0.1568  0.3522 -0.3082
15469TIP3    H167898   1.561   2.093   0.125 -0.6033  0.9012 -0.0131
15469TIP3    H267899   1.470   2.177   0.038 -0.3593 -0.1669 -1.3286
15470TIP3   OH267900   2.393   6.345  11.401 -0.2749  0.5079 -0.1414
15470TIP3    H167901   2.336   6.354  11.478  0.3561  0.1667  0.3768
15470TIP3    H267902   2.477   6.380  11.429 -0.0679  0.4901 -0.7230
15471TIP3   OH267903   2.159   1.482  13.219  0.1899 -0.0946  0.6527
15471TIP3    H167904   2.071   1.444  13.218  0.8114 -1.5854  0.0533
15471TIP3    H267905   2.217   1.408  13.236  1.2947  0.9953  1.9316
15472TIP3   OH267906   6.476   6.619  12.965  0.2054 -0.8692  0.0219
15472TIP3    H167907   6.563   6.584  12.947 -0.1535 -1.7828  0.0027
15472TIP3    H267908   6.484   6.662  13.049  0.3169 -2.3386  0.8015
15473TIP3   OH267909   6.195   5.649   4.417 -0.2632 -0.4836 -0.4568
15473TIP3    H167910   6.156   5.577   4.367  1.6025 -3.0724  1.5673
15473TIP3    H267911   6.284   5.656   4.384  0.6027 -1.3977  1.5108
15474TIP3   OH267912   2.580   5.069   6.020  0.1338 -0.6154 -0.5443
15474TIP3    H167913   2.511   5.124   5.981  0.2724 -0.7700 -1.0183
15474TIP3    H267914   2.657   5.125   6.020  0.5518 -1.1352 -2.0228
15475TIP3   OH267915   6.331   1.954  11.675  0.3284  0.2335  0.1782
15475TIP3    H167916   6.312   1.863  11.651 -0.0389 -0.1803  1.8678
15475TIP3    H267917   6.426   1.955  11.690  0.2632 -0.0285  0.6577
15476TIP3   OH267918   6.218   2.897  14.094  0.3934  0.2749 -0.1189
15476TIP3    H167919   6.194   2.945  14.173  0.7322 -0.4166  0.4171
15476TIP3    H267920   6.285   2.834  14.123  0.1928 -0.3018 -0.8574
15477TIP3   OH267921   3.467   1.061  17.102  0.3934 -0.2675  0.0149
15477TIP3    H167922   3.392   1.001  17.113 -0.0223  0.4792  1.4669
15477TIP3    H267923   3.496   1.046  17.012 -1.2672 -0.8597 -0.4661
15478TIP3   OH267924   3.060   0.906   0.149 -0.5304 -0.0807 -0.2870
15478TIP3    H167925   3.009   0.868   0.220 -0.4180 -1.2639 -0.8286
15478TIP3    H267926   3.124   0.839   0.126 -1.2159 -0.1336 -2.1811
15479TIP3   OH267927   4.884   3.078   1.222 -0.2266 -0.0246  0.6420
15479TIP3    H167928   4.933   3.155   1.193  1.0867 -1.4008 -0.9874
15479TIP3    H267929   4.949   3.010   1.231 -1.3179 -0.9060  2.3884
15480TIP3   OH267930   6.611   2.227  16.533 -0.8066  0.6011  0.2471
15480TIP3    H167931   6.602   2.279  16.612 -1.1980  0.4045  0.3338
15480TIP3    H267932   6.663   2.151  16.559  0.7724  1.4911 -0.1362
15481TIP3   OH267933   2.460   4.713   1.975 -0.5175  0.0120  0.3996
15481TIP3    H167934   2.475   4.714   1.881  2.7652 -1.1499  0.7573
15481TIP3    H267935   2.517   4.783   2.009 -1.3639  0.1714  1.5563
15482TIP3   OH267936   6.035   3.823  16.299 -0.3450  0.9335 -0.5005
15482TIP3    H167937   6.007   3.853  16.385 -0.4047  0.8870 -0.5030
15482TIP3    H267938   6.125   3.853  16.291  0.1900 -0.3915  0.2044
15483TIP3   OH267939   6.720   4.061   0.752 -0.4151 -0.6436 -0.6975
15483TIP3    H167940   6.757   4.091   0.835 -1.3892 -0.8701 -0.1754
15483TIP3    H267941   6.796   4.030   0.703  0.3304  0.6551 -0.4030
15484TIP3   OH267942   2.954   6.295   1.507  0.3467  0.3989  0.4473
15484TIP3    H167943   2.947   6.290   1.602  0.3658 -0.8757  0.4001
15484TIP3    H267944   3.042   6.263   1.487  0.0254 -0.2115 -0.0415
15485TIP3   OH267945   3.787   2.743   4.810  0.6702  0.2547  0.1610
15485TIP3    H167946   3.860   2.787   4.765 -0.0582  2.4326  0.9860
15485TIP3    H267947   3.827   2.701   4.886  1.4964 -1.2064 -1.0261
15486TIP3   OH267948   4.354   0.005  17.247  0.1811  0.1722 -0.0996
15486TIP3    H167949   4.443  -0.008  17.215 -0.0775  1.0059 -1.2177
15486TIP3    H267950   4.343  -0.061  17.316  1.3483 -0.5439 -0.5756
15487TIP3   OH267951   2.966   1.994   3.368 -0.6809 -0.3268 -0.0472
15487TIP3    H167952   3.051   2.020   3.332 -0.3520  2.5708  2.4227
15487TIP3    H267953   2.902   2.029   3.305 -0.1517 -1.7893 -1.4815
15488TIP3   OH267954   0.295   5.822   1.403 -0.4696 -0.3648 -0.0217
15488TIP3    H167955   0.276   5.908   1.440 -0.4793  0.3302 -1.5665
15488TIP3    H267956   0.216   5.798   1.356 -0.4207 -1.1820  0.2955
15489TIP3   OH267957   1.888   2.111  16.417  1.2155 -0.0494  0.1087
15489TIP3    H167958   1.901   2.176  16.486  0.7577 -0.2669  0.4036
15489TIP3    H267959   1.962   2.050  16.427  1.1286 -0.1036  0.4336
15490TIP3   OH267960   3.966   4.165  13.705 -0.4623 -0.5467 -0.2526
15490TIP3    H167961   3.989   4.191  13.615 -0.3298  0.7937  0.1403
15490TIP3    H267962   3.962   4.248  13.753 -0.8659 -1.2192  0.9077
15491TIP3   OH267963   2.313   6.389   2.402  0.3042 -0.0872 -0.4165
15491TIP3    H167964   2.396   6.431   2.379  1.2385 -0.9338  1.1974
15491TIP3    H267965   2.321   6.371   2.496 -1.8099 -0.0038 -0.1779
15492TIP3   OH267966   5.921   5.388  11.530  0.0832 -0.1755 -0.0684
15492TIP3    H167967   5.920   5.387  11.626  0.9553 -0.7396 -0.0456
15492TIP3    H267968   5.896   5.477  11.507 -1.4118 -0.3704  0.6389
15493TIP3   OH267969   5.150   1.540  15.825 -1.0576 -0.1447 -0.0831
15493TIP3    H167970   5.125   1.555  15.734 -0.2298 -1.0740 -0.4878
15493TIP3    H267971   5.171   1.446  15.828 -2.7936 -0.5525  1.4822
15494TIP3   OH267972   1.487   5.903  14.483  0.2676 -0.1347  0.0938
15494TIP3    H167973   1.512   5.994  14.498 -0.8935  0.3990 -1.0291
15494TIP3    H267974   1.434   5.880  14.560  1.9532 -0.4602  1.2261
15495TIP3   OH267975   4.512   1.514   5.532 -0.1510 -0.2496 -0.3348
15495TIP3    H167976   4.518   1.551   5.444 -1.5724  0.5308 -0.1400
15495TIP3    H267977   4.431   1.462   5.530 -0.9091  0.8222  0.8535
15496TIP3   OH267978   5.389   1.408   1.245  0.3460 -0.0912 -0.3079
15496TIP3    H167979   5.324   1.458   1.196 -1.9241 -1.7403  0.8574
15496TIP3    H267980   5.430   1.352   1.178 -0.6383 -0.2287 -0.8215
15497TIP3   OH267981   1.865   1.518   3.111  0.2581 -0.5235  0.0230
15497TIP3    H167982   1.894   1.492   3.199  1.8733  0.4464 -0.1819
15497TIP3    H267983   1.813   1.596   3.126  2.7044  1.2439  0.0101
15498TIP3   OH267984   4.244   2.770  14.005  0.8159 -0.1953 -0.7054
15498TIP3    H167985   4.259   2.758  13.911 -1.3000  0.0069 -1.1270
15498TIP3    H267986   4.179   2.840  14.009  0.6045 -0.4636  0.9051
15499TIP3   OH267987   4.967   4.267  13.040  0.0244 -0.1527  0.2791
15499TIP3    H167988   5.039   4.324  13.012  0.3008 -1.1982 -1.3415
15499TIP3    H267989   4.899   4.327  13.069  1.4318  0.8834  1.6403
15500TIP3   OH267990   1.968   4.462   1.091 -0.4345  0.2868  0.4641
15500TIP3    H167991   1.915   4.413   1.154  0.4446 -1.8831 -0.4019
15500TIP3    H267992   1.904   4.510   1.038 -1.3223  0.1782  1.4102
15501TIP3   OH267993   2.685   3.634   4.748  0.0461  0.6078 -0.4869
15501TIP3    H167994   2.655   3.603   4.834  0.9373  0.0053 -0.3823
15501TIP3    H267995   2.667   3.561   4.689 -0.5190  1.0027 -0.8163
15502TIP3   OH267996   1.583   0.881   1.461  0.4675  0.4594  0.5605
15502TIP3    H167997   1.676   0.871   1.441  0.6229  0.9529  0.9958
15502TIP3    H267998   1.579   0.962   1.512 -0.0127 -0.3063  1.7880
15503TIP3   OH267999   5.516   6.293   0.691 -0.5439  0.0669  0.1809
15503TIP3    H168000   5.540   6.202   0.708  2.3640  1.0068  1.6503
15503TIP3    H268001   5.496   6.329   0.777  2.9142  1.9161  0.3639
15504TIP3   OH268002   5.713   3.163   2.417 -0.4163  0.3828  0.5948
15504TIP3    H168003   5.658   3.135   2.344 -0.5814  0.3213  0.7404
15504TIP3    H268004   5.769   3.088   2.436  0.3890  0.7699 -0.1709
15505TIP3   OH268005   2.027   1.313  14.034  0.2146 -0.0741  0.0324
15505TIP3    H168006   2.022   1.240  13.972  0.1726 -0.3663  0.3832
15505TIP3    H268007   2.095   1.370  13.998 -0.3350  0.1455 -0.6991
15506TIP3   OH268008   4.628   1.633   2.250  0.3800 -0.2160 -0.3991
15506TIP3    H168009   4.553   1.627   2.191 -0.6882 -2.0649  1.0055
15506TIP3    H268010   4.590   1.663   2.333  1.3032 -0.5004  0.1376
15507TIP3   OH268011   6.237   3.802  14.071  0.5677  0.3145  0.3838
15507TIP3    H168012   6.320   3.791  14.024  0.1939  1.0175 -0.4675
15507TIP3    H268013   6.231   3.896  14.086 -0.7557  0.4688 -0.8684
15508TIP3   OH268014   1.643   4.613   2.340  0.5646 -0.2357  0.3663
15508TIP3    H168015   1.571   4.552   2.355  0.2011  0.2338  0.5508
15508TIP3    H268016   1.720   4.567   2.373  0.3295 -0.6902  0.2876
15509TIP3   OH268017   1.288   0.321   3.875 -0.0524 -0.4064  0.2938
15509TIP3    H168018   1.345   0.322   3.951  0.4930  2.1154 -0.0710
15509TIP3    H268019   1.243   0.405   3.877  0.6760  0.1700 -2.6470
15510TIP3   OH268020   1.530   6.557   1.818  0.0369  0.5110 -0.1403
15510TIP3    H168021   1.570   6.611   1.749 -1.0691  0.2731 -1.0043
15510TIP3    H268022   1.447   6.528   1.780 -0.2500 -0.2567  1.0247
15511TIP3   OH268023   5.728   6.206   1.006  0.1616  0.2061 -0.0604
15511TIP3    H168024   5.809   6.182   0.961 -0.6042 -0.7737 -0.9699
15511TIP3    H268025   5.753   6.278   1.064  1.8803 -0.7004  0.3877
15512TIP3   OH268026   3.087   5.029   4.423 -0.3397 -0.5999 -0.0737
15512TIP3    H168027   3.165   5.060   4.468  0.6863  2.0220 -3.2287
15512TIP3    H268028   3.017   5.089   4.450 -0.3612 -0.6495 -0.0188
15513TIP3   OH268029   4.448   5.756  16.774  0.3891 -0.3581  0.6051
15513TIP3    H168030   4.373   5.738  16.831 -1.2889  2.8917 -0.3286
15513TIP3    H268031   4.455   5.679  16.717 -2.5073 -0.6287  0.4986
15514TIP3   OH268032   3.530   0.247  13.720  0.4276 -0.0443 -0.1549
15514TIP3    H168033   3.548   0.241  13.814  0.4354 -0.4501 -0.1805
15514TIP3    H268034   3.573   0.328  13.692 -2.5589  2.0380  0.8655
15515TIP3   OH268035   1.174   2.636   0.067  0.0375  0.1596  0.6154
15515TIP3    H168036   1.190   2.692   0.143 -0.4264 -1.0613  1.6318
15515TIP3    H268037   1.236   2.564   0.076  0.2481  0.2022 -0.3848
15516TIP3   OH268038   1.905   2.122   4.109 -0.1600 -0.7820  0.3151
15516TIP3    H168039   1.834   2.169   4.153  0.0429 -0.7580  0.6181
15516TIP3    H268040   1.918   2.043   4.161  2.2985  0.7559  2.3029
15517TIP3   OH268041   6.681   3.875  12.563 -0.2796 -0.4324  0.2559
15517TIP3    H168042   6.636   3.940  12.617  0.0243 -0.2042  0.2333
15517TIP3    H268043   6.773   3.880  12.590  0.3491  1.3500 -1.9051
15518TIP3   OH268044   3.062   6.404  14.269  0.5274 -0.4426 -0.2963
15518TIP3    H168045   3.086   6.317  14.300  2.0812 -0.6037 -1.8314
15518TIP3    H268046   2.991   6.431  14.327  1.3747 -1.8841  1.5236
15519TIP3   OH268047   3.589   1.792  12.208 -0.0790 -0.0272  0.1285
15519TIP3    H168048   3.656   1.811  12.273 -0.7962 -0.4482  1.0113
15519TIP3    H268049   3.625   1.719  12.158  0.9624  1.0213 -0.7116
15520TIP3   OH268050   1.981   5.220  13.758 -0.5812 -0.1542 -0.0219
15520TIP3    H168051   1.936   5.304  13.756  2.3051  1.4904 -0.5604
15520TIP3    H268052   1.963   5.181  13.673 -0.1530  0.9625 -0.6473
15521TIP3   OH268053   6.409   1.687   2.148 -0.6436 -0.2766 -0.0337
15521TIP3    H168054   6.347   1.672   2.077 -0.1826 -0.2245 -0.4539
15521TIP3    H268055   6.433   1.779   2.140 -2.3438  0.3748  1.6322
15522TIP3   OH268056   0.689   1.947  16.760 -0.0026 -0.0645 -0.2169
15522TIP3    H168057   0.752   1.896  16.811 -1.1490 -1.0810  0.2244
15522TIP3    H268058   0.728   1.954  16.673  0.7094 -0.6972  0.0474
15523TIP3   OH268059   5.112   1.271   0.495 -0.5695 -0.4781  0.0145
15523TIP3    H168060   5.204   1.245   0.496 -0.3808  0.1547  1.3420
15523TIP3    H268061   5.070   1.208   0.438  0.9546  0.1875 -1.9770
15524TIP3   OH268062   4.589   2.478   3.211  0.5463 -0.0919  0.5364
15524TIP3    H168063   4.614   2.508   3.298  1.1049  2.6942 -0.4743
15524TIP3    H268064   4.514   2.531   3.187  0.3461 -0.8546 -0.6543
15525TIP3   OH268065   2.746   2.757   2.623  0.2545 -0.2726 -1.0702
15525TIP3    H168066   2.837   2.763   2.596  0.2206 -0.8796 -1.3293
15525TIP3    H268067   2.737   2.668   2.657 -0.2076 -0.1679 -0.9133
15526TIP3   OH268068   0.525   1.435   3.071 -0.3003  0.1022 -1.0030
15526TIP3    H168069   0.434   1.447   3.099 -0.8453  1.7091 -3.1744
15526TIP3    H268070   0.519   1.409   2.979  1.4423 -0.3446 -1.0372
15527TIP3   OH268071   2.190   3.754  12.679  0.4351 -0.4160 -0.8527
15527TIP3    H168072   2.159   3.671  12.714 -0.8123 -0.4151 -1.8926
15527TIP3    H268073   2.170   3.750  12.585 -0.6986  1.4813 -0.7549
15528TIP3   OH268074   5.155   2.273  16.059  0.1867 -0.9322 -0.1482
15528TIP3    H168075   5.155   2.367  16.077  1.4658 -0.9003 -0.2150
15528TIP3    H268076   5.063   2.249  16.057 -0.1278  0.0795  1.1239
15529TIP3   OH268077   0.309   1.470  12.508 -0.6348  0.0598 -0.0434
15529TIP3    H168078   0.284   1.378  12.494 -0.1874 -0.2270  0.9891
15529TIP3    H268079   0.243   1.520  12.460 -0.7998 -0.7969 -0.7481
15530TIP3   OH268080   0.421   4.375   1.591 -0.7135 -0.3522  0.4619
15530TIP3    H168081   0.400   4.467   1.609  0.1741 -0.3339  1.5839
15530TIP3    H268082   0.497   4.379   1.533 -1.9442 -0.4138 -1.2324
15531TIP3   OH268083   0.187   2.280  10.479  0.3914  0.0069  0.4496
15531TIP3    H168084   0.224   2.242  10.558  0.2845  1.8013  1.4189
15531TIP3    H268085   0.093   2.284  10.496  0.6056  2.8245  1.4267
15532TIP3   OH268086   0.880   1.907   0.020  0.1252 -0.0970  0.0658
15532TIP3    H168087   0.896   1.813   0.007  1.2189  0.2767 -1.5980
15532TIP3    H268088   0.951   1.950  -0.028 -0.5979  1.5967  0.4481
15533TIP3   OH268089   0.224   1.309   4.686 -0.7047 -0.2064  0.3923
15533TIP3    H168090   0.252   1.218   4.694 -1.0091 -0.5057 -1.4256
15533TIP3    H268091   0.129   1.305   4.693 -0.6080  0.3002  2.5920
15534TIP3   OH268092   1.401   5.955  14.087  0.2312  0.3292 -0.0621
15534TIP3    H168093   1.418   6.029  14.144  0.4753  0.4819 -0.3263
15534TIP3    H268094   1.378   5.994  14.003 -2.0381  0.1384  0.4200
15535TIP3   OH268095   3.837   6.478  16.175  0.1436 -0.3432 -0.3828
15535TIP3    H168096   3.819   6.569  16.198  1.2069 -0.4808  1.1205
15535TIP3    H268097   3.902   6.484  16.104 -2.6740  0.0704 -3.1380
15536TIP3   OH268098   1.379   0.760   4.338 -0.6596  0.1674 -0.0629
15536TIP3    H168099   1.380   0.852   4.313 -2.9917  0.8151  1.8806
15536TIP3    H268100   1.291   0.730   4.314 -2.1949  0.1788  4.5566
15537TIP3   OH268101   1.307   2.683   0.866  0.1102  0.8762 -0.0062
15537TIP3    H168102   1.258   2.763   0.846  0.6684  1.0555 -0.7163
15537TIP3    H268103   1.395   2.714   0.887  0.9507  0.3673 -2.3731
15538TIP3   OH268104   0.526   5.433   3.483  0.2616 -0.5953 -0.2708
15538TIP3    H168105   0.571   5.448   3.566  0.8215 -0.9345 -0.5043
15538TIP3    H268106   0.511   5.338   3.481 -0.9049 -0.4353  0.0188
15539TIP3   OH268107   6.701   2.670   2.569  0.4784 -0.4040  0.7712
15539TIP3    H168108   6.752   2.750   2.583  0.2908 -0.0541 -0.3755
15539TIP3    H268109   6.650   2.660   2.649  0.3871  0.7222  0.8809
15540TIP3   OH268110   2.237   3.375  12.406  0.3397 -0.0473  0.0276
15540TIP3    H168111   2.302   3.393  12.474  0.9071 -0.7403 -0.3262
15540TIP3    H268112   2.250   3.445  12.341 -0.5717  0.9428  0.8659
15541TIP3   OH268113   4.005   1.978   3.623 -0.3369 -0.1183  0.7185
15541TIP3    H168114   3.938   2.038   3.589  0.2033 -1.1946 -2.6159
15541TIP3    H268115   3.959   1.895   3.635  0.0139 -0.3791  0.2540
15542TIP3   OH268116   3.601   2.015   4.387  0.6863 -0.0314  0.2637
15542TIP3    H168117   3.681   2.059   4.359  0.1119  0.8317 -0.0655
15542TIP3    H268118   3.545   2.085   4.420  0.4417 -0.7549  1.4099
15543TIP3   OH268119   5.841   2.696   0.361 -0.0058 -0.1479  0.3120
15543TIP3    H168120   5.745   2.688   0.359 -0.0989  0.9562 -1.7355
15543TIP3    H268121   5.872   2.620   0.312  0.1352 -0.0087  0.1870
15544TIP3   OH268122   3.074   5.527   0.899 -0.2958 -0.5812  0.7202
15544TIP3    H168123   3.051   5.491   0.814 -0.3944  0.6091  0.2179
15544TIP3    H268124   3.094   5.619   0.881 -0.3581 -0.3017  1.9895
15545TIP3   OH268125   3.533   2.026  11.190  0.0388 -0.0891 -0.0916
15545TIP3    H168126   3.537   2.118  11.166 -1.5304  0.1376  0.4012
15545TIP3    H268127   3.591   2.018  11.266  0.5192  0.3829 -0.4030
15546TIP3   OH268128   0.980   4.263  12.593  0.0577 -0.1376  0.0169
15546TIP3    H168129   1.071   4.266  12.564  0.7167 -0.6041  1.8775
15546TIP3    H268130   0.935   4.211  12.527  1.4252 -1.0194 -0.2460
15547TIP3   OH268131   2.658   6.741   6.407 -0.0908  0.1890  0.8364
15547TIP3    H168132   2.747   6.723   6.377 -1.3144 -1.5082 -2.1303
15547TIP3    H268133   2.644   6.678   6.478  0.6401 -0.4564  0.4215
15548TIP3   OH268134   0.609   5.943   3.421  0.7557 -0.3283  0.1686
15548TIP3    H168135   0.520   5.972   3.399  0.8056  0.8883  1.3979
15548TIP3    H268136   0.654   5.938   3.337 -0.2420 -0.0974 -0.3950
15549TIP3   OH268137   2.551   5.580  16.783 -0.0641  0.1726  0.1832
15549TIP3    H168138   2.486   5.560  16.715  0.2954  1.2996 -0.5160
15549TIP3    H268139   2.501   5.627  16.851 -0.2311 -0.1008  0.2524
15550TIP3   OH268140   1.437   0.359  12.244  0.1823  0.0489 -0.1259
15550TIP3    H168141   1.411   0.404  12.164  1.1383  1.5455  0.3472
15550TIP3    H268142   1.528   0.331  12.228  0.2439  0.0039  0.2798
15551TIP3   OH268143   4.533   0.746  13.346 -0.3643 -0.0685  0.1254
15551TIP3    H168144   4.465   0.812  13.352  0.5388  0.9071 -0.0803
15551TIP3    H268145   4.502   0.674  13.402 -1.3236  0.5522  0.4068
15552TIP3   OH268146   0.871   0.590   1.542  0.6359 -0.0062  0.1909
15552TIP3    H168147   0.904   0.630   1.461 -3.1890  1.0061 -1.1314
15552TIP3    H268148   0.908   0.644   1.612  0.3617  2.1611 -1.2276
15553TIP3   OH268149   4.271   2.824  16.840 -0.3063 -0.0650 -0.3635
15553TIP3    H168150   4.221   2.743  16.842  0.6824 -0.7520 -1.7036
15553TIP3    H268151   4.304   2.836  16.929 -1.1768 -0.6638  0.0426
15554TIP3   OH268152   5.734   1.890   4.707  0.2893 -0.5019  0.1568
15554TIP3    H168153   5.665   1.914   4.768  0.2599 -0.4119  0.0880
15554TIP3    H268154   5.718   1.798   4.687 -0.1094 -0.3475 -0.2496
15555TIP3   OH268155   5.267   2.814   3.909  0.2471  0.2907 -0.0193
15555TIP3    H168156   5.248   2.895   3.861 -2.1027  0.0554  0.3721
15555TIP3    H268157   5.327   2.840   3.979 -0.0362  1.5807 -0.2309
15556TIP3   OH268158   3.707   4.397  11.616 -0.2912  0.0745 -0.5388
15556TIP3    H168159   3.629   4.448  11.638 -0.0101  0.1465  0.3281
15556TIP3    H268160   3.691   4.311  11.655 -0.5785 -0.3812 -1.6363
15557TIP3   OH268161   5.241   0.498   0.084 -0.1315  0.1955 -0.4134
15557TIP3    H168162   5.220   0.567   0.022 -1.3947  0.0833 -0.1335
15557TIP3    H268163   5.224   0.417   0.036 -1.1628  0.1076  0.0671
15558TIP3   OH268164   2.998   6.015  17.080  0.4586  0.5486 -0.3404
15558TIP3    H168165   2.912   6.051  17.057  0.7981  0.8281 -1.2064
15558TIP3    H268166   3.060   6.070  17.032  1.0156 -0.8580 -1.2660
15559TIP3   OH268167   4.899   0.124   6.121  0.0659  0.1735  0.0796
15559TIP3    H168168   4.844   0.046   6.130  0.7377 -0.2618  0.4756
15559TIP3    H268169   4.837   0.197   6.124 -1.1287 -0.3695 -4.1022
15560TIP3   OH268170   0.527   3.627   2.599 -0.0595 -0.4752 -0.3246
15560TIP3    H168171   0.458   3.574   2.638 -0.6985  0.2319 -0.4750
15560TIP3    H268172   0.505   3.717   2.621 -0.1206 -0.1029 -1.7914
15561TIP3   OH268173   3.784   4.485  14.674  0.4848  0.7834 -0.6604
15561TIP3    H168174   3.696   4.455  14.696 -0.1850  2.6911 -0.5428
15561TIP3    H268175   3.831   4.487  14.757  1.3630 -2.2130 -0.9776
15562TIP3   OH268176   1.078   3.669  13.874  0.2455  0.1055 -0.6054
15562TIP3    H168177   1.125   3.741  13.916 -0.4301 -0.1170  0.5789
15562TIP3    H268178   1.097   3.679  13.781  2.2705  0.2815 -0.2221
15563TIP3   OH268179   3.804   6.088   4.291 -0.1911  0.8544 -0.0465
15563TIP3    H168180   3.740   6.159   4.299 -0.9549  0.2229 -0.3937
15563TIP3    H268181   3.842   6.099   4.204  1.4142  2.2252  0.7830
15564TIP3   OH268182   4.449   0.766   0.852  0.0023  0.3030 -0.4794
15564TIP3    H168183   4.509   0.732   0.786 -0.2775 -1.8559  0.2909
15564TIP3    H268184   4.369   0.787   0.804  0.8954  1.9995 -1.3060
15565TIP3   OH268185   1.836   5.714  11.959 -0.4727  0.5487 -0.3857
15565TIP3    H168186   1.773   5.723  11.888 -0.3729 -0.8797 -0.6749
15565TIP3    H268187   1.849   5.620  11.969  0.0807  0.7396  1.0292
15566TIP3   OH268188   3.289   4.436   4.045  0.6016 -0.3686 -0.2993
15566TIP3    H168189   3.259   4.392   4.124  2.6101  0.3831  0.9605
15566TIP3    H268190   3.209   4.463   4.000 -0.6156 -2.6085  0.3938
15567TIP3   OH268191   0.598   0.407   4.508 -0.0112  0.6804  0.0294
15567TIP3    H168192   0.633   0.325   4.472  2.0909  0.8953  1.3783
15567TIP3    H268193   0.643   0.476   4.460 -1.2927  1.0715 -0.6498
15568TIP3   OH268194   2.022   1.301   0.512 -0.5838 -0.0014 -0.4477
15568TIP3    H168195   2.113   1.278   0.494 -1.1360 -2.2349 -0.7153
15568TIP3    H268196   2.027   1.386   0.555  1.7748 -0.9004  1.2966
15569TIP3   OH268197   1.173   2.722   1.746  0.0839 -0.1835 -0.2224
15569TIP3    H168198   1.196   2.638   1.787  0.3860  0.4442  0.9387
15569TIP3    H268199   1.254   2.773   1.749 -0.1939  0.2807 -0.5995
15570TIP3   OH268200   5.275   4.035  15.582 -0.4693 -0.2486 -0.2481
15570TIP3    H168201   5.369   4.013  15.586 -0.3690  0.0781 -0.7371
15570TIP3    H268202   5.273   4.127  15.558 -0.9125 -0.8901 -3.0913
15571TIP3   OH268203   2.956   0.143  14.339  0.7368 -0.4110  0.0222
15571TIP3    H168204   2.956   0.156  14.244  0.7806  0.5090  0.1468
15571TIP3    H268205   2.903   0.064  14.351  0.8117 -0.5956 -0.7723
15572TIP3   OH268206   5.622   4.814  16.841 -0.1541 -0.4013 -0.0653
15572TIP3    H168207   5.644   4.725  16.867  2.1154 -0.4905 -1.9855
15572TIP3    H268208   5.527   4.811  16.826 -0.2457 -2.2972  0.5834
15573TIP3   OH268209   2.607   1.123  11.655 -0.6777  0.4013  0.2492
15573TIP3    H168210   2.596   1.195  11.593 -0.4314  0.3102  0.1016
15573TIP3    H268211   2.662   1.160  11.725 -1.8372  0.8419  0.9654
15574TIP3   OH268212   2.263   3.085   3.373 -0.6178  0.7702  0.0985
15574TIP3    H168213   2.211   3.156   3.337 -1.9921 -0.3313 -0.1741
15574TIP3    H268214   2.344   3.086   3.322 -2.0360 -0.0439 -2.3279
15575TIP3   OH268215   4.302   4.388  15.240 -0.3432 -0.0610  0.1268
15575TIP3    H168216   4.319   4.382  15.334  1.2873  0.6423 -0.0782
15575TIP3    H268217   4.276   4.300  15.215  0.5581 -0.6131  1.0157
15576TIP3   OH268218   0.429   6.573  13.143 -0.3548  0.7103 -0.1612
15576TIP3    H168219   0.455   6.481  13.147  0.4973  0.9691  0.5140
15576TIP3    H268220   0.333   6.571  13.135 -0.2197 -0.2578 -2.1027
15577TIP3   OH268221   0.185   4.505  15.985 -0.5903  0.3747 -0.3664
15577TIP3    H168222   0.139   4.480  16.065 -0.0120 -1.6608 -0.6279
15577TIP3    H268223   0.142   4.586  15.958 -2.0402  0.1157  0.9954
15578TIP3   OH268224   6.784   6.048  14.761  0.2986 -0.6853 -0.2828
15578TIP3    H168225   6.782   6.135  14.799  0.4986 -0.7886 -0.0295
15578TIP3    H268226   6.811   5.991  14.833 -0.5725 -1.0633 -0.2501
15579TIP3   OH268227   3.148   5.911   0.470 -0.1291  0.0873 -0.2255
15579TIP3    H168228   3.105   5.846   0.525  0.1696  0.3699  0.3578
15579TIP3    H268229   3.159   5.868   0.385 -0.5480 -0.3748 -0.0511
15580TIP3   OH268230   0.960   2.490   1.658  0.2375  0.0929 -0.4784
15580TIP3    H168231   0.901   2.416   1.646 -0.3112  0.6981 -1.6634
15580TIP3    H268232   0.998   2.506   1.572  0.4289  1.1160 -0.2242
15581TIP3   OH268233   3.580   1.514  13.743 -0.4203  0.4911  0.4501
15581TIP3    H168234   3.584   1.526  13.648 -0.0119  0.7965  0.5058
15581TIP3    H268235   3.499   1.465  13.757  0.1004 -0.5735 -0.1563
15582TIP3   OH268236   0.041   1.755   0.684 -0.1119  0.2516  0.3234
15582TIP3    H168237   0.102   1.828   0.670  1.0475 -0.8732 -0.6431
15582TIP3    H268238   0.011   1.731   0.597 -0.6109 -0.3258  0.6456
15583TIP3   OH268239   5.154   3.519  13.955  0.3342 -0.2937  0.4499
15583TIP3    H168240   5.073   3.471  13.968  0.1798 -0.0001  0.5887
15583TIP3    H268241   5.213   3.457  13.913  0.1374 -0.6015  0.6298
15584TIP3   OH268242   0.603   1.288   5.181  0.1978  0.5425  0.0682
15584TIP3    H168243   0.692   1.310   5.209  0.1171  0.2829  0.5462
15584TIP3    H268244   0.548   1.314   5.255  0.0319 -0.6384  0.3752
15585TIP3   OH268245   4.281   5.060   0.822 -0.1802 -0.0095 -0.0952
15585TIP3    H168246   4.262   5.012   0.742  1.8227  0.5709 -0.9903
15585TIP3    H268247   4.376   5.071   0.821 -0.2218  0.9559  1.8286
15586TIP3   OH268248   4.536   5.415   5.463  0.0405  0.2274 -0.2818
15586TIP3    H168249   4.571   5.490   5.414 -2.4493  2.1920  0.6878
15586TIP3    H268250   4.450   5.445   5.494 -1.3877 -3.2813 -0.3558
15587TIP3   OH268251   0.421   5.178   1.537 -0.3161  0.3934  0.5003
15587TIP3    H168252   0.464   5.117   1.596 -0.6523  1.4750  1.9347
15587TIP3    H268253   0.328   5.156   1.543 -0.5364  1.5550  1.6935
15588TIP3   OH268254   4.350   6.456   5.788 -0.1753  0.5985 -0.6223
15588TIP3    H168255   4.336   6.374   5.740  0.1590  1.4396 -2.2204
15588TIP3    H268256   4.334   6.524   5.723  0.8569  1.7783  0.3313
15589TIP3   OH268257   5.278   1.137   4.739  0.4561  0.3220 -0.2019
15589TIP3    H168258   5.207   1.074   4.755  2.0018 -0.9247  2.4202
15589TIP3    H268259   5.331   1.096   4.671  0.0389  0.0731 -0.3871
15590TIP3   OH268260   2.306   1.198   0.173  0.0804  0.2353 -0.4317
15590TIP3    H168261   2.398   1.173   0.171  0.1213  0.2741  0.4830
15590TIP3    H268262   2.288   1.215   0.266 -0.5422  1.3457 -0.7429
15591TIP3   OH268263   4.723   1.639  13.906 -0.4327 -0.9796  0.3249
15591TIP3    H168264   4.763   1.662  13.822  0.5230 -0.5570  0.8715
15591TIP3    H268265   4.795   1.601  13.957 -0.8568 -0.6988  1.1519
15592TIP3   OH268266   0.562   0.130   6.806 -0.1582  0.1844 -0.1177
15592TIP3    H168267   0.571   0.210   6.754  0.7482  1.0492  1.3153
15592TIP3    H268268   0.548   0.160   6.896 -2.1132 -1.2716  0.1523
15593TIP3   OH268269   6.107   1.103  11.763  0.3563 -0.3962 -0.2686
15593TIP3    H168270   6.166   1.086  11.689  0.5956 -0.3428 -0.0897
15593TIP3    H268271   6.025   1.131  11.721  1.1953  1.9572 -0.4998
15594TIP3   OH268272   4.484   0.137  11.116 -0.4346 -0.3552  0.4993
15594TIP3    H168273   4.397   0.174  11.096 -0.5653  0.7213  2.7127
15594TIP3    H268274   4.545   0.208  11.096  0.2884 -1.7782 -3.0627
15595TIP3   OH268275   1.225   1.378   3.606 -0.0016  0.6501  0.1894
15595TIP3    H168276   1.293   1.446   3.601 -0.4082  1.1053  0.6561
15595TIP3    H268277   1.168   1.407   3.677  0.1571 -0.5059  0.8078
15596TIP3   OH268278   5.428   4.604  15.504 -0.1609 -0.1690  0.5336
15596TIP3    H168279   5.512   4.557  15.499  0.3123  0.7994 -2.4053
15596TIP3    H268280   5.452   4.692  15.531 -0.3483 -0.1408  0.6061
15597TIP3   OH268281   3.288   3.486   5.839  0.3308 -0.2732 -0.3150
15597TIP3    H168282   3.267   3.417   5.777  0.2111  0.4747 -1.1167
15597TIP3    H268283   3.368   3.526   5.805  1.4985 -1.2093  1.1515
15598TIP3   OH268284   3.299   0.910  14.517 -0.3588 -0.1944  0.6570
15598TIP3    H168285   3.228   0.973  14.528  0.5282  1.1723 -1.0525
15598TIP3    H268286   3.373   0.961  14.483  1.6683 -1.4763  2.8502
15599TIP3   OH268287   5.712   6.595  13.767 -0.2462  0.1863  0.1943
15599TIP3    H168288   5.688   6.624  13.679  1.8014 -1.3220 -0.9391
15599TIP3    H268289   5.759   6.670  13.805  3.6324 -0.8073 -2.1202
15600TIP3   OH268290   5.985   4.236   5.290  0.3349  0.3448 -0.0733
15600TIP3    H168291   6.045   4.172   5.251  0.0835  0.4564 -0.6440
15600TIP3    H268292   5.902   4.189   5.300 -0.3397  1.0494 -2.0420
15601TIP3   OH268293   3.814   5.088  16.958  0.4254  0.1840  0.1079
15601TIP3    H168294   3.766   5.169  16.978 -0.9566 -0.4204 -0.7067
15601TIP3    H268295   3.813   5.082  16.863  0.9264 -0.5620  0.1433
15602TIP3   OH268296   2.807   6.631  11.316 -0.3933  0.2477 -0.4394
15602TIP3    H168297   2.861   6.610  11.240 -0.4275  0.1741 -0.4444
15602TIP3    H268298   2.801   6.726  11.316  1.1935  0.3740  0.5750
15603TIP3   OH268299   0.774   6.081   4.159 -0.1333  0.1835 -0.1031
15603TIP3    H168300   0.763   6.060   4.252  0.6986 -0.9966 -0.2540
15603TIP3    H268301   0.705   6.032   4.115 -1.0337  1.3673 -0.0612
15604TIP3   OH268302   2.474   4.233   4.508 -0.2743 -0.4105 -0.7402
15604TIP3    H168303   2.389   4.206   4.542 -0.5587  1.0742 -0.2229
15604TIP3    H268304   2.524   4.152   4.503 -1.3685 -1.1564 -0.0664
15605TIP3   OH268305   6.550   3.146   0.395 -0.2973 -0.2930  0.1791
15605TIP3    H168306   6.597   3.107   0.469  1.4446  0.3047 -0.5693
15605TIP3    H268307   6.510   3.225   0.432  0.9854  0.2762  0.3834
15606TIP3   OH268308   2.555   4.513   4.509 -0.2474  0.0133 -0.1490
15606TIP3    H168309   2.610   4.539   4.583 -0.4553 -0.6301  0.2372
15606TIP3    H268310   2.585   4.425   4.486 -0.0389  0.2914 -0.9743
15607TIP3   OH268311   1.032   0.759  11.065 -0.1796  0.0469 -0.0275
15607TIP3    H168312   1.069   0.847  11.050  1.2596 -0.8447 -2.2487
15607TIP3    H268313   1.109   0.702  11.065 -1.1483 -1.2824  0.8509
15608TIP3   OH268314   5.522   2.051   0.381  0.1344 -0.4023 -0.2428
15608TIP3    H168315   5.426   2.042   0.384 -0.0755  1.5021 -0.2136
15608TIP3    H268316   5.551   1.972   0.335 -1.4773 -0.8954 -0.4920
15609TIP3   OH268317   6.256   5.240  15.479  0.2411 -0.1140 -0.2900
15609TIP3    H168318   6.333   5.187  15.497  1.2864  0.4146 -2.7799
15609TIP3    H268319   6.240   5.288  15.560  2.2895 -0.5552  0.4334
15610TIP3   OH268320   3.649   6.536  11.984 -0.7435  0.3183  0.1536
15610TIP3    H168321   3.730   6.505  12.023 -0.5537  0.5153 -0.0881
15610TIP3    H268322   3.584   6.525  12.054 -1.5401 -4.2204 -0.9839
15611TIP3   OH268323   6.777   6.057   2.017 -0.5228  0.0489 -0.0479
15611TIP3    H168324   6.694   6.101   2.034 -0.5515 -0.0987  0.2112
15611TIP3    H268325   6.763   6.008   1.937 -1.3688 -1.6132  1.0551
15612TIP3   OH268326   2.859   4.597   3.447 -0.2233 -0.1644 -0.0710
15612TIP3    H168327   2.947   4.568   3.468 -0.5518  0.2963  2.1628
15612TIP3    H268328   2.807   4.516   3.446  0.0094 -0.3149 -0.3543
15613TIP3   OH268329   0.822   2.662   5.049  0.1076  0.3235 -0.3754
15613TIP3    H168330   0.917   2.677   5.057  0.3166 -1.1107  0.1193
15613TIP3    H268331   0.783   2.715   5.119  0.6378  0.0325  0.1467
15614TIP3   OH268332   4.266   3.159  14.028 -0.4170  0.2926  0.4580
15614TIP3    H168333   4.360   3.180  14.028  0.3447 -2.6072  1.5512
15614TIP3    H268334   4.237   3.178  14.117 -0.9560  1.3384  0.0792
15615TIP3   OH268335   2.148   3.762  11.842  0.3515 -0.0249 -0.3378
15615TIP3    H168336   2.232   3.716  11.833  0.4914  0.1984 -0.1821
15615TIP3    H268337   2.086   3.693  11.862  0.9321  0.0719  2.0806
15616TIP3   OH268338   5.943   3.908  16.885 -0.1872  0.2670  0.2262
15616TIP3    H168339   5.981   3.862  16.809 -1.8326 -1.1554  0.1866
15616TIP3    H268340   5.977   3.997  16.879 -1.4245  0.6651 -3.1115
15617TIP3   OH268341   2.767   0.824   4.867  0.4030 -0.0372  0.4021
15617TIP3    H168342   2.767   0.918   4.846 -0.9156 -0.3831 -1.4309
15617TIP3    H268343   2.733   0.819   4.956 -1.2419  1.1506 -0.1151
15618TIP3   OH268344   1.644   2.526   3.041  0.1368  0.2111  0.0748
15618TIP3    H168345   1.697   2.457   3.081 -0.3679 -0.3750 -0.2386
15618TIP3    H268346   1.679   2.608   3.077  0.0337 -0.2622  1.2971
15619TIP3   OH268347   5.585   3.982  14.832 -0.1973 -0.3546 -0.0598
15619TIP3    H168348   5.641   3.990  14.909  1.2519  2.5551 -1.2687
15619TIP3    H268349   5.628   3.917  14.777 -0.4323 -1.3377  0.8861
15620TIP3   OH268350   6.547   2.976  14.265 -0.6100  0.5539 -0.2690
15620TIP3    H168351   6.513   2.960  14.353  1.1078  0.5728  0.4286
15620TIP3    H268352   6.514   3.063  14.243  0.5124  1.3861  1.1700
15621TIP3   OH268353   5.862   0.285   3.914  0.5794  0.4070 -0.1026
15621TIP3    H168354   5.948   0.289   3.956 -0.3143 -0.1156  1.8776
15621TIP3    H268355   5.879   0.239   3.831  2.2131  0.3908  0.1942
15622TIP3   OH268356   3.363   0.546   0.491 -0.0639  0.1751 -0.1816
15622TIP3    H168357   3.399   0.606   0.426 -1.8710 -0.6467 -2.0656
15622TIP3    H268358   3.407   0.463   0.473 -1.1744 -0.2628 -0.9728
15623TIP3   OH268359   2.927   3.950   2.376  0.4658  0.0924  0.1755
15623TIP3    H168360   2.853   3.890   2.385  1.0272 -0.7475 -0.5959
15623TIP3    H268361   2.898   4.016   2.313  0.3293 -0.1518 -0.0161
15624TIP3   OH268362   5.134   0.243   4.974  0.2635 -0.1855  0.0829
15624TIP3    H168363   5.215   0.224   4.925  0.1639  0.2576 -0.2678
15624TIP3    H268364   5.149   0.206   5.060  0.4759 -0.9224 -0.2638
15625TIP3   OH268365   4.935   3.265  12.447 -0.0980 -0.1939 -0.5595
15625TIP3    H168366   4.883   3.203  12.498  0.1034 -0.6107 -0.8555
15625TIP3    H268367   5.021   3.222  12.438  0.1254  0.2449 -0.5408
15626TIP3   OH268368   1.867   2.553   0.666  0.6143  0.6120 -0.8560
15626TIP3    H168369   1.806   2.589   0.730  0.6043  1.1359 -1.1582
15626TIP3    H268370   1.948   2.539   0.714 -0.2174 -1.7604  0.0212
15627TIP3   OH268371   3.685   1.806   2.920  0.1833  0.2586  0.3072
15627TIP3    H168372   3.667   1.817   2.827  0.3602  1.1790  0.3651
15627TIP3    H268373   3.736   1.884   2.943  1.1253 -0.5082  0.9233
15628TIP3   OH268374   2.123   0.306  14.543 -0.1909  0.3977  0.1609
15628TIP3    H168375   2.110   0.319  14.449  1.0759  1.3889  0.0975
15628TIP3    H268376   2.154   0.391  14.574  0.7033 -0.3047  1.2440
15629TIP3   OH268377   0.025   6.456   0.260  0.6174 -0.0162  0.6816
15629TIP3    H168378   0.017   6.510   0.181  1.2376  0.2163  0.7710
15629TIP3    H268379   0.105   6.488   0.302  0.3443 -0.2073  1.3523
15630TIP3   OH268380   5.036   6.233   0.843  0.1832 -1.1394  0.0905
15630TIP3    H168381   5.039   6.139   0.822 -0.7274 -1.2077  0.2400
15630TIP3    H268382   5.119   6.249   0.889  0.5433 -1.7728 -0.3040
15631TIP3   OH268383   5.226   0.345  15.452  0.5034 -0.8389 -0.2003
15631TIP3    H168384   5.142   0.313  15.485 -0.2536  1.0002 -0.1842
15631TIP3    H268385   5.229   0.437  15.480  2.0356 -0.5661 -1.1219
15632TIP3   OH268386   4.450   4.709  15.492  0.0474 -0.1650  0.2689
15632TIP3    H168387   4.502   4.786  15.514  0.3596  0.0802 -1.2132
15632TIP3    H268388   4.361   4.730  15.521  0.4496  0.0584  1.3715
15633TIP3   OH268389   6.785   6.337  12.826  0.1876 -0.2218  0.2293
15633TIP3    H168390   6.863   6.383  12.857  0.3717  0.2338 -0.8712
15633TIP3    H268391   6.713   6.399  12.839  0.1909 -0.2071  0.1754
15634TIP3   OH268392   5.871   2.603  13.104  0.5636 -0.3093  0.9146
15634TIP3    H168393   5.814   2.592  13.028 -0.0892  0.0518  1.3423
15634TIP3    H268394   5.933   2.531  13.098  0.9543  0.0956 -0.3318
15635TIP3   OH268395   2.952   0.957   1.705 -0.3273 -0.7863 -0.4927
15635TIP3    H168396   2.977   1.044   1.675 -0.9933 -0.4774 -0.1603
15635TIP3    H268397   3.010   0.940   1.780  1.6694 -1.7553 -2.1416
15636TIP3   OH268398   1.147   3.790  15.060 -0.6573  0.0018  0.8015
15636TIP3    H168399   1.118   3.881  15.059 -1.3890 -0.2273  0.0636
15636TIP3    H268400   1.112   3.754  15.141 -2.4492 -0.2537 -0.0458
15637TIP3   OH268401   0.311   4.806  16.152  0.3011  0.3233 -0.0585
15637TIP3    H168402   0.398   4.772  16.133  1.0127  2.3704 -0.6917
15637TIP3    H268403   0.269   4.813  16.066  0.3928  1.5325 -0.0237
15638TIP3   OH268404   0.569   3.105   4.294 -0.3702  0.7107 -0.3767
15638TIP3    H168405   0.612   3.032   4.250  0.7884  0.7021  0.7000
15638TIP3    H268406   0.523   3.066   4.368  3.4190  1.2704  2.6018
15639TIP3   OH268407   0.951   6.427   3.114 -0.2790 -0.0592 -0.0336
15639TIP3    H168408   0.999   6.402   3.192 -0.7147 -2.5551 -0.4911
15639TIP3    H268409   0.988   6.374   3.044 -1.1755  0.7140 -1.1400
15640TIP3   OH268410   2.461   3.012  16.546 -0.0352 -0.6625  0.0427
15640TIP3    H168411   2.371   3.039  16.530 -0.2810 -1.2799  0.3581
15640TIP3    H268412   2.507   3.092  16.570 -0.6213 -0.4360  0.4002
15641TIP3   OH268413   2.308   2.562  14.114 -0.3091  0.9873 -0.5334
15641TIP3    H168414   2.228   2.599  14.079  0.2813  0.9682 -1.9624
15641TIP3    H268415   2.330   2.491  14.053  0.6054  0.7701  0.0331
15642TIP3   OH268416   2.767   5.844  11.496 -0.4174 -0.1614 -0.0391
15642TIP3    H168417   2.820   5.920  11.520 -0.2602 -0.6557  1.2730
15642TIP3    H268418   2.831   5.777  11.474 -0.5024  0.8863 -4.2995
15643TIP3   OH268419   5.698   0.876   5.437  0.2565 -0.9682  0.1083
15643TIP3    H168420   5.651   0.799   5.406 -0.9396 -1.0974  2.0411
15643TIP3    H268421   5.789   0.858   5.417  0.2678 -3.8039  2.1060
15644TIP3   OH268422   3.864   4.772   1.628 -0.3039 -0.1199  0.3775
15644TIP3    H168423   3.792   4.737   1.680 -0.6254  2.0298  1.5084
15644TIP3    H268424   3.823   4.841   1.575  0.7517  0.6077  0.4651
15645TIP3   OH268425   6.296   6.661   0.613  0.2481  0.5035 -0.0184
15645TIP3    H168426   6.212   6.616   0.620  1.2754 -1.6069 -0.3514
15645TIP3    H268427   6.328   6.666   0.704  1.4591 -2.3074 -0.1853
15646TIP3   OH268428   5.222   3.270   2.157  0.4906  0.3836  0.1835
15646TIP3    H168429   5.236   3.352   2.111 -0.1783 -0.4097 -1.4927
15646TIP3    H268430   5.205   3.296   2.248 -1.7746  2.2450 -0.6923
15647TIP3   OH268431   0.457   1.035  13.843  0.1736 -0.6501 -0.2606
15647TIP3    H168432   0.447   1.117  13.796 -0.7837 -1.3216 -1.2775
15647TIP3    H268433   0.498   0.976  13.780 -0.2125 -1.2866  0.0763
15648TIP3   OH268434   1.744   6.078   5.664  0.0712 -0.2398  0.5764
15648TIP3    H168435   1.826   6.106   5.704  1.2650 -0.9261 -1.2736
15648TIP3    H268436   1.713   6.006   5.719  1.6685 -1.1544  0.3224
15649TIP3   OH268437   5.124   3.640  12.989 -0.5671  0.3358 -0.0725
15649TIP3    H168438   5.061   3.593  13.043 -0.6898  1.7239  1.0655
15649TIP3    H268439   5.079   3.721  12.965  0.1933  0.6039 -0.6314
15650TIP3   OH268440   2.021   2.535  17.068  0.5322 -0.2645  0.2226
15650TIP3    H168441   2.070   2.607  17.031  1.3846 -0.1224  1.5413
15650TIP3    H268442   2.079   2.498  17.135 -0.3690 -1.3847  0.4324
15651TIP3   OH268443   3.413   4.856   2.081 -0.7704  0.3027 -0.4328
15651TIP3    H168444   3.364   4.822   2.156  0.6488 -2.2928 -0.5710
15651TIP3    H268445   3.443   4.777   2.035  3.0669  1.7033 -0.6301
15652TIP3   OH268446   3.014   1.967   0.916  0.0036 -0.3968  0.1972
15652TIP3    H168447   2.968   2.004   0.992  0.4581 -0.7308  0.6439
15652TIP3    H268448   2.944   1.937   0.858 -0.4147  1.8702 -0.5653
15653TIP3   OH268449   5.243   4.080   3.973 -0.2577  0.4280 -0.1839
15653TIP3    H168450   5.172   4.101   3.913  1.3049 -0.1573 -2.3886
15653TIP3    H268451   5.282   4.000   3.936  1.6306  0.8343  0.8228
15654TIP3   OH268452   4.873   1.792   3.613  0.0707 -0.0207 -0.2150
15654TIP3    H168453   4.945   1.759   3.560  0.3954 -0.2858  0.3861
15654TIP3    H268454   4.906   1.791   3.702 -0.8588 -0.6441  0.1358
15655TIP3   OH268455   3.931   5.415   4.155  0.2539 -0.0490  0.4578
15655TIP3    H168456   3.886   5.350   4.101  1.5161 -0.4098 -0.2171
15655TIP3    H268457   4.010   5.436   4.105  0.7395  0.6796  1.5064
15656TIP3   OH268458   1.126   6.596  14.415 -0.3466  0.1327 -0.0191
15656TIP3    H168459   1.114   6.686  14.386  0.5037  0.1750 -0.2585
15656TIP3    H268460   1.125   6.601  14.510 -0.3422  0.3854 -0.0322
15657TIP3   OH268461   3.462   6.499   5.155  0.4658 -0.8195 -0.0445
15657TIP3    H168462   3.458   6.489   5.250  2.4669 -1.1256  0.0661
15657TIP3    H268463   3.401   6.570   5.135  0.4408 -0.3567  1.5385
15658TIP3   OH268464   6.204   5.988  14.842 -0.5729  0.2842 -0.6567
15658TIP3    H168465   6.254   5.921  14.889  1.0555 -0.0583 -2.7381
15658TIP3    H268466   6.241   6.071  14.873  0.0477  0.0809 -0.8351
15659TIP3   OH268467   5.076   3.977   1.103 -0.4595  0.3531  0.2184
15659TIP3    H168468   4.993   4.020   1.084 -0.9689 -0.0171  1.5352
15659TIP3    H268469   5.128   4.044   1.147  0.8530  1.3227 -2.5617
15660TIP3   OH268470   2.303   2.057   1.060  0.3895 -0.0681  0.3924
15660TIP3    H168471   2.292   2.139   1.012  0.2038 -0.1594  0.2797
15660TIP3    H268472   2.398   2.046   1.067  0.4722  1.4041  2.5548
15661TIP3   OH268473   4.017   6.574  16.502  0.0162  0.2225  0.0086
15661TIP3    H168474   3.925   6.599  16.487 -0.0424 -0.6364 -1.2209
15661TIP3    H268475   4.058   6.654  16.535 -1.2524  0.5146  0.9990
15662TIP3   OH268476   5.960   0.242   2.121 -0.1860  0.2884 -0.4561
15662TIP3    H168477   5.945   0.258   2.214 -0.7837  1.2731 -0.7093
15662TIP3    H268478   5.898   0.299   2.076 -0.5804 -0.8874 -1.4561
15663TIP3   OH268479   1.090   4.482  12.974  0.5164  0.1234 -0.3784
15663TIP3    H168480   1.144   4.499  13.051 -0.6891  1.1080  0.3023
15663TIP3    H268481   1.000   4.488  13.007 -0.0189 -1.1999 -1.5183
15664TIP3   OH268482   0.833   2.933  12.251  0.0439  0.8727 -0.6897
15664TIP3    H168483   0.896   3.005  12.246 -0.1509  0.9922 -1.8530
15664TIP3    H268484   0.872   2.865  12.196  0.2919  0.0276  0.5117
15665TIP3   OH268485   1.868   6.069  16.965  0.0304  0.6542  0.3255
15665TIP3    H168486   1.847   6.124  17.041 -0.0590 -0.6125  1.2330
15665TIP3    H268487   1.838   6.120  16.890  0.6579  2.2056  1.0763
15666TIP3   OH268488   2.612   0.797  13.253 -0.1425  0.0607 -0.2738
15666TIP3    H168489   2.661   0.741  13.193 -0.2812  1.4763 -1.7403
15666TIP3    H268490   2.532   0.747  13.272  1.3481 -1.8656  1.4355
15667TIP3   OH268491   1.038   5.745   3.785  0.2728 -0.1457  0.0374
15667TIP3    H168492   1.036   5.737   3.880  2.2770 -0.0979  0.1244
15667TIP3    H268493   0.971   5.810   3.764  0.5564  0.6326  1.5024
15668TIP3   OH268494   4.456   4.048  13.075  0.3711  0.1862  0.2096
15668TIP3    H168495   4.376   4.099  13.090 -0.5028 -0.5511 -1.7066
15668TIP3    H268496   4.481   4.068  12.985  1.1562 -1.2364  0.0918
15669TIP3   OH268497   4.179   6.756  11.801  0.3009  0.1704  0.4084
15669TIP3    H168498   4.182   6.796  11.714 -0.4549  0.2224  0.3987
15669TIP3    H268499   4.086   6.753  11.823  0.3363 -1.4854  0.4645
15670TIP3   OH268500   4.542   5.591  11.797  0.1086  0.1215  0.1449
15670TIP3    H168501   4.537   5.673  11.748  1.5196  0.1798  0.0623
15670TIP3    H268502   4.575   5.617  11.883 -0.7395 -0.2019  0.5866
15671TIP3   OH268503   1.148   4.974   6.394 -0.2827  0.1503  0.1052
15671TIP3    H168504   1.095   5.051   6.411 -1.8403 -1.1313  1.4002
15671TIP3    H268505   1.097   4.901   6.430  0.8966 -1.5554 -1.4668
15672TIP3   OH268506   4.853   6.476   0.915 -0.0737  0.0904 -0.7420
15672TIP3    H168507   4.894   6.389   0.913 -0.7110 -0.2792  0.6642
15672TIP3    H268508   4.774   6.468   0.862 -1.4689 -0.9744  1.3449
15673TIP3   OH268509   1.208   1.947   0.889 -0.0123 -0.2414 -0.1277
15673TIP3    H168510   1.178   1.947   0.980 -1.0511  1.2241 -0.4219
15673TIP3    H268511   1.297   1.982   0.893  0.3418 -1.1644  0.4076
15674TIP3   OH268512   4.349   4.533   4.236  0.3774  0.4674 -0.0677
15674TIP3    H168513   4.300   4.535   4.154  1.1373  2.5837 -0.5280
15674TIP3    H268514   4.440   4.522   4.210  0.6931  1.7498  0.4057
15675TIP3   OH268515   5.973   0.910   3.624 -0.5934  0.0485  0.1755
15675TIP3    H168516   5.888   0.892   3.665 -0.5851  0.8258  0.5682
15675TIP3    H268517   6.038   0.884   3.689 -0.3799 -3.1348 -1.1324
15676TIP3   OH268518   1.910   3.621  10.864  0.2434 -0.1755 -0.2268
15676TIP3    H168519   1.868   3.560  10.924  0.7177 -0.5844 -0.2996
15676TIP3    H268520   1.851   3.624  10.788 -0.6145  0.7356  0.4479
15677TIP3   OH268521   0.709   0.002   5.436  0.0752  0.2156  0.3885
15677TIP3    H168522   0.739  -0.050   5.362 -1.3695  1.3735 -1.0637
15677TIP3    H268523   0.714  -0.058   5.511  1.8519 -0.8846 -0.5483
15678TIP3   OH268524   4.158   2.435  13.675  0.1950  0.0300  0.0289
15678TIP3    H168525   4.106   2.381  13.614  1.4641 -1.4726  0.2156
15678TIP3    H268526   4.240   2.450  13.629 -0.0215  1.5816  0.1198
15679TIP3   OH268527   0.180   0.511  12.736  0.0358 -0.4414  0.0088
15679TIP3    H168528   0.199   0.503  12.642 -2.9585  0.0518 -0.7245
15679TIP3    H268529   0.242   0.577  12.767 -1.4686  2.3914 -2.5420
15680TIP3   OH268530   2.866   1.690  12.151  0.2882  0.5471  0.0321
15680TIP3    H168531   2.820   1.712  12.232 -1.3893 -1.0306 -0.4291
15680TIP3    H268532   2.958   1.703  12.172 -0.1531  0.9791  1.9245
15681TIP3   OH268533   6.543   1.090   0.292 -0.3708 -0.1003 -0.2687
15681TIP3    H168534   6.555   1.002   0.256 -0.5466  0.1879 -1.0614
15681TIP3    H268535   6.524   1.144   0.215 -1.2174  0.4554  0.3200
15682TIP3   OH268536   2.231   2.110  12.061  0.2094  0.0049  0.0556
15682TIP3    H168537   2.319   2.144  12.044 -0.4344  1.8298  0.1193
15682TIP3    H268538   2.215   2.049  11.990  1.6412 -0.5986  0.2164
15683TIP3   OH268539   4.372   2.380   3.735 -0.3868  0.0009 -0.3708
15683TIP3    H168540   4.379   2.474   3.719 -1.2056 -0.0790 -1.2600
15683TIP3    H268541   4.303   2.371   3.800 -0.7989 -0.0297 -0.8110
15684TIP3   OH268542   3.167   0.300  14.237 -0.3107  0.7091  0.1397
15684TIP3    H168543   3.168   0.215  14.283 -1.4186  1.2202  1.1616
15684TIP3    H268544   3.168   0.365  14.308 -1.2992  1.5342 -0.5735
15685TIP3   OH268545   5.892   4.336  13.702 -0.0555 -0.1149 -0.3049
15685TIP3    H168546   5.901   4.390  13.780 -1.5712 -0.6985  0.3036
15685TIP3    H268547   5.808   4.363  13.664 -0.1116 -0.9831 -0.8178
15686TIP3   OH268548   2.642   2.486  10.735  0.1012  0.2226 -0.0564
15686TIP3    H168549   2.588   2.456  10.662  1.3268 -1.1809 -0.4395
15686TIP3    H268550   2.596   2.456  10.813 -1.1488  1.6089 -0.2258
15687TIP3   OH268551   1.123   1.661  16.244 -0.1139 -0.2362  0.5252
15687TIP3    H168552   1.110   1.688  16.153 -0.2186  1.2456  0.9546
15687TIP3    H268553   1.204   1.609  16.242  0.3392  0.4695 -0.2845
15688TIP3   OH268554   4.501   4.620   2.621  0.2351 -0.0514 -0.2037
15688TIP3    H168555   4.540   4.628   2.534  0.5611  1.1238  0.0260
15688TIP3    H268556   4.537   4.539   2.657 -0.9490 -1.2838 -1.6513
15689TIP3   OH268557   1.714   3.801  16.243  0.9905 -0.1628  0.2077
15689TIP3    H168558   1.773   3.732  16.212 -0.2600 -1.6600  1.0303
15689TIP3    H268559   1.681   3.841  16.162  0.1618 -1.9318 -0.3897
15690TIP3   OH268560   3.330   0.305   3.170 -0.3976  0.5842  0.2788
15690TIP3    H168561   3.415   0.337   3.199 -0.4126  0.8202  0.0643
15690TIP3    H268562   3.328   0.214   3.199 -0.1100  0.6046  0.3668
15691TIP3   OH268563   4.692   6.397   3.842 -0.5470 -0.3079 -0.5752
15691TIP3    H168564   4.636   6.331   3.800 -0.5570 -1.1554  0.7291
15691TIP3    H268565   4.635   6.440   3.906 -0.3636  0.5536 -0.9742
15692TIP3   OH268566   6.824   2.955  14.482  0.0783  0.0020  0.0090
15692TIP3    H168567   6.831   3.005  14.401  3.1103  1.2433  0.8834
15692TIP3    H268568   6.838   2.864  14.456 -0.2192  0.2417 -1.0011
15693TIP3   OH268569   2.574   5.871  14.197  0.1105 -0.1372  0.4374
15693TIP3    H168570   2.557   5.778  14.213  2.6695 -0.6235  0.6842
15693TIP3    H268571   2.604   5.875  14.106  0.6066  0.3529  0.6176
15694TIP3   OH268572   3.584   5.436  11.753  0.1183 -0.0396  0.0198
15694TIP3    H168573   3.490   5.451  11.760 -0.2876 -1.5456 -1.4309
15694TIP3    H268574   3.605   5.381  11.828 -0.2571 -0.0664  0.1062
15695TIP3   OH268575   1.044   0.609  15.647  0.4546  0.1762  0.1084
15695TIP3    H168576   0.993   0.589  15.725  1.4758  2.2511  1.4016
15695TIP3    H268577   1.017   0.697  15.623 -0.3661 -0.6812 -2.3836
15696TIP3   OH268578   5.933   1.215   5.158 -0.1158  0.2727 -0.9685
15696TIP3    H168579   5.916   1.295   5.207  1.1449  0.3333 -0.5987
15696TIP3    H268580   5.951   1.245   5.069 -0.7562  0.2940 -1.0993
15697TIP3   OH268581   6.011   6.264   4.774 -0.1005 -0.1159 -0.8349
15697TIP3    H168582   6.077   6.248   4.707  0.7200 -0.5242  0.0472
15697TIP3    H268583   5.980   6.353   4.756  1.6454  0.5965 -0.4777
15698TIP3   OH268584   2.039   1.105  14.912  0.1684  0.1904 -0.2012
15698TIP3    H168585   1.973   1.173  14.898  0.0153  0.0144 -0.3404
15698TIP3    H268586   2.013   1.034  14.853  0.5113  0.1390 -0.2933
15699TIP3   OH268587   6.331   4.122   1.330 -0.3197 -0.2725  0.0335
15699TIP3    H168588   6.345   4.028   1.343 -1.1812 -0.7048 -1.8162
15699TIP3    H268589   6.315   4.156   1.418 -0.1754 -1.8808  0.7211
15700TIP3   OH268590   6.535   5.007  16.157 -0.4774 -0.1013 -0.1933
15700TIP3    H168591   6.454   5.056  16.169  0.0162  0.0621  4.7932
15700TIP3    H268592   6.516   4.920  16.191  1.1137 -0.4016  0.0283
15701TIP3   OH268593   4.552   3.917  15.735  0.6946  0.1830  0.6519
15701TIP3    H168594   4.520   3.897  15.823 -0.9738  1.8630  0.4874
15701TIP3    H268595   4.527   4.008  15.720  2.5356  0.5033 -0.8960
15702TIP3   OH268596   3.699   2.534  12.277  0.4988  0.2406 -0.3705
15702TIP3    H168597   3.631   2.471  12.302  1.2059 -0.3940 -0.0210
15702TIP3    H268598   3.650   2.613  12.253 -0.3159  0.2839  1.2561
15703TIP3   OH268599   5.058   5.948  16.381  0.0836  0.2734 -0.1519
15703TIP3    H168600   4.969   5.915  16.378  0.8089 -1.7810 -0.9902
15703TIP3    H268601   5.068   5.984  16.469 -0.9465 -1.3621  0.6861
15704TIP3   OH268602   0.720   4.162  15.414  0.1336  0.1152  0.1871
15704TIP3    H168603   0.739   4.110  15.336 -0.9289  2.3217 -1.6676
15704TIP3    H268604   0.627   4.146  15.432 -0.0080  0.7524  0.0533
15705TIP3   OH268605   6.337   6.159  13.353  0.0091 -0.0385 -0.0354
15705TIP3    H168606   6.392   6.212  13.295  2.3055 -0.0025  1.9986
15705TIP3    H268607   6.252   6.202  13.352  0.4148  0.8393 -2.1050
15706TIP3   OH268608   3.405   1.826  10.823 -0.0549  0.0860 -1.0922
15706TIP3    H168609   3.357   1.771  10.762  0.0654  0.7196 -1.7734
15706TIP3    H268610   3.438   1.899  10.770  0.8709  0.1531 -0.4684
15707TIP3   OH268611   1.769   3.607   4.186  0.0538  0.3782 -0.1393
15707TIP3    H168612   1.801   3.673   4.124 -0.4370  1.3201  0.5888
15707TIP3    H268613   1.743   3.533   4.130  0.0287  1.0363 -1.0269
15708TIP3   OH268614   5.667   6.512   5.621  0.0542  0.7123 -0.2237
15708TIP3    H168615   5.737   6.500   5.685  1.9463  1.2593 -2.0596
15708TIP3    H268616   5.637   6.602   5.634 -0.5623  0.3691  0.7893
15709TIP3   OH268617   2.545   0.246  15.347 -0.0443 -0.0609  0.4938
15709TIP3    H168618   2.631   0.270  15.313  0.6787  1.1743  2.9195
15709TIP3    H268619   2.521   0.320  15.403 -2.1235 -0.9613  0.8695
15710TIP3   OH268620   6.457   3.445  14.583 -0.2621 -0.0075  0.0143
15710TIP3    H168621   6.454   3.349  14.577 -1.4551 -0.0349  0.8372
15710TIP3    H268622   6.478   3.473  14.494 -0.5198 -1.0120 -0.3806
15711TIP3   OH268623   3.773   3.597  16.828  0.8415  0.3413 -0.6974
15711TIP3    H168624   3.802   3.659  16.895 -0.0951  0.1048 -0.0568
15711TIP3    H268625   3.842   3.530  16.827  1.3410  0.8476 -0.6632
15712TIP3   OH268626   4.780   1.125  15.614 -0.2190  0.1094  0.3977
15712TIP3    H168627   4.819   1.108  15.700  0.3191  0.6138  0.2574
15712TIP3    H268628   4.731   1.207  15.626  0.1437  0.3685  0.1374
15713TIP3   OH268629   1.272   5.136   3.253  0.3374 -0.0610 -0.2117
15713TIP3    H168630   1.239   5.220   3.283 -1.0533 -1.0421  1.1575
15713TIP3    H268631   1.223   5.071   3.304  3.4535 -1.6651  1.0151
15714TIP3   OH268632   4.903   0.373   4.600 -0.3215  0.1913 -0.2363
15714TIP3    H168633   4.816   0.390   4.637 -0.3347  0.9000 -0.5639
15714TIP3    H268634   4.887   0.364   4.506 -0.0329  0.3856 -0.3031
15715TIP3   OH268635   1.184   5.360   4.121 -0.0672 -0.4483 -0.2495
15715TIP3    H168636   1.228   5.337   4.039  0.5232 -0.4262  0.0593
15715TIP3    H268637   1.219   5.299   4.186  0.5458  0.4499  0.2971
15716TIP3   OH268638   3.762   2.842   5.475  0.4441  0.1708  0.3763
15716TIP3    H168639   3.688   2.783   5.466 -0.1458  1.0741 -0.9453
15716TIP3    H268640   3.837   2.785   5.489  0.1252 -1.0299 -2.2093
15717TIP3   OH268641   6.496   0.269  15.684 -0.2013  0.2471 -0.3430
15717TIP3    H168642   6.413   0.312  15.666 -1.1610  0.5732  3.9243
15717TIP3    H268643   6.558   0.341  15.699 -0.1722  0.0676  0.4228
15718TIP3   OH268644   5.455   3.719  13.209  0.0328 -0.3307  0.7338
15718TIP3    H168645   5.533   3.679  13.247 -0.2716 -0.3113  1.4022
15718TIP3    H268646   5.448   3.804  13.252  0.3290  0.1882 -0.2266
15719TIP3   OH268647   4.223   1.062  11.973  0.1922 -0.0486 -0.9092
15719TIP3    H168648   4.152   1.123  11.952  1.9909  2.5380  0.0738
15719TIP3    H268649   4.250   1.027  11.888 -1.1584  0.1975 -1.4631
15720TIP3   OH268650   6.788   0.385  14.021 -0.1768 -0.6876 -0.2006
15720TIP3    H168651   6.733   0.310  14.046 -0.0290 -0.5747  0.4615
15720TIP3    H268652   6.841   0.403  14.098 -1.7567  1.5095  0.4888
15721TIP3   OH268653   6.202   3.854  15.298  0.0182  0.2393 -0.1205
15721TIP3    H168654   6.274   3.861  15.235 -1.0754 -0.6526 -1.5424
15721TIP3    H268655   6.216   3.770  15.341  0.9964  1.0351  1.1658
15722TIP3   OH268656   2.067   4.642   0.580  0.0523  0.2747 -0.4158
15722TIP3    H168657   2.061   4.732   0.551  0.6053  0.5073  0.1655
15722TIP3    H268658   1.978   4.619   0.607  0.0294  0.8553  0.0177
15723TIP3   OH268659   2.372   2.452  15.025 -0.2171 -0.2946  0.7222
15723TIP3    H168660   2.367   2.514  15.098 -0.9331  0.1344  0.3169
15723TIP3    H268661   2.394   2.506  14.949 -2.6514 -0.1730 -0.0071
15724TIP3   OH268662   4.430   4.072  11.820  0.0507  0.6901 -0.0997
15724TIP3    H168663   4.454   4.064  11.912 -0.7291 -0.2149  0.0442
15724TIP3    H268664   4.450   4.163  11.797  1.0237  0.7004  0.7265
15725TIP3   OH268665   4.903   4.429   3.493  0.5978  0.4835  0.5232
15725TIP3    H168666   4.914   4.334   3.490 -2.0622  0.0767  0.9317
15725TIP3    H268667   4.904   4.450   3.586 -0.4032  0.5784  0.5272
15726TIP3   OH268668   6.522   5.132  13.032 -0.2066 -0.3964 -0.0881
15726TIP3    H168669   6.571   5.083  13.099  0.4733  0.3073 -0.0570
15726TIP3    H268670   6.547   5.223  13.046 -1.1240 -0.0808 -0.4303
15727TIP3   OH268671   2.376   4.921   0.629  0.5673 -0.6247 -0.5165
15727TIP3    H168672   2.336   4.995   0.584 -0.8868 -0.6427  0.6739
15727TIP3    H268673   2.411   4.959   0.710  0.5697 -1.0914 -0.2960
15728TIP3   OH268674   0.521   4.746   4.459 -0.0243  0.1599  0.0654
15728TIP3    H168675   0.532   4.737   4.364  0.6285 -0.2377  0.1722
15728TIP3    H268676   0.439   4.701   4.478  0.9089 -1.6886 -0.0393
15729TIP3   OH268677   3.372   4.897  13.370 -0.1810  0.2077 -0.0839
15729TIP3    H168678   3.440   4.842  13.332 -1.4203 -1.1073 -0.4835
15729TIP3    H268679   3.374   4.876  13.464  0.0111  0.2205 -0.0855
15730TIP3   OH268680   0.875   2.604  12.737  0.1331 -0.0212 -0.2521
15730TIP3    H168681   0.860   2.616  12.830 -0.7831  0.9389 -0.5018
15730TIP3    H268682   0.957   2.649  12.719  0.1036  0.1350  0.0146
15731TIP3   OH268683   4.445   6.550   3.105 -0.7511 -0.0316 -0.1028
15731TIP3    H168684   4.482   6.583   3.187  0.0607  0.2363 -0.5666
15731TIP3    H268685   4.498   6.591   3.036 -0.5962 -1.2421 -0.7339
15732TIP3   OH268686   4.463   5.813   1.403 -0.3445  0.1093 -0.4192
15732TIP3    H168687   4.415   5.810   1.321 -0.9367  2.2009 -0.2144
15732TIP3    H268688   4.413   5.757   1.463 -1.4237  0.6884 -0.7579
15733TIP3   OH268689   0.964   2.163   1.997  0.2280 -0.4295  0.3320
15733TIP3    H168690   1.048   2.182   1.955  0.5125 -0.9647  0.6442
15733TIP3    H268691   0.912   2.242   1.983  1.8457  1.2345  2.8011
15734TIP3   OH268692   1.987   6.530   5.575 -0.0683 -0.9821  0.2336
15734TIP3    H168693   1.940   6.488   5.503  0.4503 -1.2693  0.0606
15734TIP3    H268694   1.998   6.620   5.547  0.0407 -1.0680 -0.0023
15735TIP3   OH268695   5.177   5.658  15.958  0.5283  0.1128  0.2149
15735TIP3    H168696   5.085   5.673  15.979  0.9037  3.9733 -0.1993
15735TIP3    H268697   5.218   5.641  16.043 -0.5542 -2.2637  0.3459
15736TIP3   OH268698   3.560   4.733  10.986 -0.7370 -0.4739  0.7261
15736TIP3    H168699   3.614   4.812  10.976 -1.0514 -0.4252 -0.9551
15736TIP3    H268700   3.623   4.661  10.980 -0.7414 -0.3992 -0.5329
15737TIP3   OH268701   3.420   5.435  11.499 -0.4440  0.4218 -0.2035
15737TIP3    H168702   3.374   5.445  11.415 -1.4297 -0.5737  0.1840
15737TIP3    H268703   3.354   5.398  11.558 -0.4624  3.2479  1.6991
15738TIP3   OH268704   1.607   4.394  12.706 -0.3323  0.3316  0.4022
15738TIP3    H168705   1.604   4.302  12.678 -0.0562  0.0124  1.4044
15738TIP3    H268706   1.538   4.402  12.771 -0.4653  0.8783  0.1964
15739TIP3   OH268707   6.060   4.532  11.194 -0.4959  0.3698 -0.2722
15739TIP3    H168708   6.047   4.610  11.141  0.6693  1.4316  0.9197
15739TIP3    H268709   6.052   4.563  11.284  0.6357 -0.7349  0.2429
15740TIP3   OH268710   4.371   5.001   5.103  0.5185  0.3678 -0.1760
15740TIP3    H168711   4.455   5.015   5.146 -0.3429  1.8391  1.1471
15740TIP3    H268712   4.327   4.935   5.156 -0.0972  1.3671  0.5956
15741TIP3   OH268713   6.293   3.128  16.109  0.2883 -0.8456 -0.1075
15741TIP3    H168714   6.278   3.067  16.036  0.7768  0.1467 -1.0666
15741TIP3    H268715   6.382   3.107  16.139  0.2631 -0.9415 -0.0985
15742TIP3   OH268716   6.621   1.295   2.421  0.4334 -0.1688 -0.5063
15742TIP3    H168717   6.703   1.278   2.376  0.5600 -0.3412 -0.2138
15742TIP3    H268718   6.576   1.360   2.366  0.5360 -0.4557 -0.9301
15743TIP3   OH268719   6.650   1.402  12.534 -0.1750 -0.6615  0.0751
15743TIP3    H168720   6.686   1.369  12.451  2.2305  1.7532  0.0248
15743TIP3    H268721   6.556   1.384  12.528 -0.2278  0.0721 -3.5184
15744TIP3   OH268722   5.318   0.622   4.109  0.1484 -0.0377  0.1299
15744TIP3    H168723   5.361   0.605   4.025 -0.0133  0.0396  0.0306
15744TIP3    H268724   5.262   0.546   4.123  0.6807 -0.3661  0.4946
15745TIP3   OH268725   2.648   1.579  16.772 -0.0507  0.0491  0.4030
15745TIP3    H168726   2.686   1.618  16.693  1.4179  0.6782  1.3744
15745TIP3    H268727   2.722   1.572  16.833 -0.4896 -3.2629  0.7030
15746TIP3   OH268728   4.911   4.963  15.559  0.2772 -0.2684 -0.4349
15746TIP3    H168729   4.824   4.953  15.523 -0.7638  0.8249  1.5830
15746TIP3    H268730   4.942   5.047  15.524  0.4400 -0.5515 -0.9769
15747TIP3   OH268731   6.386   3.195  16.493 -0.3098 -0.2513  0.5765
15747TIP3    H168732   6.292   3.180  16.496 -0.7507  0.8947 -3.1250
15747TIP3    H268733   6.400   3.275  16.544 -1.3518 -0.2968  0.9534
15748TIP3   OH268734   0.863   3.516   4.339 -0.1880 -0.5032  0.2871
15748TIP3    H168735   0.776   3.548   4.362  0.1759 -0.0140  1.0705
15748TIP3    H268736   0.899   3.483   4.422 -0.0704 -1.7909 -0.2681
15749TIP3   OH268737   2.165   2.526  13.552 -0.2815 -0.2506  0.6213
15749TIP3    H168738   2.227   2.586  13.594 -0.6884  0.1439  0.6590
15749TIP3    H268739   2.176   2.444  13.600  0.8740 -0.4660  0.0314
15750TIP3   OH268740   5.459   2.602   6.017 -0.2729 -0.0568 -0.2760
15750TIP3    H168741   5.469   2.554   6.099 -1.0106 -0.3340 -0.3374
15750TIP3    H268742   5.439   2.692   6.044 -0.8871 -0.2267 -0.1405
15751TIP3   OH268743   0.294   3.630  17.155  0.1932  0.5240  0.2380
15751TIP3    H168744   0.305   3.621  17.060  0.1906 -0.4555  0.3283
15751TIP3    H268745   0.223   3.570  17.178  0.7310  0.1461  0.9714
15752TIP3   OH268746   1.563   0.474   3.795  0.0902 -0.2881 -0.1453
15752TIP3    H168747   1.640   0.448   3.847  0.0488 -3.7191 -1.5431
15752TIP3    H268748   1.587   0.454   3.705 -1.1029  2.3194 -1.1455
15753TIP3   OH268749   2.812   6.315  15.071  0.3030 -0.3765  1.0418
15753TIP3    H168750   2.791   6.258  15.145 -1.6838  0.5111  1.2340
15753TIP3    H268751   2.742   6.381  15.071  1.1929  0.6418 -0.6163
15754TIP3   OH268752   5.663   5.213  15.187 -0.2790 -0.2669  0.5294
15754TIP3    H168753   5.587   5.159  15.165  0.3104 -0.5400 -0.9278
15754TIP3    H268754   5.626   5.287  15.235 -1.1887 -1.5348  1.8730
15755TIP3   OH268755   3.027   3.312   2.415 -0.1571 -0.0396 -0.3557
15755TIP3    H168756   2.967   3.369   2.464 -1.6273 -1.4978 -0.3734
15755TIP3    H268757   3.057   3.248   2.479  0.7942  0.2199 -0.5319
15756TIP3   OH268758   5.935   6.290  14.616  0.0165  0.0662  0.2525
15756TIP3    H168759   5.950   6.200  14.588  0.9762 -0.0068  0.9573
15756TIP3    H268760   5.928   6.340  14.534 -1.2606 -0.7470 -0.1517
15757TIP3   OH268761   1.920   2.300  16.916 -0.2230  0.4285 -0.3177
15757TIP3    H168762   2.010   2.275  16.895 -1.0631 -0.7268 -2.9941
15757TIP3    H268763   1.928   2.387  16.956  2.3227 -1.1720  3.3150
15758TIP3   OH268764   3.780   4.650   5.480  0.8070 -0.0171 -0.1390
15758TIP3    H168765   3.755   4.589   5.549  1.3210  1.2959  1.2350
15758TIP3    H268766   3.863   4.616   5.446  1.2746  0.1015  0.8674
15759TIP3   OH268767   3.728   2.228   1.463 -0.6323  0.1065  0.3039
15759TIP3    H168768   3.704   2.316   1.491 -0.3213  0.5743 -0.8681
15759TIP3    H268769   3.750   2.236   1.371 -0.3758 -1.1614  0.2261
15760TIP3   OH268770   6.457   0.428  16.817  0.2997  0.2850 -0.3610
15760TIP3    H168771   6.501   0.510  16.793 -1.0493  1.4091  0.8119
15760TIP3    H268772   6.523   0.379  16.866  0.3551  1.8584  1.2184
15761TIP3   OH268773   3.909   4.071   0.478  0.1897  0.1495  0.2253
15761TIP3    H168774   3.860   4.134   0.532 -0.6946  0.9317 -1.3946
15761TIP3    H268775   3.869   4.078   0.392  1.3058 -1.3306 -0.4558
15762TIP3   OH268776   6.216   3.748  15.710 -0.1960  0.0388  0.5345
15762TIP3    H168777   6.176   3.666  15.679 -0.4250  0.5142 -0.4670
15762TIP3    H268778   6.204   3.746  15.805 -1.1756 -0.5709  0.4101
15763TIP3   OH268779   2.064   4.145  14.669 -0.5877  0.5692  0.6817
15763TIP3    H168780   2.105   4.230  14.682 -0.0324  0.7427 -1.8083
15763TIP3    H268781   2.114   4.104  14.599 -2.7996 -0.4670 -0.4069
15764TIP3   OH268782   2.899   1.076  12.768 -0.1159  0.3057  0.0541
15764TIP3    H168783   2.809   1.093  12.793 -0.7304 -1.3055 -0.9256
15764TIP3    H268784   2.923   0.998  12.818  0.7461  0.7097  0.2972
15765TIP3   OH268785   3.062   5.862  15.732  0.4596  0.3039  0.0567
15765TIP3    H168786   3.052   5.890  15.641 -2.9496 -0.2913  0.1318
15765TIP3    H268787   3.136   5.800  15.730  2.5022  2.6157 -1.6315
15766TIP3   OH268788   0.875   4.901  12.130 -0.3934  0.2206 -0.1750
15766TIP3    H168789   0.959   4.880  12.089 -1.2426  0.1136 -1.9320
15766TIP3    H268790   0.815   4.834  12.097 -1.5483  1.2675 -0.2541
15767TIP3   OH268791   4.110   5.118   5.223  0.0894  0.1453  0.2850
15767TIP3    H168792   4.083   5.104   5.133 -1.0662 -0.6137  0.7310
15767TIP3    H268793   4.142   5.033   5.253 -1.6663 -0.2196  1.2643
15768TIP3   OH268794   5.697   0.706  16.094 -0.2535 -0.2380 -0.2965
15768TIP3    H168795   5.620   0.691  16.039  0.4718 -1.3859 -1.0501
15768TIP3    H268796   5.698   0.800  16.109 -1.7662 -0.1976 -0.3084
15769TIP3   OH268797   2.158   0.050  13.327 -0.2909  0.1146 -0.2244
15769TIP3    H168798   2.153   0.084  13.416  1.5764 -0.4496  0.1422
15769TIP3    H268799   2.067   0.046  13.297 -0.9770  0.0647  1.7545
15770TIP3   OH268800   1.666   1.023  12.824  0.3365 -0.0190  0.0362
15770TIP3    H168801   1.727   1.089  12.857  1.5176 -0.6024 -0.8871
15770TIP3    H268802   1.676   0.949  12.885  0.5434 -0.1099 -0.1077
15771TIP3   OH268803   1.835   4.215  14.848 -0.3575 -0.3034  0.2137
15771TIP3    H168804   1.926   4.188  14.856 -0.3404 -0.2858  0.0857
15771TIP3    H268805   1.784   4.136  14.866 -0.3360 -0.1215  1.1078
15772TIP3   OH268806   3.723   5.247   5.096 -0.0246 -0.0453 -0.3183
15772TIP3    H168807   3.756   5.197   5.171  1.4377  2.7241  1.0266
15772TIP3    H268808   3.802   5.277   5.051 -0.8814 -0.4733 -2.2058
15773TIP3   OH268809   4.776   2.296   3.519 -0.4802  0.0549 -0.3179
15773TIP3    H168810   4.795   2.213   3.563 -0.4863  0.3022  0.1549
15773TIP3    H268811   4.701   2.276   3.463 -1.5565  0.1545  1.0556
15774TIP3   OH268812   4.997   0.617   1.563 -0.2353  0.1787  0.2691
15774TIP3    H168813   5.004   0.616   1.468  0.6570 -0.7376  0.3192
15774TIP3    H268814   4.958   0.701   1.584  0.3796  0.7626 -0.8565
15775TIP3   OH268815   1.263   5.120  16.296 -0.2834 -0.1399  0.0810
15775TIP3    H168816   1.313   5.160  16.367  0.1787 -1.0393  0.2818
15775TIP3    H268817   1.193   5.072  16.341 -1.4101  1.1988 -0.1994
15776TIP3   OH268818   5.362   0.267  11.288 -0.3199 -0.1399 -0.2720
15776TIP3    H168819   5.322   0.183  11.308  1.4569 -0.7885  0.7091
15776TIP3    H268820   5.451   0.245  11.259  0.5828  1.4361  1.1388
15777TIP3   OH268821   4.299   0.107   1.908 -0.3009 -0.1749 -0.1771
15777TIP3    H168822   4.358   0.065   1.846  1.3705 -0.9864  1.8496
15777TIP3    H268823   4.211   0.085   1.876  0.5019 -2.6766 -0.9005
15778TIP3   OH268824   6.416   5.870  14.349 -0.5097 -0.0973 -0.0275
15778TIP3    H168825   6.355   5.898  14.280 -0.5826 -0.5404 -0.1462
15778TIP3    H268826   6.491   5.836  14.301 -0.3192  0.1181  0.1184
15779TIP3   OH268827   3.107   6.225  16.624 -0.2497  0.3179 -0.2324
15779TIP3    H168828   3.137   6.213  16.534  0.9435  0.4347  0.1171
15779TIP3    H268829   3.089   6.319  16.630 -0.6129  0.2611 -0.4280
15780TIP3   OH268830   0.552   5.370  11.823  0.1302  0.2116 -0.0137
15780TIP3    H168831   0.596   5.297  11.780 -0.4157  1.2590 -2.5742
15780TIP3    H268832   0.460   5.361  11.798 -0.1261  1.1585  0.5266
15781TIP3   OH268833   0.887   5.350  10.979  0.4318  0.3508 -0.9606
15781TIP3    H168834   0.917   5.349  10.888  0.5837  1.2859 -0.9314
15781TIP3    H268835   0.964   5.372  11.030  0.3736 -0.2857 -0.5789
15782TIP3   OH268836   5.801   2.985  16.762 -0.1745  0.5338  0.2703
15782TIP3    H168837   5.766   3.075  16.757 -1.0164  0.1943 -0.2190
15782TIP3    H268838   5.724   2.929  16.753  0.1548 -0.2543  2.0180
15783TIP3   OH268839   3.473   1.861   5.240  0.1739 -0.2964  0.0780
15783TIP3    H168840   3.506   1.781   5.281 -0.3185 -0.0623  0.9544
15783TIP3    H268841   3.421   1.829   5.166 -0.9740 -0.8850  1.0782
15784TIP3   OH268842   5.757   4.696  14.545  0.1490  1.2175  0.2318
15784TIP3    H168843   5.818   4.648  14.601  1.1822  0.8303 -1.1433
15784TIP3    H268844   5.713   4.629  14.494  1.2449  1.6443 -1.3604
15785TIP3   OH268845   2.507   0.795   1.047 -0.2017 -0.6397  0.0509
15785TIP3    H168846   2.594   0.822   1.018 -0.5324  0.2887 -0.1320
15785TIP3    H268847   2.512   0.792   1.142 -0.6200  1.9198  0.2197
15786TIP3   OH268848   2.030   1.611   3.358 -0.4961 -0.1278  0.0427
15786TIP3    H168849   2.027   1.694   3.311  0.8531 -1.4855 -2.6963
15786TIP3    H268850   2.098   1.623   3.424 -0.2179  0.8891 -0.4103
15787TIP3   OH268851   5.636   5.191  13.599  0.1387 -0.2731  0.4488
15787TIP3    H168852   5.713   5.204  13.654  0.9581 -1.3596 -0.3945
15787TIP3    H268853   5.670   5.193  13.510 -1.3387  2.6868 -0.1677
15788TIP3   OH268854   0.850   2.151  10.855 -0.3544 -0.4333  0.3288
15788TIP3    H168855   0.837   2.165  10.949  1.3544  1.1783  0.3783
15788TIP3    H268856   0.788   2.211  10.813  1.2446  1.4293  0.5023
15789TIP3   OH268857   3.775   0.818  11.308  0.2417 -0.0314  0.0947
15789TIP3    H168858   3.706   0.863  11.357  1.2899  1.0542  0.6497
15789TIP3    H268859   3.768   0.727  11.335 -0.5527  0.1769  0.6432
15790TIP3   OH268860   3.214   5.871   5.579 -0.7271 -0.8506  0.3499
15790TIP3    H168861   3.250   5.790   5.542  0.0113 -1.5682  2.4517
15790TIP3    H268862   3.273   5.940   5.550 -0.7380 -1.2145 -0.5692
15791TIP3   OH268863   5.975   5.307   2.651  0.3481  0.3276  0.3955
15791TIP3    H168864   6.030   5.334   2.577  0.6445  2.7803  1.4063
15791TIP3    H268865   5.889   5.292   2.612  0.5786  1.2447 -0.5316
15792TIP3   OH268866   6.268   1.125   3.643 -0.8811 -0.1920  0.2502
15792TIP3    H168867   6.234   1.170   3.566  3.3709  0.3655 -1.6193
15792TIP3    H268868   6.273   1.033   3.617  0.2882 -0.0467 -0.1107
15793TIP3   OH268869   4.673   1.400   0.670  0.6916  0.0976  0.2150
15793TIP3    H168870   4.766   1.378   0.675  0.8643  0.4835 -1.0158
15793TIP3    H268871   4.638   1.376   0.756  1.8829 -0.2352  0.6238
15794TIP3   OH268872   4.534   0.050   2.941  1.1059  0.2824  0.0650
15794TIP3    H168873   4.580  -0.034   2.941  0.3977 -0.1194  1.0595
15794TIP3    H268874   4.528   0.074   3.033 -1.4833 -0.1408  0.0818
15795TIP3   OH268875   4.621   5.503   1.483  0.3418  0.3585 -0.1097
15795TIP3    H168876   4.705   5.511   1.437 -0.1558  1.6991 -0.8295
15795TIP3    H268877   4.557   5.486   1.414  0.0483 -1.1591  0.4796
15796TIP3   OH268878   6.375   6.798   2.748  0.1778  0.3487 -0.3133
15796TIP3    H168879   6.461   6.826   2.715  1.0718 -1.3032  0.4593
15796TIP3    H268880   6.378   6.817   2.842 -0.7997  1.3737 -0.4711
15797TIP3   OH268881   2.999   2.639   3.508  0.3306  0.3756 -0.1171
15797TIP3    H168882   3.087   2.613   3.481  0.3397 -0.0407  0.3068
15797TIP3    H268883   2.981   2.719   3.457  1.1982  0.8199  0.2549
15798TIP3   OH268884   6.808   5.936   3.694  0.3968 -0.0917  0.1597
15798TIP3    H168885   6.789   6.023   3.731 -0.4897 -0.2987  0.2241
15798TIP3    H268886   6.890   5.910   3.736  0.8223  0.8313 -0.0695
15799TIP3   OH268887   2.345   5.534  14.897  0.2919  0.0080  0.3996
15799TIP3    H168888   2.348   5.613  14.949  0.1808 -0.4464  1.1092
15799TIP3    H268889   2.300   5.559  14.816 -0.4791  0.4650  0.9655
15800TIP3   OH268890   3.320   0.848  14.945  0.1190 -0.3969 -0.4872
15800TIP3    H168891   3.227   0.825  14.952 -0.1808  0.6150 -0.9254
15800TIP3    H268892   3.363   0.798  15.014 -0.7922 -0.6580 -0.0980
15801TIP3   OH268893   0.445   2.650  15.736 -0.2783  0.2260 -0.1300
15801TIP3    H168894   0.501   2.573  15.725  0.9783  1.1549 -0.4156
15801TIP3    H268895   0.356   2.616  15.725  0.2285 -1.2159 -0.0462
15802TIP3   OH268896   3.187   2.490   2.258  0.5759  0.0752 -0.4003
15802TIP3    H168897   3.257   2.554   2.270 -0.2277  1.6059 -3.0197
15802TIP3    H268898   3.215   2.437   2.183 -0.7403  0.3181 -1.1056
15803TIP3   OH268899   1.012   6.306  16.032 -0.0079 -0.1604 -0.1180
15803TIP3    H168900   0.957   6.237  15.996  0.0755 -1.2665  1.7212
15803TIP3    H268901   1.030   6.364  15.958 -1.1342 -1.4085 -1.4295
15804TIP3   OH268902   2.593   1.050   1.976  0.5268 -0.1341 -0.1304
15804TIP3    H168903   2.617   1.139   1.949  0.8132 -0.4691 -1.0115
15804TIP3    H268904   2.675   1.010   2.003  0.0588  0.7398  3.0911
15805TIP3   OH268905   3.916   4.252  12.523  0.1179  0.0517  0.4841
15805TIP3    H168906   3.950   4.338  12.547 -0.8970  0.2984  1.1289
15805TIP3    H268907   3.899   4.258  12.429 -0.8107  0.8949  0.6837
15806TIP3   OH268908   3.073   0.755  14.932  0.2400 -0.0083 -0.7052
15806TIP3    H168909   3.083   0.661  14.950 -0.5525  0.0677  0.2153
15806TIP3    H268910   3.016   0.786  15.002  0.7296  1.2249 -0.8418
15807TIP3   OH268911   4.699   6.523  12.742  0.0966  0.5222 -0.5083
15807TIP3    H168912   4.636   6.474  12.796  0.5126  0.9685  0.3878
15807TIP3    H268913   4.784   6.488  12.766  0.4979  2.2980  0.8474
15808TIP3   OH268914   6.534   1.289  15.850  0.8072  0.1717 -0.4672
15808TIP3    H168915   6.494   1.376  15.855  0.6066  0.0159  1.2385
15808TIP3    H268916   6.462   1.231  15.824 -0.4259 -0.2065  3.1690
15809TIP3   OH268917   1.663   2.754  15.069 -0.3353  0.1940  0.3438
15809TIP3    H168918   1.757   2.750  15.054 -0.6115  1.2912 -1.9877
15809TIP3    H268919   1.655   2.770  15.163  1.7798 -0.1351  0.6275
15810TIP3   OH268920   3.522   6.141   4.237  0.1050  0.0121 -0.2964
15810TIP3    H168921   3.525   6.228   4.198 -3.7838  1.0187  1.0824
15810TIP3    H268922   3.465   6.091   4.180  1.3944 -1.3245 -0.4635
15811TIP3   OH268923   0.629   1.947  15.956  0.5032 -0.6082 -0.3392
15811TIP3    H168924   0.666   1.864  15.985  0.9349 -0.9787 -1.8411
15811TIP3    H268925   0.650   1.951  15.863 -1.2860  0.2212 -0.7553
15812TIP3   OH268926   1.109   6.823   0.877  0.5678 -0.2517 -0.6848
15812TIP3    H168927   1.115   6.872   0.795  0.5965 -1.2943 -1.3228
15812TIP3    H268928   1.031   6.768   0.867  0.3002 -0.0600  0.1832
15813TIP3   OH268929   5.179   1.674  14.732 -0.8182 -0.0042 -0.8341
15813TIP3    H168930   5.146   1.593  14.694 -2.5495  1.2904 -2.3013
15813TIP3    H268931   5.125   1.689  14.810 -0.4561 -0.2848 -0.5275
15814TIP3   OH268932   6.611   0.291  16.203 -0.4323  0.0186  0.3206
15814TIP3    H168933   6.593   0.371  16.154  0.6239 -0.3201 -0.6831
15814TIP3    H268934   6.645   0.320  16.287 -1.8181  0.6120  0.7050
15815TIP3   OH268935   3.888   1.148  13.559 -0.4014  0.5456 -0.0150
15815TIP3    H168936   3.809   1.176  13.606 -0.9272  0.1601 -0.6637
15815TIP3    H268937   3.890   1.053  13.570  0.1711  0.5917  0.3008
15816TIP3   OH268938   3.386   0.566  13.264  0.0765 -0.9026 -0.0523
15816TIP3    H168939   3.291   0.567  13.262  0.0426  0.5178  1.0889
15816TIP3    H268940   3.412   0.568  13.171 -1.0122  0.5776 -0.3515
15817TIP3   OH268941   2.280   5.685   3.824 -0.2093 -0.5341 -0.1006
15817TIP3    H168942   2.271   5.772   3.785 -0.2316 -0.9126 -0.9693
15817TIP3    H268943   2.200   5.672   3.875 -0.4609 -0.2730 -0.4271
15818TIP3   OH268944   0.856   4.715   3.113  0.4286 -0.4582  0.4919
15818TIP3    H168945   0.820   4.801   3.090  0.2505 -0.8456 -0.7658
15818TIP3    H268946   0.790   4.652   3.083  0.0571 -1.0215  2.3869
15819TIP3   OH268947   1.978   3.203  10.703  0.0311  0.3573 -0.1146
15819TIP3    H168948   1.964   3.123  10.752  0.1812  0.3948 -0.0101
15819TIP3    H268949   2.006   3.173  10.616  1.5022  0.3082  0.3580
15820TIP3   OH268950   6.318   3.971  10.644  0.8955  0.0729 -0.3104
15820TIP3    H168951   6.368   3.911  10.699  1.7641  2.8224  2.1235
15820TIP3    H268952   6.237   3.924  10.624  2.3075 -2.5800 -0.1997
15821TIP3   OH268953   6.626   2.183  15.018  0.1102 -0.4040 -0.8378
15821TIP3    H168954   6.705   2.127  15.017 -0.0793 -0.6909 -0.2360
15821TIP3    H268955   6.564   2.136  14.962 -0.6493 -1.7152  1.0238
15822TIP3   OH268956   6.535   0.738   5.602  0.5294  0.2976  0.1947
15822TIP3    H168957   6.441   0.745   5.587  0.5458  0.4670  0.1673
15822TIP3    H268958   6.571   0.821   5.571  0.5680  0.6518  1.1448
15823TIP3   OH268959   4.633   3.950  16.394  0.1036  0.0142  0.2827
15823TIP3    H168960   4.610   3.870  16.441 -2.7067  0.0806 -0.7957
15823TIP3    H268961   4.637   4.017  16.462  0.6831 -0.6913  0.9670
15824TIP3   OH268962   1.248   5.809  13.118 -0.1069  0.5206  0.5199
15824TIP3    H168963   1.269   5.864  13.194 -0.9397  0.2747  0.9364
15824TIP3    H268964   1.224   5.872  13.050 -1.0032  0.7010  0.9789
15825TIP3   OH268965   4.328   5.123  14.202 -0.0411 -0.6205  0.1492
15825TIP3    H168966   4.386   5.129  14.126 -0.4902 -0.0628 -0.1607
15825TIP3    H268967   4.376   5.166  14.273  0.4724 -1.3395  0.2439
15826TIP3   OH268968   4.895   6.391  16.172 -0.3674 -0.1648 -0.6607
15826TIP3    H168969   4.821   6.451  16.181 -1.2353 -1.3004  0.0428
15826TIP3    H268970   4.956   6.437  16.113 -0.5186  1.8333  0.6261
15827TIP3   OH268971   3.097   6.602  16.889 -0.3227  0.0590  0.6097
15827TIP3    H168972   3.191   6.610  16.906 -0.4229  0.8413  0.8395
15827TIP3    H268973   3.058   6.678  16.933 -0.9578  0.2954 -0.3325
15828TIP3   OH268974   4.540   1.667   6.224 -0.1471 -0.3319  0.1713
15828TIP3    H168975   4.636   1.675   6.216 -0.2526  1.1930  0.1447
15828TIP3    H268976   4.515   1.741   6.278 -1.2278 -1.2989  1.0197
15829TIP3   OH268977   4.758   4.753   2.479  0.4625  0.0264  0.2994
15829TIP3    H168978   4.845   4.778   2.508 -0.4820  1.4610  2.0509
15829TIP3    H268979   4.725   4.830   2.432  0.4469 -0.8451 -1.2013
15830TIP3   OH268980   3.313   2.827   4.698 -0.7742  0.1301  0.1712
15830TIP3    H168981   3.341   2.789   4.616  0.0416  1.5567 -0.2511
15830TIP3    H268982   3.394   2.854   4.742 -1.2823  1.1250  0.5465
15831TIP3   OH268983   2.899   1.840   5.712 -0.3734 -0.4893  0.3926
15831TIP3    H168984   2.945   1.923   5.703  0.0140 -0.4145  2.4754
15831TIP3    H268985   2.807   1.864   5.722 -0.3822 -0.3771  0.0403
15832TIP3   OH268986   4.897   5.950   1.505 -0.0568 -0.2182 -0.3374
15832TIP3    H168987   4.975   6.005   1.496 -0.1486  0.2163  1.1403
15832TIP3    H268988   4.825   6.006   1.477 -0.0008 -0.0446 -0.1424
15833TIP3   OH268989   0.096   6.103  10.915  0.0565 -0.0014  0.2816
15833TIP3    H168990   0.177   6.136  10.875  0.3360 -1.3908 -0.3722
15833TIP3    H268991   0.030   6.112  10.846 -0.2842  0.8194  0.7031
15834TIP3   OH268992   2.419   1.085  15.167  0.1964 -0.0716 -0.8097
15834TIP3    H168993   2.384   1.155  15.112  0.8770  0.1765 -0.9378
15834TIP3    H268994   2.490   1.126  15.217 -0.4256 -0.2895  0.2842
15835TIP3   OH268995   2.575   1.176  13.506 -0.2664  0.2988 -0.1787
15835TIP3    H168996   2.569   1.089  13.547 -2.6575  0.1121 -0.7644
15835TIP3    H268997   2.615   1.231  13.573  1.5008 -1.2667  0.1378
15836TIP3   OH268998   3.923   5.997   5.079  0.1875  0.0919  0.1995
15836TIP3    H168999   3.843   5.953   5.051  0.2203  1.7668 -3.0233
15836TIP3    H269000   3.989   5.970   5.015  0.8806  2.5307 -0.2269
15837TIP3   OH269001   5.073   4.103  15.923  0.1577 -0.5587 -0.0850
15837TIP3    H169002   4.999   4.058  15.884  0.7854  0.4087 -2.5903
15837TIP3    H269003   5.034   4.170  15.979 -0.8858 -0.1767 -1.2317
15838TIP3   OH269004   4.774   0.752  11.514 -0.0359  0.5715  0.0967
15838TIP3    H169005   4.730   0.793  11.440  2.4065  0.9327 -1.2374
15838TIP3    H269006   4.843   0.813  11.539  0.7394 -0.6392  1.0673
15839TIP3   OH269007   0.665   2.754  16.216  0.2103 -0.2428 -0.1008
15839TIP3    H169008   0.650   2.848  16.228  2.9330  0.1467  0.8999
15839TIP3    H269009   0.736   2.733  16.277 -1.9745 -3.5329  1.6018
15840TIP3   OH269010   6.054   5.117  15.354 -0.2492  0.6218  0.0630
15840TIP3    H169011   6.137   5.147  15.389  0.0013  0.2807 -0.2303
15840TIP3    H269012   6.054   5.148  15.263 -0.3651  0.4736  0.0118
15841TIP3   OH269013   1.155   0.787   6.173  0.4774  0.4739  0.4400
15841TIP3    H169014   1.109   0.843   6.236 -1.2308  0.4983 -0.7455
15841TIP3    H269015   1.193   0.847   6.109 -0.5057  0.3592 -0.2789
15842TIP3   OH269016   3.468   2.644   4.149  0.3190 -0.3851  0.0153
15842TIP3    H169017   3.396   2.707   4.138  0.5674  0.0445  0.7662
15842TIP3    H269018   3.531   2.689   4.204  1.7466 -0.2992 -1.5985
15843TIP3   OH269019   5.307   3.602  13.472 -1.0479 -0.1920  0.1854
15843TIP3    H169020   5.399   3.590  13.449 -1.3177  1.0364 -1.7300
15843TIP3    H269021   5.309   3.658  13.550 -0.1356  1.8059 -1.1661
15844TIP3   OH269022   0.277   4.737  14.538 -0.0005 -0.4929 -0.4670
15844TIP3    H169023   0.270   4.755  14.631 -1.9316  0.6915 -0.7911
15844TIP3    H269024   0.231   4.654  14.526  0.0551 -0.5325 -0.4075
15845TIP3   OH269025   2.968   4.592  17.184  0.2494  0.5632 -0.4767
15845TIP3    H169026   2.953   4.686  17.189  1.3019  0.6812  2.0548
15845TIP3    H269027   2.889   4.553  17.221 -0.2022  0.4145 -1.5588
15846TIP3   OH269028   3.085   5.705  12.524  1.1718 -0.0850 -0.4351
15846TIP3    H169029   3.142   5.753  12.464 -1.5854  1.5153 -1.9893
15846TIP3    H269030   3.078   5.760  12.601  1.5765 -0.2059 -0.3108
15847TIP3   OH269031   2.619   5.600   0.959 -0.1070 -0.3130  0.0991
15847TIP3    H169032   2.552   5.625   1.023 -0.1446 -0.3460  0.0724
15847TIP3    H269033   2.609   5.663   0.888 -0.3116 -0.5011 -0.0448
15848TIP3   OH269034   0.640   4.683  16.369  0.3272 -0.7677 -0.0874
15848TIP3    H169035   0.598   4.765  16.342  0.6235 -0.5645  0.0573
15848TIP3    H269036   0.733   4.705  16.373  0.2502 -0.6172  1.6869
15849TIP3   OH269037   2.811   2.422  14.155  0.5996 -0.1566 -0.0794
15849TIP3    H169038   2.765   2.402  14.236  0.4211 -1.0800 -0.3977
15849TIP3    H269039   2.753   2.482  14.108  0.5181  0.0550  0.2906
15850TIP3   OH269040   2.887   6.223   2.081  0.5463  0.4974  0.4902
15850TIP3    H169041   2.865   6.133   2.056  0.2320  0.6690  0.1418
15850TIP3    H269042   2.807   6.257   2.120 -0.1778  1.4630 -1.7191
15851TIP3   OH269043   1.641   3.089  13.229  0.2025 -0.4366  0.4800
15851TIP3    H169044   1.648   3.001  13.266  0.9256 -0.6824 -0.2211
15851TIP3    H269045   1.596   3.076  13.145  2.5620 -0.5192 -0.8561
15852TIP3   OH269046   4.492   2.331  12.731  0.4796 -0.2718 -0.1246
15852TIP3    H169047   4.444   2.248  12.728 -0.0928  0.0661 -0.6883
15852TIP3    H269048   4.447   2.381  12.799 -1.4877  0.9103 -2.1519
15853TIP3   OH269049   3.719   0.598  15.784  0.7199 -0.0654 -0.1280
15853TIP3    H169050   3.710   0.693  15.777  3.2315  0.2106 -0.4527
15853TIP3    H269051   3.796   0.577  15.731  0.1442 -2.3192 -0.1724
15854TIP3   OH269052   4.189   3.523  11.536 -0.5136 -0.3551  0.3803
15854TIP3    H169053   4.142   3.578  11.473  2.1768  0.4741 -1.0745
15854TIP3    H269054   4.164   3.557  11.621 -0.8634  1.4989 -0.4116
15855TIP3   OH269055   4.980   0.223   0.696  0.0665  0.1261  0.2203
15855TIP3    H169056   4.887   0.204   0.711  0.4314 -2.2880 -0.2339
15855TIP3    H269057   4.988   0.230   0.601  0.0261  2.5293  0.3360
15856TIP3   OH269058   2.322   3.228  16.401  0.7318  0.0816  0.3564
15856TIP3    H169059   2.355   3.254  16.315  0.9094  0.4407  0.5338
15856TIP3    H269060   2.382   3.269  16.464 -0.4590  1.3483  0.7088
15857TIP3   OH269061   4.191   4.648   1.872  0.5299 -0.3369 -0.2055
15857TIP3    H169062   4.248   4.724   1.887 -0.2887 -0.1165  2.4217
15857TIP3    H269063   4.234   4.576   1.919 -0.4716 -0.5696  0.3969
15858TIP3   OH269064   1.923   2.380   0.457  0.4097  0.1751  0.1495
15858TIP3    H169065   1.856   2.394   0.390  1.0875 -1.8064 -1.0569
15858TIP3    H269066   1.897   2.436   0.530 -1.6452  0.6709 -0.8823
15859TIP3   OH269067   1.270   3.336  13.558  0.2197 -0.2194 -0.6154
15859TIP3    H169068   1.333   3.280  13.513 -2.1368 -2.7299 -1.0414
15859TIP3    H269069   1.222   3.277  13.616 -0.8091  1.8409  0.7493
15860TIP3   OH269070   1.346   2.028   0.240  0.2753 -0.3455 -0.8408
15860TIP3    H169071   1.325   2.102   0.183  1.6558 -0.0743 -1.0292
15860TIP3    H269072   1.271   2.021   0.299  0.4380  1.6817 -0.3295
15861TIP3   OH269073   4.355   5.392   4.569 -0.0298 -0.0300 -0.7224
15861TIP3    H169074   4.332   5.402   4.662  0.5666  1.1421 -0.6828
15861TIP3    H269075   4.382   5.300   4.561  1.0713  0.1473  0.5366
15862TIP3   OH269076   4.715   0.293  12.223 -0.2250  0.2449 -0.3902
15862TIP3    H169077   4.786   0.279  12.286 -0.3755  0.1688 -0.2341
15862TIP3    H269078   4.667   0.210  12.222 -0.6301  0.4687 -0.0855
15863TIP3   OH269079   2.676   5.556   0.343 -0.4507  0.1894  0.2128
15863TIP3    H169080   2.661   5.488   0.277 -4.1710  0.0855  0.9368
15863TIP3    H269081   2.685   5.508   0.425 -0.5055  0.4898  0.3952
15864TIP3   OH269082   4.356   4.706  10.773 -0.0855  0.1230  0.3742
15864TIP3    H169083   4.437   4.658  10.791 -0.2391 -0.3230 -0.1152
15864TIP3    H269084   4.289   4.662  10.824  0.0350  0.7066  1.0557
15865TIP3   OH269085   4.061   0.112   1.771 -0.2654 -0.2496 -0.0082
15865TIP3    H169086   4.044   0.205   1.754 -1.0441 -0.7743 -2.4292
15865TIP3    H269087   3.992   0.086   1.832 -0.4497  0.5850  0.1490
15866TIP3   OH269088   2.307   6.402   1.865  0.0268  0.2919  0.5772
15866TIP3    H169089   2.251   6.422   1.940 -2.3352  2.6554 -1.6072
15866TIP3    H269090   2.379   6.465   1.872 -0.3288  0.6887  0.7498
15867TIP3   OH269091   3.430   4.642   0.336  0.2983  0.2050 -0.1208
15867TIP3    H169092   3.342   4.671   0.313  0.6680  2.5101  1.0611
15867TIP3    H269093   3.487   4.694   0.279  0.9277 -2.0440 -1.6507
15868TIP3   OH269094   4.242   5.367  14.050 -0.0028 -0.5460 -0.3689
15868TIP3    H169095   4.283   5.305  14.110  0.6149  1.1406  1.0263
15868TIP3    H269096   4.314   5.417  14.012 -0.4640 -0.8727 -1.7534
15869TIP3   OH269097   3.351   6.716   4.817 -0.2727  0.7152 -0.4530
15869TIP3    H169098   3.401   6.744   4.893  0.1524 -1.3160  0.0586
15869TIP3    H269099   3.260   6.740   4.837 -0.3537 -0.8220  1.2622
15870TIP3   OH269100   3.780   6.761   3.797 -0.4660 -0.0486 -0.7496
15870TIP3    H169101   3.856   6.801   3.840 -0.4257  1.0119 -1.7514
15870TIP3    H269102   3.807   6.671   3.780  0.2236  0.0598 -0.2740
15871TIP3   OH269103   4.179   0.999  14.271 -0.2287 -0.3986 -0.0013
15871TIP3    H169104   4.097   1.047  14.282 -1.1469 -1.5333 -1.4745
15871TIP3    H269105   4.159   0.909  14.299  0.7544 -0.5108  0.4063
15872TIP3   OH269106   0.013   3.861   5.141 -0.7545  0.8262 -0.1708
15872TIP3    H169107   0.060   3.796   5.193 -0.8848  0.7789 -0.1116
15872TIP3    H269108  -0.076   3.826   5.133 -1.1085  1.4663  0.7138
15873TIP3   OH269109   5.176   4.819  15.101 -0.1683  0.4109  0.0716
15873TIP3    H169110   5.154   4.907  15.130  2.1601  0.9438  0.4154
15873TIP3    H269111   5.211   4.830  15.013 -1.6430 -0.4523 -0.6555
15874TIP3   OH269112   1.244   4.746   2.093  0.2585  0.4250  0.2956
15874TIP3    H169113   1.333   4.761   2.125 -0.1435  0.4283  1.4407
15874TIP3    H269114   1.207   4.681   2.154 -0.6735  0.7567  0.0984
15875TIP3   OH269115   5.431   4.942  13.632  0.0002  0.2589  0.6951
15875TIP3    H169116   5.439   4.949  13.537 -1.9222  1.6089  0.5681
15875TIP3    H269117   5.455   5.029  13.665  0.7591 -0.2268  1.4629
15876TIP3   OH269118   2.935   5.933   6.293 -0.1222 -0.7006  0.4295
15876TIP3    H169119   2.996   6.006   6.288 -2.5020  1.4313  0.6375
15876TIP3    H269120   2.916   5.923   6.386  0.6422 -2.0190  0.4601
15877TIP3   OH269121   1.383   6.522   0.774 -0.0208  0.3771 -0.2541
15877TIP3    H169122   1.455   6.465   0.799 -0.6020 -1.0603 -1.7306
15877TIP3    H269123   1.402   6.547   0.683  0.4978  3.0320  0.4805
15878TIP3   OH269124   0.270   2.164  16.875  0.3431 -0.3081  0.2262
15878TIP3    H169125   0.337   2.186  16.811  0.1751  0.6462  0.3627
15878TIP3    H269126   0.188   2.167  16.826  0.3455 -1.0955  0.1505
15879TIP3   OH269127   4.138   4.666   4.043 -0.3779 -0.1574  0.0521
15879TIP3    H169128   4.087   4.586   4.056 -1.9990  0.7931 -0.1653
15879TIP3    H269129   4.078   4.724   3.995  0.4845  1.4577  0.8811
15880TIP3   OH269130   5.987   3.509  12.125  0.5922 -0.2060 -0.2031
15880TIP3    H169131   5.917   3.454  12.160  0.7143 -1.7467 -2.2317
15880TIP3    H269132   6.057   3.447  12.103  1.7328  1.0577 -0.2672
15881TIP3   OH269133   2.967   3.278   0.620  0.1455 -0.5649  0.2332
15881TIP3    H169134   2.989   3.363   0.583 -0.9822  0.2676  1.3922
15881TIP3    H269135   3.020   3.215   0.570  1.7085  0.8886 -0.0048
15882TIP3   OH269136   6.412   4.323  15.997 -0.1118 -0.3125 -0.8238
15882TIP3    H169137   6.373   4.402  15.959 -1.3886  0.0727  1.1752
15882TIP3    H269138   6.472   4.355  16.064  1.4356 -1.0192 -1.8001
15883TIP3   OH269139   3.728   5.299   0.870 -0.1701  0.2048  0.0301
15883TIP3    H169140   3.632   5.298   0.872 -0.2171 -0.3766 -1.1719
15883TIP3    H269141   3.753   5.222   0.921 -0.3466  0.2916  0.2498
15884TIP3   OH269142   0.043   4.192   6.115  0.0185 -0.4757  0.3077
15884TIP3    H169143   0.005   4.271   6.078 -1.6170 -1.4357 -0.1687
15884TIP3    H269144   0.061   4.136   6.039  2.0136 -0.2557  0.5545
15885TIP3   OH269145   1.247   3.438  12.948 -0.3994  0.4211  0.2241
15885TIP3    H169146   1.307   3.378  12.992 -0.3921  0.1780 -0.1081
15885TIP3    H269147   1.304   3.496  12.897 -0.4932 -1.2918 -1.9742
15886TIP3   OH269148   3.809   3.675  16.553  0.7681  0.5187 -0.0429
15886TIP3    H169149   3.808   3.632  16.638  0.9825 -0.4099 -0.4949
15886TIP3    H269150   3.893   3.721  16.550  0.6702  0.7183  0.3270
15887TIP3   OH269151   2.913   6.439   5.830  0.4051  0.3076  0.3660
15887TIP3    H169152   2.973   6.509   5.806  0.8487 -0.1898 -0.0050
15887TIP3    H269153   2.826   6.478   5.820  0.6079  0.4842 -0.9412
15888TIP3   OH269154   3.729   2.353  16.891  0.2621 -0.0724 -0.1968
15888TIP3    H169155   3.746   2.407  16.968  0.7223  1.5837 -1.4185
15888TIP3    H269156   3.761   2.405  16.817 -0.3224 -1.5394 -1.5375
15889TIP3   OH269157   2.998   0.269  10.905  0.0408 -0.1079  0.1646
15889TIP3    H169158   3.046   0.193  10.940 -1.2773 -0.9763  0.1647
15889TIP3    H269159   3.002   0.258  10.810 -0.4430 -0.3827  0.1717
15890TIP3   OH269160   4.540   6.418  17.102  0.1083 -0.1632  0.0581
15890TIP3    H169161   4.525   6.335  17.146 -0.1528 -1.2320 -1.9338
15890TIP3    H269162   4.622   6.406  17.055  0.1152  0.7274 -0.1774
15891TIP3   OH269163   2.143   3.635  16.249 -0.3303  0.2000  0.3651
15891TIP3    H169164   2.121   3.588  16.329  3.2200  0.4502  1.6370
15891TIP3    H269165   2.116   3.726  16.266 -2.4389 -0.2848 -0.0674
15892TIP3   OH269166   5.423   2.555   4.275  0.1765 -0.1174  0.1189
15892TIP3    H169167   5.472   2.607   4.338  0.0510  1.3956 -0.9801
15892TIP3    H269168   5.353   2.613   4.245 -0.1581 -1.0208 -0.9171
15893TIP3   OH269169   3.546   4.360  16.029 -0.3647 -0.3670 -0.2610
15893TIP3    H169170   3.587   4.371  16.115 -0.8934 -0.7380  0.0467
15893TIP3    H269171   3.584   4.428  15.975 -1.5312  1.2265  0.8222
15894TIP3   OH269172   2.810   6.364   0.770  0.2559  0.6829  0.0205
15894TIP3    H169173   2.811   6.426   0.698  1.9974  0.3808 -0.2617
15894TIP3    H269174   2.874   6.398   0.833  1.0367 -0.6455 -0.0111
15895TIP3   OH269175   6.299   1.235  15.676  0.6758  0.6190 -0.3042
15895TIP3    H169176   6.311   1.276  15.591  1.5835 -1.1634 -1.0815
15895TIP3    H269177   6.205   1.247  15.695  0.0001 -0.6352 -2.4974
15896TIP3   OH269178   5.545   2.996  12.181  0.5343 -0.4031 -0.6101
15896TIP3    H169179   5.505   3.058  12.119  0.6298 -1.7254 -2.0377
15896TIP3    H269180   5.631   3.033  12.200  0.4685  0.0685 -1.1962
15897TIP3   OH269181   4.133   3.980  14.404  0.5442  0.2133 -0.5301
15897TIP3    H169182   4.074   4.035  14.455 -0.4047 -1.7458  0.6040
15897TIP3    H269183   4.139   4.023  14.319 -0.4787  1.7991  0.1523
15898TIP3   OH269184   6.261   5.961  14.149 -0.3341  0.3377 -0.2843
15898TIP3    H169185   6.169   5.944  14.126 -1.0316  2.6595  0.5130
15898TIP3    H269186   6.306   5.965  14.065 -1.2121  0.3774 -0.7707
15899TIP3   OH269187   3.592   4.607   0.832 -0.3935 -0.2029  0.1771
15899TIP3    H169188   3.586   4.641   0.922 -0.1848 -2.0435  0.9288
15899TIP3    H269189   3.685   4.611   0.811 -0.4060 -0.0320  0.1547
15900TIP3   OH269190   3.704   5.481  13.671 -0.1115 -0.8392  0.3507
15900TIP3    H169191   3.762   5.411  13.701 -0.2709  0.1218  3.2311
15900TIP3    H269192   3.641   5.437  13.615  1.7485 -2.3840 -0.6484
15901TIP3   OH269193   0.548   3.684   0.532 -0.0260  0.4288 -0.1134
15901TIP3    H169194   0.462   3.725   0.520 -0.0312  0.0207 -1.6150
15901TIP3    H269195   0.597   3.708   0.454  1.5549  1.3944  1.1384
15902TIP3   OH269196   0.690   5.698  15.963  0.7227 -0.2091  0.7819
15902TIP3    H169197   0.704   5.623  15.906 -3.5050 -0.1070 -0.7501
15902TIP3    H269198   0.728   5.772  15.916 -1.6567 -0.3301 -1.5995
15903TIP3   OH269199   1.831   6.781  12.122 -0.1902  0.5293 -0.0143
15903TIP3    H169200   1.848   6.872  12.147 -1.1245  0.6841  0.0867
15903TIP3    H269201   1.852   6.777  12.029  1.3432  0.4546  0.3058
15904TIP3   OH269202   0.175   0.730  13.141 -0.2462 -0.2888  0.0586
15904TIP3    H169203   0.142   0.798  13.082  0.9558 -1.2855 -1.8611
15904TIP3    H269204   0.115   0.657  13.129 -0.6475 -0.1165  0.9553
15905TIP3   OH269205   0.378   2.608  11.690 -0.1217  0.3477  0.0811
15905TIP3    H169206   0.287   2.588  11.711 -0.1974 -0.4063 -0.8498
15905TIP3    H269207   0.401   2.545  11.622  0.7454  1.2719 -0.5196
15906TIP3   OH269208   3.980   3.457  16.191  0.3322  0.2946 -0.2142
15906TIP3    H169209   3.991   3.477  16.098  0.5730  1.2018 -0.0013
15906TIP3    H269210   3.949   3.539  16.230  0.0892 -0.1139  0.4865
15907TIP3   OH269211   5.005   6.637   6.279 -0.3024  0.1581  0.2555
15907TIP3    H169212   5.003   6.541   6.280 -0.2700  0.0778 -1.8619
15907TIP3    H269213   5.085   6.659   6.230 -1.7367  1.1441 -1.8093
15908TIP3   OH269214   0.602   2.042  15.084 -0.2361 -0.5698 -0.6252
15908TIP3    H169215   0.673   2.092  15.124  0.5604 -2.1614  0.0667
15908TIP3    H269216   0.583   2.088  15.002 -1.4970  2.4519  1.1792
15909TIP3   OH269217   1.696   2.940   6.030 -0.1107  0.1344 -0.5274
15909TIP3    H169218   1.743   2.954   6.112  0.9981 -0.9306 -0.9482
15909TIP3    H269219   1.664   3.027   6.005  1.2331  0.8184  0.0254
15910TIP3   OH269220   1.942   1.549   0.639 -0.3666 -0.7663 -0.1053
15910TIP3    H169221   1.975   1.489   0.706  0.9554  0.6052  0.5233
15910TIP3    H269222   1.913   1.626   0.688 -1.1989 -0.5074 -0.9699
15911TIP3   OH269223   4.222   4.606  17.292  0.4515  0.3535 -0.6308
15911TIP3    H169224   4.222   4.577  17.201 -2.5758 -1.7975 -0.1562
15911TIP3    H269225   4.149   4.668  17.298 -1.0667 -1.3875  0.6336
15912TIP3   OH269226   4.926   6.780  14.435 -0.2210  1.0774  0.3051
15912TIP3    H169227   4.865   6.709  14.417  0.8217  0.6456 -1.8774
15912TIP3    H269228   4.878   6.840  14.492 -2.7046  0.7598 -1.3165
15913TIP3   OH269229   5.404   4.655   0.076 -0.7455 -0.5504 -0.4248
15913TIP3    H169230   5.488   4.694   0.101 -0.6432  0.1749 -1.8251
15913TIP3    H269231   5.341   4.726   0.082 -1.3872 -1.1909  1.0473
15914TIP3   OH269232   4.343   1.429   2.285 -0.1556  0.0549  0.2737
15914TIP3    H169233   4.258   1.415   2.245 -0.0309 -0.3300  0.1308
15914TIP3    H269234   4.395   1.473   2.218 -0.2968  0.4610  0.4281
15915TIP3   OH269235   5.927   2.755  14.268 -0.3040  0.2260 -0.5498
15915TIP3    H169236   6.019   2.742  14.288 -0.3740 -0.4022 -0.6207
15915TIP3    H269237   5.927   2.795  14.181 -0.1125 -0.3435 -0.8185
15916TIP3   OH269238   2.878   2.461   1.528 -0.2533  0.0594 -0.6136
15916TIP3    H169239   2.827   2.415   1.595  0.8418  0.6533  0.6760
15916TIP3    H269240   2.951   2.401   1.509 -1.5174 -0.9353 -2.6885
15917TIP3   OH269241   3.953   2.291   2.143 -0.0627  0.6927 -0.0199
15917TIP3    H169242   4.011   2.367   2.146  0.1180  0.6387 -1.4533
15917TIP3    H269243   3.887   2.314   2.077 -0.5146 -0.0434  0.1631
15918TIP3   OH269244   2.782   1.452  15.776 -0.4804  0.2260 -0.5039
15918TIP3    H169245   2.700   1.403  15.788 -0.3121 -0.0238 -0.3558
15918TIP3    H269246   2.846   1.404  15.829 -0.0846  0.0300 -1.1418
15919TIP3   OH269247   0.124   1.267  12.478 -0.1531 -0.0631  0.6412
15919TIP3    H169248   0.117   1.240  12.387 -3.2622  1.2765  0.3655
15919TIP3    H269249   0.067   1.207  12.526 -1.7540  1.6712  1.0218
15920TIP3   OH269250   2.423   2.826  15.499  0.8306 -0.0240 -0.6243
15920TIP3    H169251   2.455   2.753  15.552  0.5287 -0.9279 -1.6447
15920TIP3    H269252   2.437   2.903  15.553  2.7815 -0.6229 -0.2048
15921TIP3   OH269253   0.654   6.264  12.206  0.3617 -0.2780 -0.0144
15921TIP3    H169254   0.654   6.312  12.289  0.1766  0.2596 -0.3214
15921TIP3    H269255   0.564   6.272  12.173  1.0013  1.6362 -1.4652
15922TIP3   OH269256   1.564   3.035  14.948 -0.3942  0.5628  0.3796
15922TIP3    H169257   1.580   2.950  14.906  0.7076  1.2027 -0.5346
15922TIP3    H269258   1.618   3.034  15.027  0.4516  0.8176 -0.1863
15923TIP3   OH269259   3.067   1.381   1.220 -0.2722  0.6292  0.3979
15923TIP3    H169260   3.153   1.416   1.199 -0.8905  0.5001 -2.7154
15923TIP3    H269261   3.081   1.286   1.228 -0.2314  0.5089 -0.9283
15924TIP3   OH269262   6.282   0.663   1.054  0.2776  0.1790  0.5760
15924TIP3    H169263   6.329   0.597   1.104 -0.8318 -1.3482 -0.2996
15924TIP3    H269264   6.337   0.741   1.059  3.9434 -1.9037 -1.8396
15925TIP3   OH269265   1.419   1.693  11.192  0.3454 -0.1923 -0.5128
15925TIP3    H169266   1.456   1.676  11.279  0.4370  1.1664 -0.2645
15925TIP3    H269267   1.443   1.616  11.140  1.4241 -0.4348  0.3102
15926TIP3   OH269268   1.673   1.225  15.381  0.5026  0.0732  0.8757
15926TIP3    H169269   1.632   1.311  15.372  0.4896  0.1517  1.5919
15926TIP3    H269270   1.764   1.240  15.356 -0.1427 -0.4145 -2.1630
15927TIP3   OH269271   4.307   1.292  16.200  0.1068 -0.0014 -0.1176
15927TIP3    H169272   4.308   1.302  16.295 -1.3396 -3.1777  0.3599
15927TIP3    H269273   4.255   1.366  16.169  1.1882  1.4891  1.4568
15928TIP3   OH269274   0.290   1.784  13.024 -0.2103 -0.3242  0.2100
15928TIP3    H169275   0.256   1.755  12.940 -0.1497  0.7139 -0.1784
15928TIP3    H269276   0.228   1.851  13.053 -0.1350 -0.5510  0.9122
15929TIP3   OH269277   2.214   2.386  10.938  0.1144  0.2241  0.3483
15929TIP3    H169278   2.160   2.451  10.983  1.0465 -0.3397  2.4214
15929TIP3    H269279   2.158   2.309  10.930 -0.5429  0.8113 -0.8541
15930TIP3   OH269280   1.216   6.818   5.122 -0.0976 -0.4209  0.1325
15930TIP3    H169281   1.272   6.889   5.091  1.0283 -1.0444  0.6595
15930TIP3    H269282   1.190   6.771   5.043  0.3734 -0.2887 -0.1074
15931TIP3   OH269283   4.819   0.403  14.565  0.1217 -0.0849 -0.2820
15931TIP3    H169284   4.889   0.394  14.630 -0.6986  1.6037  0.9193
15931TIP3    H269285   4.792   0.314  14.546 -0.6678 -0.6658  2.9512
15932TIP3   OH269286   6.022   4.717   1.185 -0.9478  0.1093 -0.6969
15932TIP3    H169287   6.080   4.667   1.127 -1.7007 -0.5231 -0.9227
15932TIP3    H269288   6.033   4.808   1.156  0.0196  0.0173 -0.6482
15933TIP3   OH269289   1.129   4.030  10.367 -0.0346  0.6516  0.1104
15933TIP3    H169290   1.056   4.060  10.312 -0.7584 -0.5703  0.3592
15933TIP3    H269291   1.117   4.076  10.450 -0.7343  0.2016  0.2647
15934TIP3   OH269292   5.852   2.578   4.024  0.4200  0.3011  0.1974
15934TIP3    H169293   5.936   2.540   4.049  0.4549  1.2829  1.7467
15934TIP3    H269294   5.787   2.526   4.070  0.2220 -0.0546 -0.4810
15935TIP3   OH269295   6.455   6.492   2.296  0.4786 -0.2328  0.8688
15935TIP3    H169296   6.501   6.530   2.371  1.0598  0.0851  0.3573
15935TIP3    H269297   6.506   6.519   2.220  0.2381 -1.0589  0.4020
15936TIP3   OH269298   6.264   6.200  12.000 -0.0054  0.0985 -0.0544
15936TIP3    H169299   6.327   6.268  11.974  0.0138 -0.2472 -0.9402
15936TIP3    H269300   6.272   6.133  11.933 -1.0790 -0.1101  0.0074
15937TIP3   OH269301   3.097   6.708   1.152  0.0246 -0.0288 -0.4892
15937TIP3    H169302   3.139   6.639   1.202 -0.7832  1.6217  2.7337
15937TIP3    H269303   3.124   6.789   1.195 -2.9437  1.3530 -0.9557
15938TIP3   OH269304   5.342   3.609   4.058  0.1091 -0.5724 -0.3185
15938TIP3    H169305   5.265   3.556   4.039 -0.9529  0.9765 -0.5043
15938TIP3    H269306   5.313   3.699   4.046  1.4538  0.1436  1.3335
15939TIP3   OH269307   3.433   5.470   2.616  0.6785  0.1089  0.3981
15939TIP3    H169308   3.463   5.517   2.694 -1.5170  1.8828  0.2751
15939TIP3    H269309   3.365   5.526   2.579  1.1726 -1.0038 -2.4499
15940TIP3   OH269310   2.530   3.993   5.009 -0.0298 -0.2429  0.7153
15940TIP3    H169311   2.440   3.963   4.995 -0.1346 -0.1461  1.1695
15940TIP3    H269312   2.572   3.983   4.924 -0.0362 -1.7678  0.8567
15941TIP3   OH269313   5.044   5.110   1.943 -0.7856 -0.4092  0.3770
15941TIP3    H169314   4.993   5.030   1.938 -3.6947  1.3417 -2.2463
15941TIP3    H269315   5.023   5.147   2.029 -1.2835 -1.3170  0.6578
15942TIP3   OH269316   5.411   0.020  14.731 -0.0955 -1.1611  0.0268
15942TIP3    H169317   5.483  -0.042  14.719 -0.5336 -1.3972 -1.6959
15942TIP3    H269318   5.350  -0.000  14.660 -0.2492  1.2772 -0.6184
15943TIP3   OH269319   5.197   5.115   5.640 -0.2419  0.1283  0.5953
15943TIP3    H169320   5.154   5.029   5.638  1.4041 -0.7282  0.1373
15943TIP3    H269321   5.193   5.145   5.550 -0.2671  0.2561  0.6392
15944TIP3   OH269322   6.772   0.745   0.155 -0.4266  0.4902  0.6417
15944TIP3    H169323   6.848   0.726   0.099  0.1023  1.1727  1.1042
15944TIP3    H269324   6.809   0.795   0.228 -1.7167  3.3553 -0.5540
15945TIP3   OH269325   2.533   5.710  11.428  0.0595 -0.3364 -0.3578
15945TIP3    H169326   2.617   5.754  11.439  0.6846 -1.5417 -0.1010
15945TIP3    H269327   2.556   5.624  11.392 -0.8890 -1.3559  1.3278
15946TIP3   OH269328   2.499   4.704   4.087  0.1190  0.6788 -0.4523
15946TIP3    H169329   2.443   4.632   4.117  1.6407  0.0000  0.9558
15946TIP3    H269330   2.560   4.718   4.160  2.7001  0.4027 -2.4211
15947TIP3   OH269331   4.318   1.642  13.079 -0.0453  0.4870  0.3508
15947TIP3    H169332   4.278   1.719  13.118  0.0353  0.4770  0.4545
15947TIP3    H269333   4.405   1.637  13.119  1.2532  2.1917 -2.0135
15948TIP3   OH269334   1.363   1.133   4.894  0.4219  0.0254 -0.2994
15948TIP3    H169335   1.291   1.085   4.937  1.3055  0.3283  1.5850
15948TIP3    H269336   1.436   1.071   4.894  0.3797 -0.0587 -1.6531
15949TIP3   OH269337   1.074   2.358   4.308  0.2955 -0.5585  0.6258
15949TIP3    H169338   1.095   2.417   4.379  1.8084  1.7282 -1.5610
15949TIP3    H269339   0.978   2.359   4.303  0.1510 -0.9679  2.7069
15950TIP3   OH269340   6.074   0.846   4.141  0.3847 -0.2840 -0.1200
15950TIP3    H169341   6.124   0.913   4.187  0.4489 -0.4958  0.1214
15950TIP3    H269342   6.049   0.783   4.210 -0.3151 -0.1161 -0.2158
15951TIP3   OH269343   5.697   3.034  16.091  0.1250  0.3118  0.2089
15951TIP3    H169344   5.773   3.045  16.034  0.4321  0.3240  0.6189
15951TIP3    H269345   5.721   2.962  16.150  0.1241  0.8030  0.8214
15952TIP3   OH269346   0.068   0.422  13.614 -0.2558  0.4767  0.1056
15952TIP3    H169347  -0.008   0.368  13.592  1.5683 -1.6417 -1.6211
15952TIP3    H269348   0.041   0.472  13.691 -2.9202 -1.1366  0.3635
15953TIP3   OH269349   0.899   2.027   1.164 -0.1966  0.2501  0.5454
15953TIP3    H169350   0.928   2.089   1.097 -1.0496  1.2027  1.0135
15953TIP3    H269351   0.835   1.972   1.119  1.3773 -1.0451 -0.1618
15954TIP3   OH269352   5.431   2.399   0.617 -0.0384 -0.3758  0.0251
15954TIP3    H169353   5.395   2.393   0.529 -0.8608 -0.9027  0.3885
15954TIP3    H269354   5.502   2.335   0.619  0.4785  0.1607 -0.4693
15955TIP3   OH269355   5.535   4.605  13.162  0.0914  0.5533  0.9698
15955TIP3    H169356   5.548   4.684  13.110  1.2070  1.0108  1.9035
15955TIP3    H269357   5.574   4.535  13.109 -0.7052  0.6525  0.2386
15956TIP3   OH269358   6.423   0.150  13.536  0.1547  0.6022  0.0379
15956TIP3    H169359   6.408   0.100  13.617 -1.9452 -0.5652 -0.9770
15956TIP3    H269360   6.386   0.237  13.555  0.6700  0.6923  0.6696
15957TIP3   OH269361   3.478   4.175   6.485 -1.0291  0.3542  0.1374
15957TIP3    H169362   3.386   4.158   6.507 -0.7684 -0.3743  0.7026
15957TIP3    H269363   3.525   4.162   6.567 -0.3559  0.2103 -0.2615
15958TIP3   OH269364   6.051   5.739   2.565 -0.4351  0.3463  0.1182
15958TIP3    H169365   6.029   5.805   2.499 -3.2718  0.1801  0.7712
15958TIP3    H269366   5.977   5.678   2.563  0.8493 -1.3323  1.3851
15959TIP3   OH269367   0.109   5.658  15.333  0.3468 -0.2950  0.5477
15959TIP3    H169368   0.188   5.689  15.378 -0.5755 -0.9651  2.7663
15959TIP3    H269369   0.142   5.597  15.267  1.7921  1.0007  0.0070
15960TIP3   OH269370   3.330   5.794   2.998  0.0522  0.2965 -0.1960
15960TIP3    H169371   3.249   5.744   3.000  0.7029 -0.9065 -1.9953
15960TIP3    H269372   3.399   5.729   2.991  1.4770  1.1232  3.6585
15961TIP3   OH269373   1.711   3.332  15.179  0.0841  0.5022  0.1988
15961TIP3    H169374   1.636   3.294  15.226 -2.0906  1.1797 -2.4332
15961TIP3    H269375   1.750   3.258  15.133  0.5247  0.2983  0.8768
15962TIP3   OH269376   6.817   1.514   3.031  0.2481  0.4558  0.1319
15962TIP3    H169377   6.766   1.471   2.962 -0.5891  1.2530  0.2287
15962TIP3    H269378   6.857   1.589   2.988 -1.3727  1.7493  0.7593
15963TIP3   OH269379   4.328   0.327   4.172  0.0352 -0.0341 -0.1889
15963TIP3    H169380   4.284   0.313   4.256  0.2498 -1.0799 -0.2339
15963TIP3    H269381   4.420   0.304   4.189 -0.1678 -1.5976 -1.0209
15964TIP3   OH269382   1.635   6.631  11.886  0.0803 -0.2305 -0.1961
15964TIP3    H169383   1.628   6.641  11.981 -1.6385 -0.0848 -0.3152
15964TIP3    H269384   1.715   6.679  11.863  0.3109  0.0622  1.1173
15965TIP3   OH269385   2.024   0.257  15.786  0.4493  0.5958  0.7046
15965TIP3    H169386   1.958   0.275  15.719 -1.0861 -0.9516  1.7113
15965TIP3    H269387   2.107   0.263  15.740 -0.4358  1.6193 -0.8541
15966TIP3   OH269388   3.118   4.272   2.908  0.5231 -0.1056  0.1576
15966TIP3    H169389   3.151   4.358   2.882  0.4204 -0.6332 -1.8946
15966TIP3    H269390   3.024   4.286   2.920  0.3924 -0.0298 -0.8197
15967TIP3   OH269391   1.280   3.871  10.678  0.0910  0.0365  0.1900
15967TIP3    H169392   1.219   3.801  10.655  0.4814 -0.6417  1.1886
15967TIP3    H269393   1.309   3.906  10.593 -0.3384 -0.8053 -0.3110
15968TIP3   OH269394   6.373   5.599   5.807 -0.2892  0.1067 -0.7772
15968TIP3    H169395   6.424   5.639   5.878  0.5832  0.5464 -1.6377
15968TIP3    H269396   6.285   5.591   5.843  0.2282 -0.0734  0.5134
15969TIP3   OH269397   6.545   5.411  16.894 -0.4635 -0.0092  0.3009
15969TIP3    H169398   6.482   5.340  16.900 -0.3795 -0.2010 -0.8670
15969TIP3    H269399   6.544   5.437  16.802  0.3639  0.7140  0.4767
15970TIP3   OH269400   0.412   3.856   3.280  0.3851  1.0950  0.3123
15970TIP3    H169401   0.433   3.900   3.198 -1.7728  1.4233 -0.1184
15970TIP3    H269402   0.379   3.770   3.254  2.1438  0.1549  1.0149
15971TIP3   OH269403   2.743   3.441  13.026 -0.1237  0.6799 -0.2779
15971TIP3    H169404   2.793   3.363  13.003 -1.0090  0.3145 -1.0368
15971TIP3    H269405   2.773   3.507  12.962 -0.3519  0.5666 -0.5020
15972TIP3   OH269406   3.679   4.083  15.608  0.2294 -0.4962 -0.2522
15972TIP3    H169407   3.770   4.093  15.634  0.3923 -2.7265  0.2606
15972TIP3    H269408   3.633   4.065  15.690 -0.3037 -1.4284 -0.7369
15973TIP3   OH269409   3.199   0.139  14.801  0.3942  0.1756  0.1775
15973TIP3    H169410   3.170   0.112  14.888  0.3951 -0.2716  0.0387
15973TIP3    H269411   3.255   0.215  14.818  1.9618 -1.0552  0.7549
15974TIP3   OH269412   3.845   4.893   3.454  0.0294  0.5980  0.0648
15974TIP3    H169413   3.924   4.845   3.431 -2.0474 -2.5675 -1.1443
15974TIP3    H269414   3.848   4.901   3.549  1.0582 -0.8927  0.1800
15975TIP3   OH269415   1.785   1.330   2.893  0.4617  0.3783 -0.7965
15975TIP3    H169416   1.803   1.283   2.975  1.6987  0.9918 -0.6998
15975TIP3    H269417   1.756   1.417   2.922 -0.0950  0.2662 -1.0041
15976TIP3   OH269418   3.461   6.015  14.281  0.1745  0.0461  0.3497
15976TIP3    H169419   3.404   5.969  14.342 -0.4369  0.0421 -0.2068
15976TIP3    H269420   3.462   5.960  14.203 -0.4509  0.8767 -0.2757
15977TIP3   OH269421   2.373   5.379   1.832  0.3937 -0.1247  0.3754
15977TIP3    H169422   2.305   5.442   1.855  2.0386  1.2517  1.7981
15977TIP3    H269423   2.348   5.298   1.876 -0.5736  0.1913  0.4308
15978TIP3   OH269424   0.754   6.591   5.582 -0.3156  0.0445 -0.2817
15978TIP3    H169425   0.824   6.606   5.646  1.0931 -1.0046 -1.5143
15978TIP3    H269426   0.689   6.540   5.630 -0.0523  0.6612  0.7718
15979TIP3   OH269427   0.681   0.790  16.600  0.4895  0.2729 -0.3104
15979TIP3    H169428   0.682   0.777  16.505  1.3997  0.7392 -0.3761
15979TIP3    H269429   0.747   0.857  16.615 -0.9498  1.5686  0.4635
15980TIP3   OH269430   6.141   3.376  11.895  0.1776 -0.0680 -0.2432
15980TIP3    H169431   6.060   3.420  11.871 -0.0676 -0.6303 -0.4751
15980TIP3    H269432   6.210   3.441  11.881 -0.3390  0.7483  0.9775
15981TIP3   OH269433   6.516   4.237  11.401  0.7566 -0.0910 -0.4790
15981TIP3    H169434   6.599   4.220  11.357 -0.0335 -0.5510 -1.8739
15981TIP3    H269435   6.501   4.331  11.389  1.6228  0.2299  0.8173
15982TIP3   OH269436   3.820   3.512   0.994  0.7922  0.1706  0.2267
15982TIP3    H169437   3.745   3.457   1.020  0.7134  1.0935  2.1699
15982TIP3    H269438   3.787   3.565   0.922 -0.1728 -0.0373  0.4961
15983TIP3   OH269439   3.760   5.012   4.433 -0.0907 -0.2505 -0.1586
15983TIP3    H169440   3.782   5.099   4.401 -1.9324  0.3278  0.0133
15983TIP3    H269441   3.805   4.952   4.374  2.1617  0.7903  0.4212
15984TIP3   OH269442   3.274   0.520   4.467 -0.4943 -0.3886 -0.2306
15984TIP3    H169443   3.310   0.608   4.471 -1.0989 -0.1507 -0.0207
15984TIP3    H269444   3.179   0.532   4.467 -0.5814 -1.0265 -0.4322
15985TIP3   OH269445   6.370   4.455  12.079  0.4459 -0.2125 -0.1223
15985TIP3    H169446   6.291   4.430  12.126  0.1795  0.7230 -0.0506
15985TIP3    H269447   6.441   4.409  12.125  0.2780  1.1788  1.6460
15986TIP3   OH269448   4.718   1.930  11.951 -0.2247 -0.0063  0.0318
15986TIP3    H169449   4.742   1.983  11.875  1.0929 -1.2785 -0.5027
15986TIP3    H269450   4.686   1.992  12.015  0.4655  1.3367 -0.8755
15987TIP3   OH269451   6.107   2.918  12.058  0.1384  0.0212 -0.1077
15987TIP3    H169452   6.175   2.855  12.081 -0.7117 -1.2738 -1.0332
15987TIP3    H269453   6.156   2.995  12.029  1.2091 -0.4798  0.3016
15988TIP3   OH269454   5.832   4.088  11.243 -0.2613 -0.1671 -0.2021
15988TIP3    H169455   5.794   4.155  11.186 -1.9407 -1.0574 -0.1828
15988TIP3    H269456   5.875   4.138  11.312  0.7695  0.9167 -1.5456
15989TIP3   OH269457   1.556   0.203  16.601  0.2139  0.4584  0.3364
15989TIP3    H169458   1.542   0.297  16.606 -3.0546  0.2532 -1.8781
15989TIP3    H269459   1.587   0.188  16.512 -1.7351 -0.7000 -0.2060
15990TIP3   OH269460   3.639   4.914  14.018  0.5681 -0.2517 -0.0846
15990TIP3    H169461   3.726   4.945  14.042  0.7219 -1.7972  1.5503
15990TIP3    H269462   3.652   4.864  13.938  1.1874 -0.3830  0.0926
15991TIP3   OH269463   3.095   5.956  14.252 -0.1874 -0.1120  0.1041
15991TIP3    H169464   3.140   5.975  14.334  0.5294 -1.0847 -0.0420
15991TIP3    H269465   3.003   5.972  14.271  0.0795  0.7541  0.7630
15992TIP3   OH269466   5.322   5.522   3.744  0.0532 -0.7303  0.8522
15992TIP3    H169467   5.352   5.600   3.697 -1.5377 -0.2929  0.4880
15992TIP3    H269468   5.396   5.496   3.799  0.5281  1.1841  1.1754
15993TIP3   OH269469   6.540   2.865   2.726 -0.0022  0.4827 -0.3925
15993TIP3    H169470   6.569   2.930   2.789  2.0474  0.7213 -1.5088
15993TIP3    H269471   6.565   2.901   2.641  1.8315 -2.0208 -1.0120
15994TIP3   OH269472   6.490   6.374   4.942 -0.2647 -0.3200 -0.5004
15994TIP3    H169473   6.571   6.343   4.901  0.2398  1.0748 -0.6247
15994TIP3    H269474   6.506   6.366   5.036  0.8648  1.7842 -0.4358
15995TIP3   OH269475   6.483   5.379   1.705 -0.5339  0.3173  0.0483
15995TIP3    H169476   6.518   5.298   1.666 -0.4779  0.3837 -0.0412
15995TIP3    H269477   6.416   5.408   1.643 -0.5540  0.3394  0.0806
15996TIP3   OH269478   3.758   4.000   0.754  0.0836  0.0547  0.1290
15996TIP3    H169479   3.838   4.005   0.701 -1.1624  1.9746 -1.7334
15996TIP3    H269480   3.764   4.074   0.814 -0.9207  1.1002 -1.0240
15997TIP3   OH269481   1.677   1.833  13.521  0.3163  0.6926 -0.2964
15997TIP3    H169482   1.691   1.910  13.576 -0.6582 -0.0304  1.0045
15997TIP3    H269483   1.614   1.780  13.569  2.2733 -1.8101 -0.2590
15998TIP3   OH269484   3.317   1.206   1.030  0.3571 -0.6635 -0.0840
15998TIP3    H169485   3.313   1.256   0.949 -0.8445 -1.4858 -0.5567
15998TIP3    H269486   3.324   1.273   1.099 -2.2913  0.2941 -0.6157
15999TIP3   OH269487   5.852   0.989   0.584  0.2465  0.2746  0.2274
15999TIP3    H169488   5.934   0.939   0.580  1.2642  1.9042 -0.2730
15999TIP3    H269489   5.865   1.051   0.656 -0.5902  0.4764  0.2142
16000TIP3   OH269490   3.452   5.330  14.648 -0.3412  0.2903 -0.2476
16000TIP3    H169491   3.382   5.264  14.652 -0.3153  0.2625 -0.2478
16000TIP3    H269492   3.533   5.279  14.645 -0.2555  0.3266  0.9309
16001TIP3   OH269493   1.777   5.020  11.745 -0.4945 -0.4098  0.3541
16001TIP3    H169494   1.845   4.957  11.722 -1.3903 -1.3710  0.2326
16001TIP3    H269495   1.798   5.048  11.834  2.0886  2.1066 -0.8870
16002TIP3   OH269496   5.699   2.912   0.016 -0.2916  0.3566  0.2317
16002TIP3    H169497   5.697   2.850  -0.057 -0.0166 -0.2257  0.7123
16002TIP3    H269498   5.621   2.892   0.067 -0.1770  0.3692  0.4143
16003TIP3   OH269499   1.683   1.467  12.095 -0.4334  0.3968  0.2842
16003TIP3    H169500   1.631   1.458  12.175  0.8170  0.9009  1.1984
16003TIP3    H269501   1.679   1.561  12.075  1.0835  0.6722  1.0897
16004TIP3   OH269502   0.772   1.455   2.890  0.5064 -0.4345  0.7732
16004TIP3    H169503   0.691   1.452   2.942  0.4532 -0.5741  0.6827
16004TIP3    H269504   0.742   1.460   2.799  0.5920 -1.8821  0.6521
16005TIP3   OH269505   5.180   0.482  14.386  0.2917 -0.8643  0.5382
16005TIP3    H169506   5.192   0.391  14.411  0.5696 -0.4978  1.8079
16005TIP3    H269507   5.087   0.499  14.401  0.5747 -0.4754  1.9957
16006TIP3   OH269508   0.547   1.873   2.534  0.4427  0.3925 -0.8824
16006TIP3    H169509   0.542   1.807   2.604  0.8698  1.7022  0.4396
16006TIP3    H269510   0.603   1.834   2.467 -0.5636 -1.1888 -0.8529
16007TIP3   OH269511   1.536   2.208  16.251  0.9587 -0.2044 -0.4302
16007TIP3    H169512   1.456   2.185  16.298 -0.7505  2.2909 -1.8396
16007TIP3    H269513   1.560   2.294  16.286  0.0898  1.3649 -3.3262
16008TIP3   OH269514   0.219   6.100  15.204  1.1647 -0.1252  0.0583
16008TIP3    H169515   0.255   6.035  15.144 -2.3024  0.0327 -2.4945
16008TIP3    H269516   0.280   6.174  15.199  2.2754 -1.0800 -1.3384
16009TIP3   OH269517   0.975   2.031  16.740 -1.1707  0.0476  0.2111
16009TIP3    H169518   0.936   1.963  16.795 -2.5108  1.0030  0.4969
16009TIP3    H269519   1.003   1.985  16.661  0.2524 -1.2510  1.3955
16010TIP3   OH269520   2.124   2.622   2.142 -0.0626 -0.1889 -0.4247
16010TIP3    H169521   2.210   2.660   2.126  0.9919 -1.7597  1.1404
16010TIP3    H269522   2.079   2.685   2.198  0.8509 -0.2466  0.3964
16011TIP3   OH269523   0.037   2.908  13.618 -0.1816  0.5050  0.4155
16011TIP3    H169524  -0.035   2.943  13.565  0.2919  0.6013 -0.1712
16011TIP3    H269525   0.080   2.985  13.653 -0.2934  0.4500  0.6726
16012TIP3   OH269526   3.038   3.708  13.325  0.1860 -0.3379 -0.1100
16012TIP3    H169527   3.118   3.726  13.375  0.7708  3.0489 -1.9347
16012TIP3    H269528   3.059   3.629  13.274  1.9279 -0.2263  0.3637
16013TIP3   OH269529   3.570   0.430  14.452  0.3384 -0.2218 -0.1740
16013TIP3    H169530   3.494   0.489  14.453 -0.4274 -1.1777 -0.2029
16013TIP3    H269531   3.546   0.361  14.390  0.7435 -1.1654  0.6932
16014TIP3   OH269532   0.017   4.014  15.111  0.2950  0.5002 -0.6162
16014TIP3    H169533   0.077   4.064  15.056  1.9549  0.2748  0.9160
16014TIP3    H269534   0.037   4.041  15.200 -0.9590 -0.5956  0.0324
16015TIP3   OH269535   2.726   3.530  13.334 -0.1190  0.0633 -0.3462
16015TIP3    H169536   2.775   3.475  13.273  2.7525  1.1879  0.8071
16015TIP3    H269537   2.712   3.612  13.286 -1.4989 -0.4460 -0.8780
16016TIP3   OH269538   2.039   0.924   5.175 -0.8408  0.6556 -0.6254
16016TIP3    H169539   1.993   0.856   5.126 -0.3071  1.0022 -1.6538
16016TIP3    H269540   2.130   0.916   5.146 -0.8517  2.1166 -1.1552
16017TIP3   OH269541   4.939   0.988  17.109 -0.2368 -0.3606 -0.0738
16017TIP3    H169542   4.868   1.026  17.162  0.6989  2.0132 -0.4112
16017TIP3    H269543   5.016   0.992  17.165  0.2487 -0.1006 -0.7411
16018TIP3   OH269544   2.402   6.279   0.942 -0.4119 -0.4408  0.0641
16018TIP3    H169545   2.379   6.250   0.854 -0.9097  1.7738 -0.6076
16018TIP3    H269546   2.497   6.265   0.948 -0.6378 -2.3556 -0.0692
16019TIP3   OH269547   1.644   3.769  17.156 -0.0140  0.4375  0.3404
16019TIP3    H169548   1.638   3.681  17.119 -0.5060  1.4066 -2.1138
16019TIP3    H269549   1.576   3.771  17.223  0.7522 -1.3516  1.2553
16020TIP3   OH269550   4.759   5.833  12.843 -0.2389 -0.1673  0.5600
16020TIP3    H169551   4.803   5.904  12.796  1.1973 -2.7695 -2.3411
16020TIP3    H269552   4.767   5.757  12.786 -3.8004 -2.1877  2.3838
16021TIP3   OH269553   3.668   1.228  13.708 -0.2997  0.0063 -0.1216
16021TIP3    H169554   3.656   1.319  13.738  0.9814  0.2440 -0.2477
16021TIP3    H269555   3.580   1.197  13.688 -0.6442  1.7248 -1.5135
16022TIP3   OH269556   2.614   3.932  16.939 -0.4774  0.3223 -0.2987
16022TIP3    H169557   2.543   3.868  16.947 -0.4139  0.3423  0.4778
16022TIP3    H269558   2.573   4.016  16.958 -0.4805  0.4838 -0.9662
16023TIP3   OH269559   1.539   1.425  13.948 -0.2375 -0.0590  0.1713
16023TIP3    H169560   1.580   1.366  13.886 -1.2691 -1.6472  0.9384
16023TIP3    H269561   1.546   1.380  14.032 -3.6988 -0.5505  0.3094
16024TIP3   OH269562   3.518   6.211   6.473 -0.6859 -0.0471  0.3753
16024TIP3    H169563   3.454   6.187   6.406  0.0060  0.3508 -0.4448
16024TIP3    H269564   3.533   6.130   6.522  0.3221 -0.8951 -1.2471
16025TIP3   OH269565   3.150   0.577  15.859  0.5596  0.3347 -0.6810
16025TIP3    H169566   3.081   0.620  15.809 -1.7312 -2.5440 -0.2474
16025TIP3    H269567   3.122   0.585  15.950  0.5616 -1.1496 -0.5262
16026TIP3   OH269568   4.463   0.677   3.508  0.3853 -0.2416  0.4205
16026TIP3    H169569   4.501   0.628   3.582  0.7571  2.1123  1.8995
16026TIP3    H269570   4.539   0.708   3.459  0.5092  2.8433  2.2905
16027TIP3   OH269571   0.259   2.882  15.355 -0.0661  0.2386 -0.3839
16027TIP3    H169572   0.256   2.787  15.365  0.7512  0.3183  0.6801
16027TIP3    H269573   0.267   2.896  15.260 -0.7354 -0.7211 -0.5948
16028TIP3   OH269574   6.041   3.983   0.277  0.0814  0.1547 -0.2938
16028TIP3    H169575   6.072   4.029   0.354 -0.0926  0.4953 -0.4252
16028TIP3    H269576   6.074   3.893   0.287 -0.8767 -0.1088  0.7363
16029TIP3   OH269577   0.461   3.178  15.175  0.2815  0.0231  0.3052
16029TIP3    H169578   0.510   3.253  15.210 -1.8514  1.7237 -0.1648
16029TIP3    H269579   0.529   3.112  15.158  2.0821  1.3006  2.0164
16030TIP3   OH269580   6.247   2.706   6.709 -0.6682 -0.6700  0.2001
16030TIP3    H169581   6.185   2.768   6.670 -0.3949 -0.4232  0.1517
16030TIP3    H269582   6.281   2.752   6.786  1.8341  0.5253 -1.4982
16031TIP3   OH269583   0.911   0.738  13.810 -0.1523 -0.1233 -0.2578
16031TIP3    H169584   0.895   0.678  13.882 -1.4904  1.0424  0.4661
16031TIP3    H269585   1.006   0.750  13.810 -0.0774 -0.5779  0.9473
16032TIP3   OH269586   5.828   3.999  14.543 -0.1571 -1.1257  0.0348
16032TIP3    H169587   5.774   3.984  14.466  1.6329  2.0820 -2.0804
16032TIP3    H269588   5.785   4.071  14.589  1.1091  0.0445 -0.5336
16033TIP3   OH269589   6.329   5.020   3.165 -0.2574 -0.2320  0.2056
16033TIP3    H169590   6.373   5.105   3.174 -1.2773  0.2955  0.3523
16033TIP3    H269591   6.292   5.020   3.077  0.4335 -0.8775 -0.0969
16034TIP3   OH269592   3.169   6.407  11.630 -0.3654  0.3351  0.4145
16034TIP3    H169593   3.261   6.432  11.622 -0.0378 -0.9381 -0.1506
16034TIP3    H269594   3.120   6.479  11.589  0.5107  0.1085 -1.0740
16035TIP3   OH269595   3.939   1.726   3.888 -0.0159  0.7080 -0.0230
16035TIP3    H169596   4.001   1.667   3.844 -1.7102 -1.0027 -0.2269
16035TIP3    H269597   3.991   1.769   3.956  1.7626  0.5510 -1.2112
16036TIP3   OH269598   5.953   2.214  14.447 -0.1860  0.3016  0.5076
16036TIP3    H169599   5.960   2.304  14.479  0.2051  0.3008  0.4174
16036TIP3    H269600   5.953   2.161  14.527 -0.3229  0.3727  0.5563
16037TIP3   OH269601   2.164   6.035   0.485  0.0193  0.5842  0.1265
16037TIP3    H169602   2.212   6.039   0.567  0.6569 -0.1994 -0.2034
16037TIP3    H269603   2.228   6.057   0.418  0.5112 -2.4566 -0.5299
16038TIP3   OH269604   5.188   5.850  12.778 -0.1135  0.0471  0.0812
16038TIP3    H169605   5.166   5.808  12.861 -1.2427 -0.2585 -0.3595
16038TIP3    H269606   5.259   5.910  12.801  2.1199 -2.5697  0.6041
16039TIP3   OH269607   4.301   6.783   5.749  0.0435 -0.2500  0.0256
16039TIP3    H169608   4.210   6.807   5.730 -0.1044 -0.4438  0.4922
16039TIP3    H269609   4.338   6.759   5.664  0.5608  2.7949 -0.7433
16040TIP3   OH269610   0.889   0.807   3.879 -0.2217  0.1534  0.0288
16040TIP3    H169611   0.876   0.857   3.960 -0.1462  0.6590 -0.2658
16040TIP3    H269612   0.949   0.861   3.827 -0.3236 -0.1372 -0.3955
16041TIP3   OH269613   3.183   1.609   1.473 -0.5855 -0.4460  0.2598
16041TIP3    H169614   3.181   1.549   1.399 -0.2979  0.0147 -0.1230
16041TIP3    H269615   3.241   1.567   1.536 -1.7406 -1.4045  0.7272
16042TIP3   OH269616   6.649   3.455  16.976 -0.7870 -0.4199  0.0631
16042TIP3    H169617   6.600   3.384  16.935  0.3916 -0.8546 -0.6667
16042TIP3    H269618   6.737   3.419  16.988 -0.6583  0.2828  1.4422
16043TIP3   OH269619   3.363   1.995   2.784  0.1010 -0.0663 -0.2295
16043TIP3    H169620   3.318   2.066   2.739  0.5067  1.8932  2.2605
16043TIP3    H269621   3.446   1.986   2.738  0.1902  1.3578 -0.3962
16044TIP3   OH269622   2.454   1.393   3.918  0.1653 -0.5512 -0.1279
16044TIP3    H169623   2.372   1.441   3.903  0.2058 -0.4217  0.0525
16044TIP3    H269624   2.441   1.350   4.003  0.4017 -0.2746  0.0508
16045TIP3   OH269625   5.114   1.744   3.511 -0.7469 -0.0975 -0.6684
16045TIP3    H169626   5.179   1.751   3.441 -0.1006  1.1879  0.0277
16045TIP3    H269627   5.153   1.790   3.585 -1.9691 -0.3096  0.1381
16046TIP3   OH269628   5.680   6.797   0.035  0.1374 -0.2463  0.1396
16046TIP3    H169629   5.690   6.755  -0.051  0.7085  1.3134 -0.5861
16046TIP3    H269630   5.590   6.829   0.036  0.3333  0.3136 -0.1477
16047TIP3   OH269631   6.419   3.075   0.964 -0.2134  0.0050  0.1940
16047TIP3    H169632   6.444   3.163   0.992  0.5350 -0.1718  0.0796
16047TIP3    H269633   6.491   3.045   0.910  0.1988 -1.2273  1.3612
16048TIP3   OH269634   5.719   2.092   5.689  0.4556 -0.2568 -0.4699
16048TIP3    H169635   5.673   2.177   5.690  2.6480  1.0107  0.7117
16048TIP3    H269636   5.690   2.049   5.769  0.3067 -0.0495 -0.4092
16049TIP3   OH269637   3.545   0.988  14.200 -0.6581  0.4829 -0.3873
16049TIP3    H169638   3.604   0.918  14.175 -1.6154 -0.6788  0.4383
16049TIP3    H269639   3.558   1.056  14.134  0.3152 -0.4577 -1.2024
16050TIP3   OH269640   4.659   0.811   3.362 -0.4122  0.6191 -0.2562
16050TIP3    H169641   4.743   0.858   3.367 -0.4559  0.5497  2.0234
16050TIP3    H269642   4.681   0.729   3.316  0.4685  1.1860 -0.8878
16051TIP3   OH269643   0.762   2.178  14.497  0.0392  0.8990 -0.2210
16051TIP3    H169644   0.685   2.186  14.552  1.2522 -0.4215  1.7572
16051TIP3    H269645   0.830   2.143  14.554  1.8605  1.0910 -2.1337
16052TIP3   OH269646   4.098   3.630  11.794 -0.4738  0.3482  0.1866
16052TIP3    H169647   4.134   3.595  11.876  0.7112  1.3230  0.1073
16052TIP3    H269648   4.146   3.711  11.779 -1.7715  0.9932 -0.6747
16053TIP3   OH269649   1.112   3.681  14.538 -0.8995 -0.1461 -0.5472
16053TIP3    H169650   1.143   3.731  14.613 -1.4976 -0.7330  0.1002
16053TIP3    H269651   1.057   3.743  14.489 -1.4552 -0.0873  0.1305
16054TIP3   OH269652   4.214   0.557  11.976 -0.2227 -0.4518  0.2378
16054TIP3    H169653   4.180   0.573  11.888  0.3758 -3.1549 -0.5561
16054TIP3    H269654   4.147   0.592  12.034 -2.0233 -1.2042 -1.3002
16055TIP3   OH269655   5.139   3.115  12.430  0.5052  0.2936  0.1566
16055TIP3    H169656   5.129   3.068  12.513 -0.9245  1.5951  0.7670
16055TIP3    H269657   5.159   3.046  12.366 -0.4849 -1.0187  1.2068
16056TIP3   OH269658   3.972   1.096   0.981  0.2898  0.6238 -0.5127
16056TIP3    H169659   4.048   1.149   0.957 -0.0230  1.0290 -0.6196
16056TIP3    H269660   3.905   1.160   1.007  0.7829  0.2087  2.0317
16057TIP3   OH269661   2.637   5.429   2.617  0.2078  0.4750  0.3169
16057TIP3    H169662   2.623   5.349   2.566  0.7809  0.1248  0.6988
16057TIP3    H269663   2.560   5.482   2.599 -0.1063 -0.0951 -0.0692
16058TIP3   OH269664   3.282   2.358   2.059  0.4046 -0.6218 -0.5153
16058TIP3    H169665   3.372   2.351   2.027  0.3344  3.5555 -2.2440
16058TIP3    H269666   3.230   2.370   1.981 -0.9296  1.7760  0.6315
16059TIP3   OH269667   3.122   4.002  11.751  0.3117  0.0854 -0.1572
16059TIP3    H169668   3.101   4.089  11.720 -0.2744  0.3878  1.0050
16059TIP3    H269669   3.208   3.983  11.715 -0.0150  0.6980 -1.2978
16060TIP3   OH269670   6.814   6.022  16.701 -0.2191  0.3914  0.1754
16060TIP3    H169671   6.861   6.105  16.714  1.8373 -0.8451  1.2426
16060TIP3    H269672   6.782   5.999  16.789  1.3881 -1.1017  0.4224
16061TIP3   OH269673   4.237   6.472   4.116  0.1774  0.3601  0.4845
16061TIP3    H169674   4.218   6.445   4.206 -0.4547 -1.5644 -0.1552
16061TIP3    H269675   4.207   6.562   4.110 -1.0199  0.0845  1.8477
16062TIP3   OH269676   3.669   0.489  12.092 -0.0832  0.6165  0.0934
16062TIP3    H169677   3.587   0.502  12.044 -0.5143 -0.0727  0.6150
16062TIP3    H269678   3.695   0.399  12.071  1.8869  1.5849 -2.0452
16063TIP3   OH269679   4.280   4.983   5.513  0.0188  0.3187 -0.8145
16063TIP3    H169680   4.232   4.990   5.595 -0.4219  0.6851 -1.0964
16063TIP3    H269681   4.372   4.981   5.539 -0.1221  0.3250 -0.3063
16064TIP3   OH269682   4.427   6.144  10.840  0.5523  0.2585  0.0051
16064TIP3    H169683   4.368   6.200  10.890  0.7580  0.3707  0.1223
16064TIP3    H269684   4.434   6.186  10.754  1.4959  0.9608  0.4105
16065TIP3   OH269685   5.114   5.021  12.784  0.9234  0.1483  1.1048
16065TIP3    H169686   5.028   5.045  12.819  0.4484  1.5357 -0.8361
16065TIP3    H269687   5.149   5.102  12.749  1.8598 -0.9001 -0.5134
16066TIP3   OH269688   5.987   4.764  11.039 -0.0698 -0.3500  0.5952
16066TIP3    H169689   5.946   4.740  10.955 -0.8760 -2.1728  1.4576
16066TIP3    H269690   5.977   4.860  11.043 -1.1097 -0.3519 -0.8359
16067TIP3   OH269691   1.184   0.081  15.800 -0.1150  0.0928  0.0387
16067TIP3    H169692   1.262   0.033  15.826  0.2332  0.2493 -0.6966
16067TIP3    H269693   1.157   0.041  15.717 -1.2653 -0.4673  0.6601
16068TIP3   OH269694   2.114   1.064   4.172  0.2248 -0.4887 -0.3514
16068TIP3    H169695   2.160   1.055   4.256  0.2515 -0.7205 -0.3925
16068TIP3    H269696   2.023   1.077   4.196  0.4017  0.7150 -0.2373
16069TIP3   OH269697   4.791   1.109   1.310 -0.0256  0.0450  0.2551
16069TIP3    H169698   4.701   1.122   1.339  1.1017  2.4482  3.1689
16069TIP3    H269699   4.845   1.139   1.383  3.1903 -0.2407 -1.7842
16070TIP3   OH269700   1.970   4.480  16.286 -0.6532  0.0906  0.7852
16070TIP3    H169701   1.940   4.471  16.377 -1.1085  1.2396  0.7593
16070TIP3    H269702   1.937   4.565  16.258 -0.5040 -0.2500 -0.4650
16071TIP3   OH269703   1.185   2.281  11.347 -0.0896  0.2317  0.3085
16071TIP3    H169704   1.214   2.367  11.318  1.7024  0.0611  1.4220
16071TIP3    H269705   1.264   2.227  11.347 -1.1329 -1.3812 -0.1846
16072TIP3   OH269706   5.567   4.098   5.587  0.8357 -0.0359  0.0297
16072TIP3    H169707   5.525   4.052   5.659  1.3187  2.1389  1.8076
16072TIP3    H269708   5.499   4.105   5.520  0.1232 -1.3520  0.5760
16073TIP3   OH269709   4.417   3.343  12.516 -0.1943  0.3740  0.0690
16073TIP3    H169710   4.498   3.353  12.466  0.2862 -1.6115  0.3889
16073TIP3    H269711   4.353   3.313  12.452  0.5523 -2.7018  0.5928
16074TIP3   OH269712   5.064   4.611   3.331 -0.1051  0.2438 -0.2064
16074TIP3    H169713   5.015   4.550   3.385 -1.0996 -0.1689 -1.5232
16074TIP3    H269714   5.152   4.573   3.325 -1.1021 -1.9473 -2.2520
16075TIP3   OH269715   0.952   4.935  14.058  0.1729  0.2989 -0.1621
16075TIP3    H169716   0.859   4.913  14.068 -0.0055  0.8166 -0.6493
16075TIP3    H269717   0.952   5.025  14.025  0.8712  0.6603  0.8008
16076TIP3   OH269718   1.866   6.140  11.380  0.3521  0.3030 -0.0258
16076TIP3    H169719   1.863   6.208  11.313 -2.2218  0.1574 -0.1825
16076TIP3    H269720   1.812   6.070  11.344  0.8287 -0.7438  1.2410
16077TIP3   OH269721   2.523   1.023   1.616 -0.3498  0.2538  0.3622
16077TIP3    H169722   2.431   1.043   1.601 -0.7932 -1.2187  0.9167
16077TIP3    H269723   2.539   1.051   1.706  0.7613  3.7625 -0.7584
16078TIP3   OH269724   4.101   3.767  12.424  0.0080 -0.7452  0.0977
16078TIP3    H169725   4.170   3.759  12.358  0.2590  0.8821  0.1097
16078TIP3    H269726   4.088   3.678  12.456 -0.5016 -1.7056 -2.5047
16079TIP3   OH269727   4.507   5.588  12.582  0.3208 -0.3931  0.3830
16079TIP3    H169728   4.548   5.669  12.553 -0.0601 -0.8105 -1.4240
16079TIP3    H269729   4.523   5.585  12.677  0.2091  1.8312  0.5060
16080TIP3   OH269730   2.435   3.114   3.019  0.3221 -0.3202 -0.5129
16080TIP3    H169731   2.481   3.195   2.995 -1.5212  0.1614 -2.8326
16080TIP3    H269732   2.422   3.121   3.113  1.9145  1.1403 -0.3487
16081TIP3   OH269733   3.560   2.883  15.146  0.4191  0.4271 -0.6640
16081TIP3    H169734   3.473   2.889  15.184  0.6959 -0.6989  0.1993
16081TIP3    H269735   3.619   2.888  15.221  1.0250 -0.6201 -1.0514
16082TIP3   OH269736   3.725   4.791   1.998 -0.5337  0.2997 -0.0471
16082TIP3    H169737   3.665   4.740   2.053 -1.0781  0.6037 -0.3552
16082TIP3    H269738   3.803   4.735   1.990  0.0152  0.7101  1.9545
16083TIP3   OH269739   5.850   0.446   3.517  0.1259 -0.7892  0.6108
16083TIP3    H169740   5.808   0.531   3.505 -0.2835 -0.9774  0.7155
16083TIP3    H269741   5.845   0.405   3.431  3.0225  0.4913 -0.3041
16084TIP3   OH269742   1.151   3.583   5.747 -0.0965  0.0541 -0.6120
16084TIP3    H169743   1.171   3.517   5.814 -0.0399 -0.3752 -1.0467
16084TIP3    H269744   1.059   3.606   5.763 -1.0091 -2.1708 -2.1484
16085TIP3   OH269745   2.558   6.570   0.904  0.0630 -0.1290 -0.3039
16085TIP3    H169746   2.529   6.489   0.863 -0.0532  0.5389 -1.6016
16085TIP3    H269747   2.646   6.585   0.870  0.5584 -0.3014  0.8491
16086TIP3   OH269748   6.765   4.536   0.718  0.0545  0.3460 -0.1587
16086TIP3    H169749   6.842   4.558   0.665 -0.5297  0.0778 -1.1615
16086TIP3    H269750   6.737   4.451   0.684  0.1244 -0.2250  1.1507
16087TIP3   OH269751   4.143   3.965  16.280  0.0043  0.7734 -0.9961
16087TIP3    H169752   4.210   3.907  16.318  1.5473  2.4416 -1.0323
16087TIP3    H269753   4.139   4.039  16.340 -0.7538  1.3784 -1.7778
16088TIP3   OH269754   0.236   5.338  16.429  0.5733  0.5286 -0.8205
16088TIP3    H169755   0.312   5.358  16.374  1.1070 -1.4997 -0.9196
16088TIP3    H269756   0.245   5.244  16.448 -1.2154  0.5366  0.2550
16089TIP3   OH269757   0.136   5.698  11.593 -0.3769 -0.0302  0.3006
16089TIP3    H169758   0.231   5.701  11.607 -0.3553  0.7471  0.0479
16089TIP3    H269759   0.107   5.788  11.607 -1.1073 -0.3021  0.5612
16090TIP3   OH269760   3.960   2.960   0.699  0.0162 -0.0677  0.0922
16090TIP3    H169761   3.997   3.036   0.745  0.9336  0.1723 -1.0018
16090TIP3    H269762   3.894   2.926   0.759 -0.4402  1.6082  0.6044
16091TIP3   OH269763   0.083   6.398  12.525  0.1179 -0.1413 -0.2966
16091TIP3    H169764   0.151   6.345  12.485 -0.3994 -0.7049 -0.4462
16091TIP3    H269765   0.065   6.356  12.609 -0.2985 -0.2155 -0.4179
16092TIP3   OH269766   6.175   1.980   1.908 -0.2359 -0.3132 -0.6243
16092TIP3    H169767   6.173   1.990   2.003  1.7519 -1.2439 -0.4239
16092TIP3    H269768   6.184   2.070   1.875  0.2989 -0.0728  0.1396
16093TIP3   OH269769   6.264   1.843   0.672  0.3032  0.2531 -0.0532
16093TIP3    H169770   6.349   1.824   0.632 -0.3446  0.1370 -1.4713
16093TIP3    H269771   6.219   1.898   0.607 -0.6603  0.3956  0.7112
16094TIP3   OH269772   2.674   0.419  16.732  0.1787 -0.6613  0.0682
16094TIP3    H169773   2.657   0.400  16.640 -0.0625  1.2985 -0.3384
16094TIP3    H269774   2.761   0.460  16.733 -0.4527  0.7398  0.4653
16095TIP3   OH269775   2.392   1.041   0.895 -0.1304 -0.0131 -0.0751
16095TIP3    H169776   2.394   1.089   0.978  0.2530 -0.4988  0.2068
16095TIP3    H269777   2.402   0.949   0.921  1.3575 -0.0674 -0.7318
16096TIP3   OH269778   3.923   0.058  13.250  0.2531  0.5152  0.1905
16096TIP3    H169779   3.985   0.115  13.203 -0.0217  0.2598 -0.5018
16096TIP3    H269780   3.942   0.073  13.342  0.3054  1.6030  0.0254
16097TIP3   OH269781   0.188   3.956   4.305 -0.1106 -0.1733  0.4513
16097TIP3    H169782   0.267   3.969   4.357  0.6415 -1.4272 -0.3019
16097TIP3    H269783   0.116   3.968   4.367  0.6787  0.4032  1.2897
16098TIP3   OH269784   1.900   3.852  17.144 -0.1781  0.2222 -0.1551
16098TIP3    H169785   1.804   3.848  17.153 -0.3246  1.2576 -0.9351
16098TIP3    H269786   1.915   3.931  17.091  1.1516  0.4667  0.5399
16099TIP3   OH269787   2.946   4.990  11.617  0.4969 -0.0356  0.2948
16099TIP3    H169788   2.850   4.993  11.617  0.4919 -0.2166  0.2795
16099TIP3    H269789   2.968   4.898  11.627  0.6675  0.2224  3.2863
16100TIP3   OH269790   4.617   6.742  11.184 -0.1800  0.0070 -0.0034
16100TIP3    H169791   4.596   6.833  11.163 -1.2036 -0.3515 -0.5428
16100TIP3    H269792   4.540   6.692  11.158  0.1181 -0.9450  0.8873
16101TIP3   OH269793   2.844   2.085   4.525 -0.1788 -0.2485  0.1162
16101TIP3    H169794   2.869   1.994   4.508 -0.5631 -0.3306 -0.0223
16101TIP3    H269795   2.901   2.137   4.468 -0.8349 -0.4760 -0.7600
16102TIP3   OH269796   2.213   6.782  11.607 -0.1611  0.2081  0.9032
16102TIP3    H169797   2.176   6.851  11.662  1.7549  1.0945  1.1439
16102TIP3    H269798   2.268   6.730  11.667  0.4211  0.0167  0.2187
16103TIP3   OH269799   2.811   3.719   3.519 -0.4154 -0.3760 -0.6848
16103TIP3    H169800   2.788   3.681   3.604 -3.7367 -0.2139 -1.3996
16103TIP3    H269801   2.878   3.660   3.484  1.8118  0.1011  2.3689
16104TIP3   OH269802   5.967   1.475  12.140  0.4679  0.0827 -0.1562
16104TIP3    H169803   5.948   1.410  12.072 -2.4959  1.5150 -0.8442
16104TIP3    H269804   5.929   1.556  12.106  1.0920  1.4161  2.1638
16105TIP3   OH269805   5.709   1.794   1.298 -0.0352  0.4895 -0.3882
16105TIP3    H169806   5.761   1.715   1.315  0.4578  0.8901 -0.0058
16105TIP3    H269807   5.751   1.834   1.222 -0.9009 -0.1367 -1.2268
16106TIP3   OH269808   4.472   4.625   5.551  0.0648  0.5655 -0.3356
16106TIP3    H169809   4.537   4.564   5.514 -2.1175 -0.4595 -2.8449
16106TIP3    H269810   4.508   4.712   5.532  1.9079  0.1064  0.7722
16107TIP3   OH269811   2.631   4.606  12.218  0.1858  0.1057  0.8367
16107TIP3    H169812   2.619   4.650  12.303 -0.6327  2.4190 -0.3915
16107TIP3    H269813   2.685   4.666  12.168 -0.8124 -0.3595 -0.8712
16108TIP3   OH269814   0.878   6.647   5.924 -0.0486  0.2885  0.6586
16108TIP3    H169815   0.953   6.591   5.906 -0.7632 -0.2486 -0.8619
16108TIP3    H269816   0.832   6.603   5.996  0.9325  0.4888  1.4276
16109TIP3   OH269817   6.393   6.802   5.958  0.2832  0.4099 -0.5022
16109TIP3    H169818   6.440   6.768   6.034 -2.3671 -0.0609  1.0584
16109TIP3    H269819   6.362   6.888   5.986  0.0252  0.6247 -1.4171
16110TIP3   OH269820   5.472   0.333  10.767  0.1414  0.3624 -0.6723
16110TIP3    H169821   5.392   0.370  10.804  0.5699  0.2546  0.4188
16110TIP3    H269822   5.531   0.408  10.757  0.4518  0.2240  0.0386
16111TIP3   OH269823   3.875   3.136   3.348  0.4514 -0.4667  0.1369
16111TIP3    H169824   3.948   3.160   3.404 -0.2921  0.3647  0.7778
16111TIP3    H269825   3.853   3.047   3.374  0.6857 -0.4062  0.5429
16112TIP3   OH269826   3.766   6.714   5.864 -0.2475  0.0899 -0.2936
16112TIP3    H169827   3.796   6.804   5.878 -0.5683  0.0496  0.7647
16112TIP3    H269828   3.744   6.710   5.771 -2.4866  1.8315  0.0730
16113TIP3   OH269829   4.228   1.148   2.633  0.1543 -0.2179  0.1122
16113TIP3    H169830   4.318   1.117   2.622  0.0055 -0.1612 -1.5763
16113TIP3    H269831   4.235   1.219   2.696  1.2229 -0.5425  0.3771
16114TIP3   OH269832   1.317   2.321  12.342  0.2347 -1.1562 -0.5728
16114TIP3    H169833   1.388   2.379  12.369  0.9065 -0.4585 -3.4809
16114TIP3    H269834   1.251   2.379  12.305 -0.0033 -2.0717 -1.6498
16115TIP3   OH269835   1.087   1.408  13.692  0.6129 -1.0573  0.4363
16115TIP3    H169836   1.033   1.487  13.687  1.5149 -0.4785 -0.9929
16115TIP3    H269837   1.079   1.378  13.782  0.3676  0.7707  1.0576
16116TIP3   OH269838   4.393   1.222  16.485  0.2674  0.5063 -0.1740
16116TIP3    H169839   4.387   1.314  16.512 -0.0793 -0.2784  2.8063
16116TIP3    H269840   4.482   1.213  16.450  0.3559  1.9317 -0.3752
16117TIP3   OH269841   1.923   2.117   5.131 -0.1177 -0.8793  0.0799
16117TIP3    H169842   1.984   2.189   5.147 -0.0277 -0.5547 -1.5688
16117TIP3    H269843   1.846   2.139   5.184  1.3669 -1.6435  2.7255
16118TIP3   OH269844   0.833   2.836  12.548  0.2389  0.8610  0.5031
16118TIP3    H169845   0.783   2.766  12.506 -0.1966  2.8337 -2.5192
16118TIP3    H269846   0.920   2.798  12.561 -0.8232 -1.2955  2.1974
16119TIP3   OH269847   3.081   3.752   5.186 -0.3982  0.1960 -0.3168
16119TIP3    H169848   3.110   3.661   5.186  0.2750  0.3910  0.3773
16119TIP3    H269849   3.163   3.803   5.182 -0.5823  0.7684  1.9264
16120TIP3   OH269850   3.984   1.057   3.393 -0.3820  0.1752  0.5098
16120TIP3    H169851   4.075   1.050   3.421 -0.3814 -1.4199  0.1697
16120TIP3    H269852   3.983   1.023   3.303 -1.1555  1.0984  0.1442
16121TIP3   OH269853   0.131   2.091   6.206  0.4319  0.0037  0.4338
16121TIP3    H169854   0.117   2.025   6.138  0.9294 -3.4039  3.3265
16121TIP3    H269855   0.227   2.096   6.215  0.4807  2.3019 -0.6491
16122TIP3   OH269856   0.399   4.290   4.780  0.3174 -0.1682 -0.0839
16122TIP3    H169857   0.458   4.351   4.824  1.0787 -0.2202 -1.0030
16122TIP3    H269858   0.452   4.211   4.767 -0.5886 -0.9775  0.9180
16123TIP3   OH269859   5.442   1.790   1.637  0.5394 -0.4407  0.4877
16123TIP3    H169860   5.435   1.784   1.542  0.7122 -1.4059  0.5247
16123TIP3    H269861   5.534   1.812   1.653 -0.2204  3.6896  0.3266
16124TIP3   OH269862   2.938   6.608   4.498  0.0088  0.9772 -0.3315
16124TIP3    H169863   2.978   6.525   4.474 -1.0542  0.5568 -0.7290
16124TIP3    H269864   2.862   6.615   4.440 -0.6274  1.6211  0.5549
16125TIP3   OH269865   4.025   6.816  14.942  0.2236  0.0921  0.2147
16125TIP3    H169866   4.029   6.804  14.847 -0.0100  0.2203  0.1886
16125TIP3    H269867   4.009   6.728  14.976 -2.4545  0.4080 -0.0331
16126TIP3   OH269868   3.208   0.528   2.980  0.0764  0.1316  0.3694
16126TIP3    H169869   3.147   0.559   3.047  0.9918  1.5208  0.6076
16126TIP3    H269870   3.272   0.477   3.028  0.0741  0.1385  0.3798
16127TIP3   OH269871   5.056   1.837   5.118  0.2805  0.0710  0.4240
16127TIP3    H169872   5.069   1.837   5.213  0.9176 -2.0721  0.3935
16127TIP3    H269873   5.102   1.758   5.088 -2.7289 -1.2149 -1.2352
16128TIP3   OH269874   5.107   3.170   1.868 -0.0766  0.6866 -0.3067
16128TIP3    H169875   5.105   3.265   1.880  0.3986  0.5464  1.0006
16128TIP3    H269876   5.070   3.135   1.949 -1.5708 -0.2294 -1.3512
16129TIP3   OH269877   0.762   2.697  16.900 -0.4995  0.3893 -0.1730
16129TIP3    H169878   0.802   2.770  16.854  1.4023 -1.2574 -1.3053
16129TIP3    H269879   0.802   2.619  16.861 -1.5841 -1.2297  1.7482
16130TIP3   OH269880   0.233   5.838   5.043 -0.1561  0.0456 -0.0296
16130TIP3    H169881   0.297   5.899   5.007  0.3564 -1.1005 -1.1341
16130TIP3    H269882   0.163   5.835   4.978 -0.1172 -0.6201 -0.0496
16131TIP3   OH269883   6.622   4.763   0.786 -0.0165  0.2104  0.3517
16131TIP3    H169884   6.666   4.679   0.775  0.4396  0.4351  0.4212
16131TIP3    H269885   6.691   4.823   0.815 -0.3119  0.6328  0.2046
16132TIP3   OH269886   6.516   0.834   3.975  0.6225 -0.3547  0.0241
16132TIP3    H169887   6.585   0.873   3.922  1.6754 -2.3770 -0.1788
16132TIP3    H269888   6.435   0.852   3.927  0.7876  2.8996  0.7518
16133TIP3   OH269889   2.814   0.020   5.847  0.3405 -0.3061  0.1629
16133TIP3    H169890   2.735   0.069   5.870  0.6536 -0.1489  0.9327
16133TIP3    H269891   2.840   0.054   5.762  0.2186  0.4437  0.4201
16134TIP3   OH269892   1.420   4.889  16.513  0.3536  0.8128 -0.3606
16134TIP3    H169893   1.483   4.957  16.537 -0.8539  2.0652 -0.5946
16134TIP3    H269894   1.407   4.902  16.418  0.2182  0.1650 -0.4312
16135TIP3   OH269895   6.129   2.230  16.489 -0.5161 -0.4186  0.0566
16135TIP3    H169896   6.114   2.300  16.552  1.3571 -0.1210  0.2497
16135TIP3    H269897   6.057   2.169  16.503 -0.4375 -0.1094  2.1459
16136TIP3   OH269898   2.724   4.869   1.403 -0.0491 -0.1324  0.6343
16136TIP3    H169899   2.777   4.889   1.480  0.3850 -2.9465  1.1670
16136TIP3    H269900   2.726   4.774   1.396  1.5680  0.0025 -4.0493
16137TIP3   OH269901   3.280   2.871   5.892 -0.2630 -0.1000 -0.6750
16137TIP3    H169902   3.272   2.890   5.798  0.5962  1.0039 -0.5407
16137TIP3    H269903   3.193   2.839   5.917 -0.4654 -0.5638 -1.8690
16138TIP3   OH269904   1.467   0.425  12.993  0.0045 -0.4792 -0.4555
16138TIP3    H169905   1.453   0.337  13.027  3.0398 -2.1221 -2.8774
16138TIP3    H269906   1.408   0.432  12.918 -1.9265  0.5878  1.0650
16139TIP3   OH269907   0.633   2.349  10.799  0.4361 -0.2079 -0.2544
16139TIP3    H169908   0.592   2.366  10.714 -0.0990  0.2194  0.0816
16139TIP3    H269909   0.632   2.433  10.844 -1.6177 -0.9004  1.1688
16140TIP3   OH269910   6.650   6.581  16.190 -0.2176 -0.7023 -0.4563
16140TIP3    H169911   6.561   6.613  16.176  1.1203  3.0258 -1.7463
16140TIP3    H269912   6.682   6.631  16.266  1.3059 -0.5741 -1.1441
16141TIP3   OH269913   6.223   3.988   6.732  0.8026 -0.4883  0.4316
16141TIP3    H169914   6.209   4.049   6.805  1.1689 -0.0531  0.1435
16141TIP3    H269915   6.317   3.993   6.714  0.7355 -0.6848  0.0083
16142TIP3   OH269916   2.637   4.486  16.232 -0.2239  0.0082  0.0939
16142TIP3    H169917   2.651   4.567  16.182 -2.2475 -1.3695 -2.9628
16142TIP3    H269918   2.704   4.426  16.198 -0.3391 -0.3653  0.5238
16143TIP3   OH269919   3.496   3.794  13.962  0.0585 -0.1748  0.4268
16143TIP3    H169920   3.428   3.731  13.940  0.6358 -0.5059 -0.4671
16143TIP3    H269921   3.528   3.826  13.878  2.0560 -1.1731  0.7413
16144TIP3   OH269922   1.424   5.358  15.400 -0.9095 -0.0588  0.1639
16144TIP3    H169923   1.428   5.263  15.408  0.2350 -0.0727 -0.4070
16144TIP3    H269924   1.392   5.388  15.485  1.4720 -0.8031  1.4250
16145TIP3   OH269925   0.449   5.614  12.836  0.2095  0.1279  0.4428
16145TIP3    H169926   0.541   5.601  12.857  0.7927  0.8886 -1.4676
16145TIP3    H269927   0.449   5.648  12.746 -1.9006  0.6503  0.5894
16146TIP3   OH269928   5.697   2.674  17.157  0.0143 -0.2178  0.2046
16146TIP3    H169929   5.717   2.623  17.236  1.2528 -0.4998 -0.2660
16146TIP3    H269930   5.740   2.627  17.087 -2.2007 -0.7248 -0.8970
16147TIP3   OH269931   1.274   2.527  11.288  0.0753 -0.5564  0.0331
16147TIP3    H169932   1.231   2.602  11.247 -1.0487 -1.4312 -0.4298
16147TIP3    H269933   1.356   2.563  11.323 -0.1726  0.7618 -0.6688
16148TIP3   OH269934   1.599   4.325   6.171 -0.2028  0.6080 -0.2265
16148TIP3    H169935   1.551   4.247   6.199  1.4558 -0.5339 -0.3345
16148TIP3    H269936   1.596   4.321   6.075 -1.6952  1.7507 -0.2501
16149TIP3   OH269937   2.262   5.011  13.817  0.5446 -0.4745  0.0657
16149TIP3    H169938   2.312   5.014  13.736  0.1516 -0.3981 -0.1763
16149TIP3    H269939   2.290   5.088  13.866  1.4249 -0.9924  0.3866
16150TIP3   OH269940   3.409   3.474   0.600  0.2387 -0.2691 -0.5989
16150TIP3    H169941   3.315   3.476   0.621  0.1462 -2.1667 -0.6441
16150TIP3    H269942   3.412   3.459   0.506  0.5789 -1.0109 -0.4727
16151TIP3   OH269943   3.732   6.388  13.401  0.6960 -0.8411 -0.5577
16151TIP3    H169944   3.674   6.367  13.328 -0.0368  0.4099 -0.3683
16151TIP3    H269945   3.720   6.482  13.415  1.3668 -0.9227  0.7064
16152TIP3   OH269946   6.655   5.389  12.155 -0.2724  0.0598 -0.4395
16152TIP3    H169947   6.648   5.312  12.211 -0.1741 -0.5563 -1.2572
16152TIP3    H269948   6.653   5.354  12.066  3.5508  0.5474 -0.9090
16153TIP3   OH269949   6.171   4.138   6.151  0.0798  0.5527  0.1503
16153TIP3    H169950   6.244   4.180   6.106  0.1271  0.9451  0.5908
16153TIP3    H269951   6.158   4.190   6.230 -0.3060  0.1453  0.3593
16154TIP3   OH269952   4.038   6.636   5.712  0.2339 -0.3220  0.2289
16154TIP3    H169953   4.011   6.608   5.800 -0.7616  2.0724  0.7509
16154TIP3    H269954   3.957   6.669   5.672  0.9334 -0.2080 -1.1377
16155TIP3   OH269955   6.584   0.139  12.961  0.0683  0.9848  0.0124
16155TIP3    H169956   6.616   0.213  12.908 -1.2287  1.1507 -0.5840
16155TIP3    H269957   6.569   0.069  12.897 -0.2935  0.7601  0.3410
16156TIP3   OH269958   4.998   6.524  12.411 -0.2578 -0.8148 -0.0674
16156TIP3    H169959   5.008   6.432  12.434  1.0573 -0.4742  0.8540
16156TIP3    H269960   5.004   6.571  12.495 -1.9035  0.0540 -0.3987
16157TIP3   OH269961   3.331   3.799   0.704 -0.0625  0.2984  0.2424
16157TIP3    H169962   3.391   3.795   0.778 -0.2600  1.7721  0.5240
16157TIP3    H269963   3.249   3.762   0.736 -0.1991  1.0841  0.8402
16158TIP3   OH269964   2.089   0.618  12.601 -0.1699  0.0832  0.2534
16158TIP3    H169965   2.134   0.703  12.600  0.5724 -0.2887  0.9175
16158TIP3    H269966   2.000   0.638  12.572  0.2663  0.9276 -0.5470
16159TIP3   OH269967   2.672   0.822  14.917  0.2549 -0.0472 -0.2783
16159TIP3    H169968   2.723   0.759  14.968 -0.1137  0.6849  1.0414
16159TIP3    H269969   2.722   0.903  14.922  0.3733 -0.0380 -1.3767
16160TIP3   OH269970   5.408   3.128  16.691 -0.2692 -0.5552  0.6182
16160TIP3    H169971   5.469   3.172  16.750  0.7768  0.0836 -0.8762
16160TIP3    H269972   5.447   3.042  16.676  0.5923  0.0443 -0.7549
16161TIP3   OH269973   4.056   3.719  14.403 -0.2012  0.1746 -0.2905
16161TIP3    H169974   3.967   3.711  14.370 -0.9802 -0.2142  1.7881
16161TIP3    H269975   4.075   3.813  14.395 -0.1182  0.0257 -2.3059
16162TIP3   OH269976   0.827   1.452  12.604 -0.1192 -0.2269 -0.4391
16162TIP3    H169977   0.916   1.442  12.572 -0.4196 -3.3879 -0.6563
16162TIP3    H269978   0.818   1.383  12.670 -2.4842 -0.2127 -0.6514
16163TIP3   OH269979   2.206   0.196  15.578 -0.1067  0.1921 -0.0236
16163TIP3    H169980   2.283   0.140  15.589  0.7681  1.3618 -0.0067
16163TIP3    H269981   2.224   0.244  15.497 -0.3121  1.2469  0.5448
16164TIP3   OH269982   0.056   4.866   5.681  0.2002  0.1349 -0.3505
16164TIP3    H169983   0.005   4.829   5.753  1.7041 -0.2690  0.5647
16164TIP3    H269984   0.034   4.812   5.605 -0.2136 -0.4495  0.1798
16165TIP3   OH269985   2.689   3.806   5.156 -0.5346 -0.4204  0.6185
16165TIP3    H169986   2.627   3.861   5.109  0.4070 -0.6973 -1.0069
16165TIP3    H269987   2.635   3.740   5.199 -1.4901  0.3964  0.7194
16166TIP3   OH269988   3.941   3.174   2.204 -0.5640  0.0096  0.2201
16166TIP3    H169989   4.004   3.171   2.132  0.1963  0.8721  0.8215
16166TIP3    H269990   3.864   3.127   2.171 -1.0532  2.1594 -1.9547
16167TIP3   OH269991   0.894   6.009  13.561  0.6123  0.0800 -0.2572
16167TIP3    H169992   0.821   6.071  13.565  0.1182 -0.5676  1.3496
16167TIP3    H269993   0.970   6.060  13.592 -0.0580 -0.4020  2.4757
16168TIP3   OH269994   5.491   2.947   4.070  0.0125  0.1389  0.3131
16168TIP3    H169995   5.506   2.918   4.160  0.7154  0.4702  0.3100
16168TIP3    H269996   5.572   2.925   4.023  0.6711  2.2309  0.3557
16169TIP3   OH269997   6.204   4.639  14.884  0.1929  0.0815  0.1938
16169TIP3    H169998   6.290   4.679  14.897  0.2554 -0.2325  0.8060
16169TIP3    H269999   6.208   4.557  14.934  0.9304 -1.9819 -2.9595
16170TIP3   OH270000   2.744   0.354  15.205  0.0681 -0.4526  0.1921
16170TIP3    H170001   2.839   0.350  15.190 -0.0813 -2.1922 -0.5492
16170TIP3    H270002   2.730   0.440  15.246  1.8614  0.1354 -0.3134
16171TIP3   OH270003   2.640   5.761   0.152 -0.4054  0.1749  0.3395
16171TIP3    H170004   2.692   5.693   0.194 -0.2127  0.2827  0.2776
16171TIP3    H270005   2.701   5.834   0.141 -0.4841  0.1879 -0.0282
16172TIP3   OH270006   3.489   1.180  11.955  0.7410  0.3281 -0.4630
16172TIP3    H170007   3.495   1.133  12.038 -1.5712  0.0292 -0.4008
16172TIP3    H270008   3.576   1.220  11.943  1.4118 -0.4036  1.5947
16173TIP3   OH270009   3.587   1.032   4.726 -0.1156  0.2198 -0.5188
16173TIP3    H170010   3.498   1.067   4.719 -0.0313  0.4474 -0.4758
16173TIP3    H270011   3.618   1.065   4.811  0.1727  0.5238 -0.7410
16174TIP3   OH270012   5.713   1.830  12.512 -0.1344  0.6367  0.0758
16174TIP3    H170013   5.670   1.835  12.597  0.0887 -1.4426  0.3689
16174TIP3    H270014   5.650   1.784  12.455  0.2870  0.7161 -0.4706
16175TIP3   OH270015   6.798   2.629  10.562  0.1875  0.5349  0.0735
16175TIP3    H170016   6.716   2.627  10.611 -0.6742 -1.6127 -1.3151
16175TIP3    H270017   6.827   2.720  10.567 -1.1135  0.8918  2.4411
16176TIP3   OH270018   4.185   4.723   4.514  0.2738  0.2262  0.0642
16176TIP3    H170019   4.099   4.756   4.539 -0.6004 -1.8491  0.0414
16176TIP3    H270020   4.174   4.692   4.424  0.7392 -1.0065  0.4135
16177TIP3   OH270021   4.268   0.252  15.671  0.0319  0.5462  0.5155
16177TIP3    H170022   4.281   0.205  15.589  0.2171 -0.0251  0.8686
16177TIP3    H270023   4.276   0.344  15.647  0.0780  0.3819 -0.1104
16178TIP3   OH270024   0.861   3.062   5.395  0.1897  0.6376  0.2107
16178TIP3    H170025   0.785   3.119   5.391  0.3926  0.9488  0.6725
16178TIP3    H270026   0.830   2.978   5.360 -1.0723  0.0063  2.6167
16179TIP3   OH270027   4.450   0.258   0.951 -0.1548 -0.0451  0.2131
16179TIP3    H170028   4.451   0.162   0.948  1.3782 -0.0380 -1.1091
16179TIP3    H270029   4.366   0.282   0.912 -0.3595 -0.8445  0.1314
16180TIP3   OH270030   5.951   1.130   2.999  0.2977  0.0055 -0.0164
16180TIP3    H170031   5.990   1.163   3.080  0.2449  0.0175  0.0046
16180TIP3    H270032   6.014   1.067   2.966 -0.1893 -0.8410  0.6251
16181TIP3   OH270033   3.970   5.228  13.970  0.5429  0.5812 -0.0652
16181TIP3    H170034   3.985   5.137  13.994 -0.1558  0.3093 -0.6137
16181TIP3    H270035   4.054   5.271  13.984  0.9527 -0.2013 -0.0553
16182TIP3   OH270036   2.887   1.120   2.154 -0.4043  0.1660 -0.0107
16182TIP3    H170037   2.967   1.075   2.183  0.6270  1.3197 -0.9587
16182TIP3    H270038   2.816   1.063   2.183  0.6084  0.2383  2.9485
16183TIP3   OH270039   4.318   1.342   0.748  0.5582 -0.1605  0.9270
16183TIP3    H170040   4.238   1.333   0.800  0.8172 -1.1980  1.1609
16183TIP3    H270041   4.287   1.346   0.657  0.1780  0.5270  1.0789
16184TIP3   OH270042   3.256   3.432  15.057  0.0784  1.6402  0.6158
16184TIP3    H170043   3.191   3.423  15.127 -0.9319 -0.2107 -0.5065
16184TIP3    H270044   3.209   3.475  14.986 -0.3283 -0.6501 -0.5940
16185TIP3   OH270045   5.120   5.490   0.327  0.1703  0.1704 -0.0155
16185TIP3    H170046   5.072   5.510   0.247 -2.0488  0.2266  1.2449
16185TIP3    H270047   5.109   5.395   0.338  3.9243 -0.6804 -1.7910
16186TIP3   OH270048   3.825   3.953  14.337  0.2868 -0.6299 -0.3189
16186TIP3    H170049   3.845   4.029  14.391 -1.5047  1.0654 -1.9077
16186TIP3    H270050   3.865   3.971  14.253 -1.0485 -0.9099 -1.0450
16187TIP3   OH270051   2.956   0.148  13.972  0.5511 -0.3166  0.3808
16187TIP3    H170052   3.019   0.084  13.938 -1.3628 -2.4691  0.5754
16187TIP3    H270053   2.872   0.120  13.935 -0.4485  1.9200  0.7905
16188TIP3   OH270054   1.649   3.260  16.206 -0.5314  0.1741  0.3258
16188TIP3    H170055   1.602   3.204  16.268 -2.0391  1.3308  0.2950
16188TIP3    H270056   1.648   3.211  16.124 -1.6453  0.1271  0.3494
16189TIP3   OH270057   1.676   5.789   4.435  0.0477 -1.3111 -0.3341
16189TIP3    H170058   1.585   5.810   4.414  0.4588  1.7805  0.4156
16189TIP3    H270059   1.672   5.701   4.472 -2.9829 -0.5595  1.5402
16190TIP3   OH270060   2.333   6.369  12.668  0.4099  0.3512 -0.0460
16190TIP3    H170061   2.294   6.287  12.698  0.1226  0.6438  0.3888
16190TIP3    H270062   2.267   6.436  12.688  1.3842  0.9515  1.2816
16191TIP3   OH270063   3.367   6.601  15.928 -0.1170  0.5801 -0.7633
16191TIP3    H170064   3.367   6.515  15.971  3.7661  1.4983  1.4678
16191TIP3    H270065   3.281   6.638  15.950 -1.3362 -2.0601 -0.5726
16192TIP3   OH270066   1.732   0.192   3.126 -0.0854  0.5399  0.0063
16192TIP3    H170067   1.653   0.153   3.088  0.9410 -0.1007 -1.6176
16192TIP3    H270068   1.743   0.147   3.210 -0.7188 -0.3272 -0.3593
16193TIP3   OH270069   5.682   2.387   3.769  0.5924  0.1993  0.0279
16193TIP3    H170070   5.646   2.430   3.847  0.9926  0.5939 -0.0055
16193TIP3    H270071   5.614   2.399   3.703 -0.2670 -1.1474  0.6231
16194TIP3   OH270072   2.893   6.196  16.374  0.5315 -0.0412  0.1451
16194TIP3    H170073   2.807   6.193  16.333 -0.0262 -0.3554  1.2937
16194TIP3    H270074   2.951   6.229  16.306 -0.0522 -1.9384 -1.3626
16195TIP3   OH270075   6.001   1.411   0.812  0.6323 -0.1281  0.4784
16195TIP3    H170076   5.994   1.380   0.902 -0.1602 -1.7338 -0.1080
16195TIP3    H270077   6.084   1.459   0.810  2.0668 -2.3793  1.4106
16196TIP3   OH270078   4.098   0.400  12.686 -0.0827 -0.3498  0.2270
16196TIP3    H170079   4.117   0.461  12.757 -0.4031 -0.0997  0.1017
16196TIP3    H270080   4.109   0.314  12.726  0.4983 -0.2112  0.3680
16197TIP3   OH270081   4.241   6.431  16.391 -0.6954 -0.1593  0.4520
16197TIP3    H170082   4.257   6.402  16.480 -3.7158  0.4641  1.2919
16197TIP3    H270083   4.180   6.504  16.400  1.4081  2.1390 -1.9693
16198TIP3   OH270084   2.133   3.265   3.234  0.1962 -0.2795  0.2149
16198TIP3    H170085   2.134   3.266   3.138  2.4693  1.5540  0.1511
16198TIP3    H270086   2.051   3.309   3.257  0.5322  1.0455 -0.9618
16199TIP3   OH270087   6.707   4.231  13.662 -0.2059  0.3058  0.4912
16199TIP3    H170088   6.646   4.259  13.731  0.0695 -0.7770  1.1976
16199TIP3    H270089   6.726   4.311  13.613 -2.9734  0.5326 -0.3914
16200TIP3   OH270090   1.842   0.565   4.796  0.0766  0.0376 -0.5948
16200TIP3    H170091   1.784   0.505   4.749  1.0940  0.0690 -1.9548
16200TIP3    H270092   1.922   0.514   4.811  0.2078  0.4189  0.0342
16201TIP3   OH270093   5.407   6.802  17.029  0.0609 -0.8700 -0.0649
16201TIP3    H170094   5.356   6.731  17.067  0.2058 -0.6521  0.5524
16201TIP3    H270095   5.496   6.768  17.024 -0.1326 -1.2387 -1.1109
16202TIP3   OH270096   2.078   6.744   0.794  0.1773  0.4469 -0.2282
16202TIP3    H170097   1.983   6.757   0.788  0.1568  0.5102  0.2386
16202TIP3    H270098   2.112   6.789   0.717 -0.2827 -0.8053 -1.2091
16203TIP3   OH270099   3.548   2.052  12.499  0.3126 -0.0435  0.6693
16203TIP3    H170100   3.518   2.038  12.588 -0.8702  0.4747  0.3857
16203TIP3    H270101   3.476   2.019  12.444 -0.5937  2.7737 -0.0271
16204TIP3   OH270102   1.121   5.159   5.499  0.1462  0.1214 -0.0226
16204TIP3    H170103   1.027   5.148   5.507  0.2558  0.1731  1.7785
16204TIP3    H270104   1.135   5.254   5.502  0.2759  0.1005  0.0591
16205TIP3   OH270105   3.452   2.673  16.457  0.6698 -0.3366  0.2227
16205TIP3    H170106   3.356   2.678  16.462  0.5210  2.5662 -2.4458
16205TIP3    H270107   3.481   2.673  16.548 -1.8053 -3.1660  1.1714
16206TIP3   OH270108   4.419   3.825   3.258 -0.4515 -0.1560  0.0130
16206TIP3    H170109   4.348   3.788   3.311 -1.7998  1.5563 -0.5267
16206TIP3    H270110   4.480   3.862   3.321 -1.1288  0.2577  0.4312
16207TIP3   OH270111   3.637   5.877  12.954  0.1738  0.4634  0.1427
16207TIP3    H170112   3.546   5.882  12.925 -0.0008  1.5177  0.8041
16207TIP3    H270113   3.669   5.967  12.948  1.4613 -0.0387 -0.9348
16208TIP3   OH270114   5.327   6.487   2.009 -0.1927  0.3172  0.3153
16208TIP3    H170115   5.405   6.450   1.967 -1.3593 -1.7459 -0.1704
16208TIP3    H270116   5.271   6.512   1.935 -0.6965  0.2274  0.6699
16209TIP3   OH270117   5.320   2.716  11.149  0.3137 -0.5909  0.1949
16209TIP3    H170118   5.388   2.697  11.085  2.0838 -0.0527  1.8258
16209TIP3    H270119   5.324   2.811  11.160 -1.3682 -0.4316 -0.3637
16210TIP3   OH270120   2.530   5.886   3.316 -0.0289  0.0451 -0.2353
16210TIP3    H170121   2.471   5.915   3.247  0.5460 -0.1306 -0.8092
16210TIP3    H270122   2.488   5.808   3.352 -0.7293  0.5936  0.1648
16211TIP3   OH270123   5.572   4.193   2.805 -0.2317 -0.3958  0.4600
16211TIP3    H170124   5.488   4.232   2.830  0.5539  1.7405  0.0334
16211TIP3    H270125   5.556   4.155   2.719 -0.7157  0.2335  0.2649
16212TIP3   OH270126   3.322   1.452  16.119 -0.2585 -0.0154 -0.3134
16212TIP3    H170127   3.408   1.487  16.097 -1.0038  2.8503  0.8421
16212TIP3    H270128   3.262   1.497  16.059 -1.0269 -1.5610 -0.7493
16213TIP3   OH270129   4.142   5.385  12.773 -0.5785 -0.3445 -0.3047
16213TIP3    H170130   4.124   5.397  12.866 -1.9468  3.1823 -0.8754
16213TIP3    H270131   4.076   5.321  12.745 -1.2369 -0.2148  0.8555
16214TIP3   OH270132   5.422   3.407   4.365  0.2361  0.1216  0.0195
16214TIP3    H170133   5.337   3.417   4.322 -0.4262 -1.5874  0.8167
16214TIP3    H270134   5.480   3.376   4.296  0.2664  1.4411 -0.5682
16215TIP3   OH270135   3.449   6.406   0.711  0.1306  0.2467  0.0219
16215TIP3    H170136   3.401   6.430   0.632  0.6653 -0.0712 -0.4069
16215TIP3    H270137   3.428   6.314   0.725 -0.1955  0.3816  0.4179
16216TIP3   OH270138   5.293   3.225  11.758 -0.1333  0.2363 -0.1623
16216TIP3    H170139   5.375   3.267  11.732 -0.1586  0.6164  0.3516
16216TIP3    H270140   5.245   3.294  11.805  0.1977 -0.6026  1.4778
16217TIP3   OH270141   2.160   3.587  12.154 -0.3603 -0.4784 -0.0272
16217TIP3    H170142   2.075   3.626  12.175 -0.9255 -1.1554 -0.9831
16217TIP3    H270143   2.144   3.536  12.075  1.5490  1.5598 -1.8529
16218TIP3   OH270144   1.536   1.233  15.878  0.4470 -0.0724  0.5099
16218TIP3    H170145   1.622   1.245  15.838 -1.4418  2.0414 -3.5791
16218TIP3    H270146   1.539   1.287  15.957  2.8400 -0.0521  0.4950
16219TIP3   OH270147   0.738   3.416   5.958  0.2987  0.2137 -0.0497
16219TIP3    H170148   0.752   3.332   6.002  1.6317 -0.1338 -1.0856
16219TIP3    H270149   0.659   3.403   5.905 -0.1409  0.0014  0.6302
16220TIP3   OH270150   5.354   4.649  12.247  0.6492 -0.1791  0.6336
16220TIP3    H170151   5.286   4.630  12.182  2.9291  0.3118 -2.0874
16220TIP3    H270152   5.359   4.570  12.299  0.1533 -1.4748 -1.1678
16221TIP3   OH270153   3.141   2.150  12.558 -0.4935 -0.5344 -0.0480
16221TIP3    H170154   3.165   2.130  12.468  1.0099 -3.0214  0.8064
16221TIP3    H270155   3.223   2.175  12.600 -1.3785  1.8767  0.4058
16222TIP3   OH270156   3.838   4.157   2.030  0.1681 -0.0726 -0.1258
16222TIP3    H170157   3.850   4.094   2.101 -0.9096 -0.6902 -0.4665
16222TIP3    H270158   3.826   4.241   2.075  1.8132 -0.0394  0.3199
16223TIP3   OH270159   1.353   0.922  13.131 -0.1323  0.7622  0.3524
16223TIP3    H170160   1.364   0.830  13.156 -0.5801  1.0471  1.6685
16223TIP3    H270161   1.319   0.918  13.041  0.2458 -0.3383  0.2407
16224TIP3   OH270162   0.211   4.804  11.952  0.4063 -0.0870  0.3236
16224TIP3    H170163   0.213   4.874  12.017  1.7522  1.3048 -1.1432
16224TIP3    H270164   0.284   4.747  11.976  0.7061  0.2528  0.2269
16225TIP3   OH270165   5.503   6.071   5.691 -0.0745  0.5548 -0.4385
16225TIP3    H170166   5.594   6.047   5.674  0.1812  2.0071 -1.3663
16225TIP3    H270167   5.469   6.001   5.747  0.8576 -1.3462 -2.1259
16226TIP3   OH270168   4.302   5.950  14.483 -0.1002 -0.7470  0.5336
16226TIP3    H170169   4.373   5.963  14.420 -0.1121 -2.8497  0.0182
16226TIP3    H270170   4.342   5.969  14.568  0.7422 -0.7433  0.1505
16227TIP3   OH270171   3.054   6.341   2.273  0.4322  0.1547 -0.1003
16227TIP3    H170172   2.991   6.304   2.212 -0.4473  0.6425  0.4877
16227TIP3    H270173   3.138   6.301   2.248 -0.2558 -1.2505 -0.2767
16228TIP3   OH270174   4.031   0.886  11.467  0.4876 -0.6853  0.0199
16228TIP3    H170175   3.946   0.908  11.503 -0.2028 -1.6722 -0.9225
16228TIP3    H270176   4.094   0.928  11.525 -0.6416  0.4396  0.4746
16229TIP3   OH270177   1.162   3.254   2.742  0.1767 -0.5066 -0.6039
16229TIP3    H170178   1.140   3.340   2.706  0.3517 -0.3480 -0.3345
16229TIP3    H270179   1.192   3.203   2.667  0.3968 -0.2259 -0.7065
16230TIP3   OH270180   3.166   6.417  13.573 -0.1766 -0.2589 -0.0791
16230TIP3    H170181   3.092   6.398  13.631  0.6696  0.1001  1.1588
16230TIP3    H270182   3.175   6.512  13.575  0.1189 -0.2754 -0.4710
16231TIP3   OH270183   3.523   6.185  11.042  0.0030  0.0651 -0.4652
16231TIP3    H170184   3.550   6.277  11.047  1.7237 -0.4409  0.1957
16231TIP3    H270185   3.540   6.151  11.130 -0.5186 -0.9247 -0.7330
16232TIP3   OH270186   4.425   4.721  12.044 -0.3424  0.0602  0.1288
16232TIP3    H170187   4.504   4.764  12.010 -0.2309  0.3218  0.7022
16232TIP3    H270188   4.353   4.769  12.003 -0.2090  0.1216 -0.0386
16233TIP3   OH270189   5.385   3.942  13.405 -0.0679  0.1977  0.3318
16233TIP3    H170190   5.476   3.973  13.403 -0.1184  0.3540  0.4153
16233TIP3    H270191   5.360   3.946  13.498 -0.2209  0.3398  0.2867
16234TIP3   OH270192   0.603   6.735  15.853 -0.1806  0.4253  0.1446
16234TIP3    H170193   0.638   6.815  15.891 -1.1783  0.9853 -0.0614
16234TIP3    H270194   0.637   6.734  15.764 -0.2738  0.6934  0.1045
16235TIP3   OH270195   5.746   0.655  12.423 -0.0795  0.7616 -0.3416
16235TIP3    H170196   5.713   0.723  12.364 -0.9738  1.0515  0.4651
16235TIP3    H270197   5.693   0.578  12.402 -0.1576  0.7683 -0.1761
16236TIP3   OH270198   4.866   4.235   4.851 -0.1602 -0.1426 -0.4135
16236TIP3    H170199   4.919   4.285   4.789  3.7969 -0.4257  2.3459
16236TIP3    H270200   4.810   4.301   4.893  0.4169  0.8321 -1.1164
16237TIP3   OH270201   6.054   2.389   1.162  0.1887 -0.1206  0.5536
16237TIP3    H170202   5.994   2.327   1.121  0.2750  0.8118 -1.0757
16237TIP3    H270203   6.010   2.474   1.154  0.7694  0.2615  1.2896
16238TIP3   OH270204   4.237   1.997   5.776 -0.2835 -0.0429  0.0265
16238TIP3    H170205   4.152   1.960   5.798  0.6870 -2.3929  0.0594
16238TIP3    H270206   4.296   1.963   5.843  1.4247 -1.7380 -2.1955
16239TIP3   OH270207   1.572   5.263  15.651  0.0228 -0.3110 -0.9125
16239TIP3    H170208   1.565   5.204  15.576 -1.2380 -1.7536  0.2750
16239TIP3    H270209   1.594   5.207  15.725  0.6990  1.0018 -0.0651
16240TIP3   OH270210   0.617   4.802   0.253  0.4355 -0.1133  0.1785
16240TIP3    H170211   0.680   4.858   0.299  1.2415 -1.5902  0.9352
16240TIP3    H270212   0.532   4.839   0.275  0.9210  0.5072  1.0859
16241TIP3   OH270213   4.687   4.188  17.271 -0.1261 -0.9702  0.1147
16241TIP3    H170214   4.684   4.202  17.177 -0.0791 -0.0069  0.2403
16241TIP3    H270215   4.655   4.099  17.284 -0.6551 -0.9167 -0.7634
16242TIP3   OH270216   1.214   3.316  12.490 -0.1772  0.2289  0.7873
16242TIP3    H170217   1.145   3.377  12.467 -0.6694 -0.6674 -0.2227
16242TIP3    H270218   1.169   3.240  12.525  0.3815  0.1402  1.3392
16243TIP3   OH270219   6.730   6.675  11.694 -0.3856  0.3803 -0.2716
16243TIP3    H170220   6.807   6.717  11.733  1.3528 -1.5212 -1.4368
16243TIP3    H270221   6.657   6.706  11.747  1.5647 -0.7146  3.4374
16244TIP3   OH270222   3.802   1.684   1.713  0.2097 -0.2761 -0.1648
16244TIP3    H170223   3.740   1.727   1.655  2.1884  0.5524 -1.7827
16244TIP3    H270224   3.850   1.624   1.657  1.1324 -0.6241  0.9544
16245TIP3   OH270225   6.438   5.155   4.050 -0.1461 -0.3984 -0.2370
16245TIP3    H170226   6.416   5.101   3.974 -1.2485 -0.0909 -0.1460
16245TIP3    H270227   6.457   5.092   4.119  0.9058 -0.6832 -0.7551
16246TIP3   OH270228   2.600   3.890   3.255  1.2049  0.4056 -0.4659
16246TIP3    H170229   2.625   3.801   3.232 -0.0529  0.0363 -0.4813
16246TIP3    H270230   2.539   3.880   3.329 -0.4139  1.1084 -1.6489
16247TIP3   OH270231   5.277   1.163  13.874  0.7616  0.2509 -0.0771
16247TIP3    H170232   5.350   1.214  13.840  0.2749  1.2077  0.2607
16247TIP3    H270233   5.312   1.120  13.952  1.1416  0.1904 -0.2802
16248TIP3   OH270234   6.536   0.515   4.451 -0.3539 -0.0319  0.0341
16248TIP3    H170235   6.624   0.507   4.416  0.2299  0.1142  1.3836
16248TIP3    H270236   6.481   0.534   4.375  0.6007 -1.1845 -0.9730
16249TIP3   OH270237   5.173   3.800  12.379 -0.0856 -0.3696  0.1371
16249TIP3    H170238   5.184   3.712  12.413  0.0125  0.2280  1.7400
16249TIP3    H270239   5.141   3.787  12.290 -2.9095 -2.0756  1.2405
16250TIP3   OH270240   6.533   2.914  10.964  0.1005 -0.1126  0.4135
16250TIP3    H170241   6.467   2.982  10.951 -0.5660 -0.7169  0.5986
16250TIP3    H270242   6.491   2.849  11.020  0.4000 -1.1464 -0.5221
16251TIP3   OH270243   0.278   1.674   2.672  0.1482 -0.1587 -0.3990
16251TIP3    H170244   0.219   1.606   2.641 -0.5385  1.0387 -1.8955
16251TIP3    H270245   0.239   1.756   2.641  1.4561  0.8431  0.4611
16252TIP3   OH270246   5.136   5.469  13.802  0.0577 -0.2730  0.3981
16252TIP3    H170247   5.209   5.493  13.859  1.0849  0.3349 -1.1306
16252TIP3    H270248   5.125   5.375  13.816  4.9311 -1.8329 -3.3023
16253TIP3   OH270249   1.075   5.117   3.615  0.1637 -0.1681 -0.1644
16253TIP3    H170250   1.048   5.091   3.527  1.2369 -3.8250  0.4208
16253TIP3    H270251   1.171   5.122   3.610  0.2400 -0.4955  0.8081
16254TIP3   OH270252   2.912   4.147  16.109  0.1145 -0.5180 -0.2697
16254TIP3    H170253   2.934   4.200  16.032 -0.8808 -1.5125 -1.2697
16254TIP3    H270254   2.969   4.181  16.178 -0.4485  1.8159 -0.8670
16255TIP3   OH270255   6.552   3.795  12.984 -0.2263  0.2439  0.0676
16255TIP3    H170256   6.564   3.700  12.978  0.4925  0.3787 -0.8901
16255TIP3    H270257   6.478   3.813  12.926  0.3335  0.3770 -0.6296
16256TIP3   OH270258   6.812   5.713   4.257 -0.1870  0.5525 -0.6415
16256TIP3    H170259   6.823   5.687   4.349 -1.7860  0.5064 -0.4207
16256TIP3    H270260   6.838   5.636   4.207 -0.7671  0.0205 -0.1463
16257TIP3   OH270261   0.851   2.084  12.692  0.2162 -0.0992  0.4022
16257TIP3    H170262   0.844   2.158  12.752  0.0331  1.0463 -0.9650
16257TIP3    H270263   0.859   2.008  12.748 -0.5009  0.8680  1.8775
16258TIP3   OH270264   3.008   4.320  15.927 -0.0603 -0.2092  0.2642
16258TIP3    H170265   2.989   4.412  15.912 -0.2006  0.1443  2.3365
16258TIP3    H270266   3.098   4.318  15.959 -0.3258 -0.6899  1.0061
16259TIP3   OH270267   4.127   4.883   4.827  0.1376  0.8176  0.4920
16259TIP3    H170268   4.131   4.975   4.853  0.5265  1.4224 -1.5842
16259TIP3    H270269   4.089   4.883   4.740 -0.5313 -1.0741  0.7196
16260TIP3   OH270270   5.744   4.620  13.618  0.1570 -0.3616 -0.1058
16260TIP3    H170271   5.689   4.633  13.542 -0.8029  1.1509  0.8005
16260TIP3    H270272   5.686   4.580  13.683  0.1169  1.1091  0.8068
16261TIP3   OH270273   5.460   2.061   4.434 -0.0092 -0.1740  0.4096
16261TIP3    H170274   5.388   2.122   4.449 -0.2775 -0.1549 -0.7988
16261TIP3    H270275   5.426   1.977   4.463 -0.4650 -0.1348  0.0085
16262TIP3   OH270276   4.349   3.697   1.930 -0.0577  0.0221 -0.6355
16262TIP3    H170277   4.409   3.636   1.888  0.0610 -0.2986 -0.0050
16262TIP3    H270278   4.281   3.641   1.969  0.8085  0.1683  1.1716
16263TIP3   OH270279   0.175   3.435  11.785  0.0184 -0.3470  0.0206
16263TIP3    H170280   0.261   3.409  11.750  0.2201  0.3527 -0.0185
16263TIP3    H270281   0.176   3.402  11.875 -0.6526 -2.4826 -0.6895
16264TIP3   OH270282   1.592   5.630  11.310 -0.7024 -0.0748  0.6043
16264TIP3    H170283   1.510   5.678  11.295  0.0663  0.5881 -1.7503
16264TIP3    H270284   1.648   5.692  11.355  0.1069  1.1997 -1.9787
16265TIP3   OH270285   6.623   6.561   1.301 -0.8116  0.5111  0.7422
16265TIP3    H170286   6.612   6.472   1.333 -0.9096  0.3546  0.2858
16265TIP3    H270287   6.648   6.612   1.378  1.9750 -0.3953  0.5109
16266TIP3   OH270288   0.422   5.078   2.064 -0.1972  0.3476 -0.1538
16266TIP3    H170289   0.501   5.119   2.028 -1.3573  1.1531 -1.9410
16266TIP3    H270290   0.358   5.149   2.066 -1.5919 -0.8394 -1.0937
16267TIP3   OH270291   3.068   2.305  16.783 -0.6827  0.5944  0.2760
16267TIP3    H170292   3.032   2.223  16.750 -1.5166  1.2665 -0.5606
16267TIP3    H270293   3.160   2.286  16.801 -0.3742 -0.0452 -1.6925
16268TIP3   OH270294   2.374   5.726  15.628  0.4798  0.4416 -0.1872
16268TIP3    H170295   2.435   5.667  15.673  0.5136  0.2785 -0.4429
16268TIP3    H270296   2.294   5.675  15.617 -0.4112  1.3017  1.9151
16269TIP3   OH270297   5.974   6.238  15.523 -0.2503  0.0862 -0.1795
16269TIP3    H170298   5.970   6.286  15.606 -2.5897 -0.7003  0.2392
16269TIP3    H270299   6.022   6.158  15.545 -2.3927 -0.9767  0.9808
16270TIP3   OH270300   5.828   5.798   2.974 -0.2144  0.0175  0.6439
16270TIP3    H170301   5.775   5.838   3.042  0.1940 -0.4926  1.2713
16270TIP3    H270302   5.772   5.797   2.896 -0.3696  1.4448  0.7075
16271TIP3   OH270303   3.931   1.155   2.056 -0.1020 -0.0315 -0.1996
16271TIP3    H170304   3.838   1.178   2.049 -0.3829 -1.0300  0.1337
16271TIP3    H270305   3.974   1.214   1.995 -1.1758 -0.8398 -1.8152
16272TIP3   OH270306   1.419   1.028  11.785  0.4287 -0.4637 -0.0733
16272TIP3    H170307   1.503   1.045  11.828  1.1887 -3.8187  0.0949
16272TIP3    H270308   1.362   0.996  11.855 -0.9276  1.3615 -0.2749
16273TIP3   OH270309   5.225   3.936  16.198 -0.0140 -0.8252  0.5034
16273TIP3    H170310   5.218   4.026  16.228  1.0588 -0.8457  0.8587
16273TIP3    H270311   5.309   3.932  16.151 -0.8187 -1.2378 -0.9482
16274TIP3   OH270312   0.224   3.592  12.781 -0.0225  0.2055 -0.0661
16274TIP3    H170313   0.212   3.666  12.721  0.9004  0.5471  0.1522
16274TIP3    H270314   0.267   3.629  12.857  2.5059 -0.8804 -0.8343
16275TIP3   OH270315   3.020   1.770   4.170 -0.6127 -0.3043  0.2202
16275TIP3    H170316   3.030   1.725   4.086 -0.4543 -0.6355  0.4161
16275TIP3    H270317   3.058   1.857   4.155 -1.4466 -0.0209 -0.3253
16276TIP3   OH270318   5.639   3.304   4.912 -0.0947  1.5230 -0.3677
16276TIP3    H170319   5.678   3.363   4.977 -0.8297  1.8808 -0.2464
16276TIP3    H270320   5.546   3.303   4.933 -0.2701  1.2631 -1.1263
16277TIP3   OH270321   6.529   0.385  12.440  0.1757 -0.1601 -0.8765
16277TIP3    H170322   6.488   0.321  12.498  2.3354  1.0724  2.2550
16277TIP3    H270323   6.462   0.453  12.428 -0.8139 -1.1500 -1.1205
16278TIP3   OH270324   5.733   6.088  13.471  0.4614  0.2532 -0.0062
16278TIP3    H170325   5.732   5.994  13.453 -0.0136  0.3929 -0.7832
16278TIP3    H270326   5.653   6.102  13.522  0.8653  0.1407  0.6651
16279TIP3   OH270327   4.632   0.550  16.979  0.1537  0.1887 -0.2490
16279TIP3    H170328   4.630   0.645  16.977 -3.0261  0.2107 -1.3262
16279TIP3    H270329   4.577   0.527  17.055 -0.5057 -0.7450 -0.9866
16280TIP3   OH270330   3.472   4.996  16.273 -0.6100  0.4071  0.1213
16280TIP3    H170331   3.446   4.904  16.265 -0.0281  0.1512  1.0399
16280TIP3    H270332   3.550   5.003  16.217  0.0793  0.0175  0.9961
16281TIP3   OH270333   1.606   5.875  11.558 -0.1426  0.4845 -0.4482
16281TIP3    H170334   1.609   5.914  11.646  0.1058  1.6908 -0.9702
16281TIP3    H270335   1.567   5.943  11.503 -3.4459 -1.4266 -0.7086
16282TIP3   OH270336   0.551   2.664  16.597 -0.2449 -0.3348 -0.2918
16282TIP3    H170337   0.546   2.583  16.547 -1.6045 -0.5540  0.1564
16282TIP3    H270338   0.487   2.653  16.667  0.2983  0.7128  0.4048
16283TIP3   OH270339   0.996   4.042  15.359  0.2572 -0.2811 -0.1136
16283TIP3    H170340   1.001   4.118  15.300  0.3454 -0.5034 -0.3945
16283TIP3    H270341   0.929   4.066  15.423  1.7539  0.9188  1.0706
16284TIP3   OH270342   1.080   3.032   6.260  0.5040  0.1710  0.1163
16284TIP3    H170343   1.091   2.966   6.328  0.3345 -2.2744 -2.0653
16284TIP3    H270344   0.986   3.054   6.262  0.7563  1.2312  1.5618
16285TIP3   OH270345   4.070   3.759  11.458  0.0634  0.7218 -0.2172
16285TIP3    H170346   4.165   3.763  11.446  0.1419  1.4028  0.5386
16285TIP3    H270347   4.038   3.844  11.430 -0.3508  0.4360 -0.6262
16286TIP3   OH270348   0.692   6.628   0.346  0.4129 -0.3088 -0.8482
16286TIP3    H170349   0.716   6.541   0.314  0.8609 -0.6474  0.3591
16286TIP3    H270350   0.702   6.622   0.441  1.4284  1.3571 -0.8147
16287TIP3   OH270351   4.081   1.800   2.087  0.1207 -0.1268  0.3637
16287TIP3    H170352   4.041   1.780   2.002  0.1713 -0.8898  0.5183
16287TIP3    H270353   4.067   1.895   2.097  1.1711  0.2041 -1.0309
16288TIP3   OH270354   6.225   1.127   0.589 -0.3765 -0.0594  0.5097
16288TIP3    H170355   6.192   1.038   0.599  1.3371 -0.7830  0.0140
16288TIP3    H270356   6.147   1.179   0.569 -1.2130 -1.6895 -0.7169
16289TIP3   OH270357   3.929   5.901  12.301  0.2215  0.8955 -0.6239
16289TIP3    H170358   3.866   5.949  12.247 -2.0204 -0.4694  0.5786
16289TIP3    H270359   3.964   5.966  12.361 -1.4392  1.4278 -0.1654
16290TIP3   OH270360   5.433   1.481   6.668  0.4299  0.4541 -0.1824
16290TIP3    H170361   5.359   1.537   6.645 -3.4000 -3.5678  0.9343
16290TIP3    H270362   5.450   1.430   6.588 -0.5598 -1.0551  0.5160
16291TIP3   OH270363   1.217   5.015  11.801 -0.5362 -0.0427 -0.3202
16291TIP3    H170364   1.268   4.952  11.750  0.1667  0.3935 -0.1776
16291TIP3    H270365   1.235   5.099  11.759 -0.2203  0.2750  0.4320
16292TIP3   OH270366   3.239   4.990   5.847 -0.4917 -0.6983 -0.8801
16292TIP3    H170367   3.295   5.059   5.883  0.4179 -0.4991 -2.5679
16292TIP3    H270368   3.170   4.978   5.912  1.6707 -1.2012  1.4870
16293TIP3   OH270369   4.782   5.227   5.320 -0.5053  0.3027 -0.0352
16293TIP3    H170370   4.732   5.147   5.304 -0.5098  0.7822 -3.0287
16293TIP3    H270371   4.726   5.281   5.376 -0.7759 -1.4470  1.4698
16294TIP3   OH270372   6.640   4.791   0.379  0.0270  0.0274  0.0626
16294TIP3    H170373   6.603   4.779   0.466  1.3679  1.2273  0.8441
16294TIP3    H270374   6.654   4.702   0.346  0.0704 -0.4507  1.3304
16295TIP3   OH270375   3.408   1.773  11.408 -0.2670  0.0041  0.7462
16295TIP3    H170376   3.350   1.761  11.332  0.9139  0.0647 -0.1872
16295TIP3    H270377   3.396   1.864  11.434 -0.7688 -0.0512  0.7230
16296TIP3   OH270378   3.879   0.819  15.845 -0.6327 -0.2412  0.2940
16296TIP3    H170379   3.798   0.863  15.869  0.6194  1.0665  2.5394
16296TIP3    H270380   3.923   0.803  15.929  0.2159 -3.4876 -0.6007
16297TIP3   OH270381   0.614   6.690   4.741  0.3591 -0.2194 -0.5320
16297TIP3    H170382   0.626   6.624   4.810 -0.7085  0.5959  0.4580
16297TIP3    H270383   0.546   6.653   4.685  0.7556 -0.5783 -0.7882
16298TIP3   OH270384   3.586   3.640  11.557  0.1358  0.3928  0.4241
16298TIP3    H170385   3.664   3.664  11.607 -1.4422  0.8594  2.8322
16298TIP3    H270386   3.561   3.554  11.591 -0.5025  0.3206 -0.2030
16299TIP3   OH270387   1.801   6.364   1.229  0.4482 -0.8798 -0.0345
16299TIP3    H170388   1.858   6.368   1.152  0.6959  0.2458  0.1896
16299TIP3    H270389   1.822   6.444   1.278 -1.1235 -0.5919  0.1980
16300TIP3   OH270390   0.090   4.519   5.532  0.7791 -0.1225  0.1646
16300TIP3    H170391   0.020   4.455   5.515 -0.2973  0.9053  0.5699
16300TIP3    H270392   0.047   4.604   5.523  2.0584  0.5407  0.1613
16301TIP3   OH270393   4.739   0.622   4.790 -0.7737 -0.2607  0.0334
16301TIP3    H170394   4.675   0.583   4.850 -0.3481 -1.8142 -0.4953
16301TIP3    H270395   4.720   0.583   4.705  0.5551 -0.3654 -0.2349
16302TIP3   OH270396   6.390   0.602   2.532  0.1163 -0.0739 -0.6180
16302TIP3    H170397   6.483   0.616   2.549 -0.1464 -0.1916  1.1043
16302TIP3    H270398   6.386   0.569   2.442  1.8087 -0.8798 -0.4227
16303TIP3   OH270399   4.449   5.349  14.787 -0.0221 -0.0560  0.1935
16303TIP3    H170400   4.412   5.390  14.709 -0.4561 -0.5180  0.1481
16303TIP3    H270401   4.531   5.310  14.757 -1.1983 -2.1189 -0.5962
16304TIP3   OH270402   3.280   0.396  15.091  0.4406  0.5934 -0.7131
16304TIP3    H170403   3.375   0.397  15.103  0.2301 -0.7288  1.8607
16304TIP3    H270404   3.262   0.313  15.047  0.4066  0.3569 -0.2559
16305TIP3   OH270405   5.110   4.987  12.214  0.2799 -0.2949  0.4540
16305TIP3    H170406   5.114   5.082  12.204 -1.1202 -0.1498  0.9986
16305TIP3    H270407   5.185   4.954  12.165  0.3933  1.0477 -0.3225
16306TIP3   OH270408   3.231   1.168  15.471  0.0568 -0.2876  0.5972
16306TIP3    H170409   3.264   1.084  15.501  2.6570  0.8126  1.0412
16306TIP3    H270410   3.206   1.215  15.551  1.6859  0.5341  0.6618
16307TIP3   OH270411   0.497   4.298   0.530 -0.9140 -0.4648 -0.1695
16307TIP3    H170412   0.429   4.296   0.597 -0.2715 -1.0639  0.4858
16307TIP3    H270413   0.450   4.302   0.447 -1.7206  1.1531  0.3229
16308TIP3   OH270414   2.349   2.307  14.073 -0.1232  0.8028 -0.5205
16308TIP3    H170415   2.260   2.278  14.054  0.4011 -2.3619  1.1453
16308TIP3    H270416   2.351   2.318  14.168  1.0949  1.5903 -0.6060
16309TIP3   OH270417   3.841   0.443  12.964 -0.1319 -0.2894  0.5776
16309TIP3    H170418   3.770   0.416  12.906 -0.3936  0.5266  0.4964
16309TIP3    H270419   3.841   0.539  12.958 -1.0496 -0.0533  2.9119
16310TIP3   OH270420   0.229   4.427   1.898 -0.1405 -0.0249 -0.1558
16310TIP3    H170421   0.282   4.399   1.973  0.4133  0.1023 -0.5005
16310TIP3    H270422   0.156   4.475   1.938 -0.6840 -1.2573  0.3994
16311TIP3   OH270423   6.567   1.173   3.553  0.2817 -0.0700  0.0159
16311TIP3    H170424   6.595   1.263   3.567  1.9913 -0.1645 -2.2690
16311TIP3    H270425   6.476   1.171   3.582  0.3199  2.2787  0.4587
16312TIP3   OH270426   5.182   2.266   5.884  0.0894 -0.1201  0.2129
16312TIP3    H170427   5.132   2.319   5.947 -0.9562  0.9399 -1.4248
16312TIP3    H270428   5.122   2.254   5.810  0.8218 -2.4531 -0.0617
16313TIP3   OH270429   6.205   2.252  14.743  0.4668  0.2436 -0.2395
16313TIP3    H170430   6.136   2.186  14.749  1.5173 -0.8420  0.6110
16313TIP3    H270431   6.283   2.207  14.776  0.8013  2.5609  2.5215
16314TIP3   OH270432   2.834   4.245   0.852  0.2715  0.5525 -0.4237
16314TIP3    H170433   2.919   4.279   0.825  0.5946  0.5258  0.5294
16314TIP3    H270434   2.812   4.180   0.786  1.8417 -0.7601  0.2781
16315TIP3   OH270435   6.347   1.797   6.085  0.0928 -0.2592 -0.2250
16315TIP3    H170436   6.308   1.834   6.164  0.1366 -2.0599  0.6927
16315TIP3    H270437   6.441   1.799   6.102  0.0831 -0.9740 -0.0700
16316TIP3   OH270438   5.350   4.906   6.106 -0.3498 -0.7430 -0.5049
16316TIP3    H170439   5.417   4.974   6.098 -1.4295  0.4685  0.2359
16316TIP3    H270440   5.398   4.828   6.132  0.7309  0.2344  0.5621
16317TIP3   OH270441   0.824   0.552  15.202 -0.9161  0.0616  0.5837
16317TIP3    H170442   0.873   0.557  15.285 -0.1569  0.5064  0.1157
16317TIP3    H270443   0.746   0.606  15.217 -1.6641 -1.2218  1.5802
16318TIP3   OH270444   4.141   1.751   4.937  0.2203  0.4682 -0.3654
16318TIP3    H170445   4.181   1.681   4.989  1.6321  1.5471  0.0569
16318TIP3    H270446   4.196   1.758   4.859 -0.3156  0.6668 -0.7368
16319TIP3   OH270447   3.529   6.279   2.864 -0.1107  0.8032  0.3510
16319TIP3    H170448   3.454   6.335   2.843 -0.9913 -0.8374 -1.0788
16319TIP3    H270449   3.582   6.278   2.785 -0.4239 -0.8281  0.1277
16320TIP3   OH270450   3.578   4.297  12.714  0.0427 -0.1431 -0.1067
16320TIP3    H170451   3.665   4.293  12.752  0.0173 -1.7202 -0.1330
16320TIP3    H270452   3.541   4.380  12.745  1.1607  0.0496  0.7558
16321TIP3   OH270453   3.923   5.614  17.197 -0.3192  0.4248 -0.0863
16321TIP3    H170454   3.867   5.551  17.241 -0.6055  0.6580 -0.1168
16321TIP3    H270455   3.995   5.630  17.258 -0.3044  0.1542 -0.0336
16322TIP3   OH270456   0.800   5.256   0.786  0.1618  0.3964  0.4839
16322TIP3    H170457   0.803   5.165   0.815  1.6525  0.5946  1.0279
16322TIP3    H270458   0.741   5.255   0.710  2.3477 -1.5585 -1.3304
16323TIP3   OH270459   0.692   2.275   4.535  0.2594 -0.1888 -0.2054
16323TIP3    H170460   0.628   2.253   4.468  1.9605  1.9230 -2.6995
16323TIP3    H270461   0.774   2.287   4.487  1.6271  1.2302  2.2866
16324TIP3   OH270462   1.700   0.044  16.992 -0.1178  0.0631 -0.6371
16324TIP3    H170463   1.676  -0.022  16.927  2.7192 -0.3118 -1.4235
16324TIP3    H270464   1.711   0.124  16.941  1.1600 -0.0048 -0.4895
16325TIP3   OH270465   3.187   4.565  13.508  1.2306  0.5578 -0.0918
16325TIP3    H170466   3.113   4.608  13.550  0.7296 -1.1128  0.8356
16325TIP3    H270467   3.169   4.573  13.415  0.1935  0.7065  0.1030
16326TIP3   OH270468   1.588   3.945  15.723  0.0514  0.9944 -0.1856
16326TIP3    H170469   1.602   4.037  15.745 -2.2808  1.0263  1.3963
16326TIP3    H270470   1.634   3.897  15.791  3.3840  0.7830 -2.3092
16327TIP3   OH270471   4.489   1.911  13.485 -0.1205 -0.2092 -0.0404
16327TIP3    H170472   4.527   1.824  13.474 -1.5978 -0.9112  0.1933
16327TIP3    H270473   4.394   1.896  13.485 -0.3892  1.3301  0.5771
16328TIP3   OH270474   4.528   3.998   0.758  0.0950  0.1682 -0.0474
16328TIP3    H170475   4.439   4.025   0.780  0.6280  0.5440  1.8582
16328TIP3    H270476   4.571   4.079   0.731 -0.1092  0.0011 -0.8877
16329TIP3   OH270477   2.009   3.354  16.920 -0.6845 -0.6255 -0.6537
16329TIP3    H170478   1.943   3.308  16.971  0.8210 -0.5950  1.4391
16329TIP3    H270479   1.982   3.446  16.922  0.3984 -0.2809  1.9738
16330TIP3   OH270480   4.396   6.362   1.941 -0.1640 -0.3117  0.2887
16330TIP3    H170481   4.485   6.342   1.911 -1.2535 -1.3854 -2.6372
16330TIP3    H270482   4.403   6.449   1.980  2.2908 -0.7023  0.8751
16331TIP3   OH270483   6.351   4.347  14.721  0.1497  0.3684 -0.2137
16331TIP3    H170484   6.368   4.261  14.760 -2.6351 -0.3353 -0.3186
16331TIP3    H270485   6.346   4.407  14.795  3.0183  0.7374 -0.1921
16332TIP3   OH270486   2.301   2.189  13.399 -0.3888  0.1150  0.4827
16332TIP3    H170487   2.331   2.223  13.484 -0.5837 -1.0029  1.0252
16332TIP3    H270488   2.364   2.223  13.336  0.0507  0.5585  1.1480
16333TIP3   OH270489   3.894   1.472   4.369  0.6453 -0.0692 -0.4387
16333TIP3    H170490   3.917   1.459   4.461  0.2658  0.7198 -0.2224
16333TIP3    H270491   3.893   1.384   4.331 -1.1919 -0.6193  0.7927
16334TIP3   OH270492   5.485   2.582  13.670 -0.0414  0.6140 -0.1102
16334TIP3    H170493   5.563   2.547  13.629  1.2368  3.1202 -0.0403
16334TIP3    H270494   5.473   2.669  13.631 -1.3604  1.2844  1.5896
16335TIP3   OH270495   3.959   0.410   3.001 -0.2773 -0.6707  0.1829
16335TIP3    H170496   3.916   0.344   3.055 -1.4870 -1.3282 -1.5134
16335TIP3    H270497   4.004   0.360   2.933  1.6611  0.1143  0.8036
16336TIP3   OH270498   2.555   1.565   3.066 -0.1460 -0.2155 -0.3301
16336TIP3    H170499   2.502   1.485   3.076  0.6004 -0.4965  1.7600
16336TIP3    H270500   2.497   1.635   3.095 -0.1096 -0.2432 -0.1920
16337TIP3   OH270501   2.774   3.877   6.474  0.2531 -0.2076  0.5203
16337TIP3    H170502   2.802   3.827   6.551  0.2439  1.1746  1.4567
16337TIP3    H270503   2.733   3.812   6.417  0.5352 -1.3167  1.5399
16338TIP3   OH270504   0.266   0.135   1.248  0.6477  0.1658  0.1729
16338TIP3    H170505   0.332   0.183   1.298  2.5557 -1.1214 -0.9786
16338TIP3    H270506   0.317   0.079   1.189 -1.4370 -2.2577  0.5005
16339TIP3   OH270507   2.547   2.375   4.868  0.1588  0.3487 -0.1540
16339TIP3    H170508   2.621   2.382   4.807  1.3102 -1.0362  1.0037
16339TIP3    H270509   2.573   2.427   4.944 -1.7175  2.9258 -1.1424
16340TIP3   OH270510   0.914   6.809  12.568  0.2940 -0.6700 -0.2725
16340TIP3    H170511   0.824   6.777  12.568  0.1395 -0.3058 -1.6406
16340TIP3    H270512   0.919   6.865  12.490  1.7093 -0.7154 -0.2349
16341TIP3   OH270513   0.256   0.034   5.675 -0.2748  0.3623 -0.1112
16341TIP3    H170514   0.335   0.015   5.726 -1.3839  0.2671  1.6621
16341TIP3    H270515   0.288   0.060   5.589  1.6185 -2.6336 -0.4686
16342TIP3   OH270516   6.142   6.772  14.026  0.8017  0.0261  0.1488
16342TIP3    H170517   6.140   6.866  14.010 -0.3346  0.0648  0.4167
16342TIP3    H270518   6.203   6.761  14.099 -0.6824  0.8285  1.5766
16343TIP3   OH270519   5.124   2.516  15.244  0.6993  0.2890 -0.8965
16343TIP3    H170520   5.093   2.607  15.240 -2.2188 -0.5261  0.3955
16343TIP3    H270521   5.138   2.500  15.337 -3.6808 -1.8838 -0.3685
16344TIP3   OH270522   1.015   4.466   3.871  0.4829  0.6532 -0.5462
16344TIP3    H170523   0.977   4.387   3.832  0.0974  0.4396  0.2503
16344TIP3    H270524   0.944   4.531   3.867  0.1230  0.3580  0.6211
16345TIP3   OH270525   1.036   0.741   5.268 -0.3841 -0.2552 -0.5111
16345TIP3    H170526   1.079   0.810   5.216  1.5097 -1.6116 -0.8708
16345TIP3    H270527   1.036   0.665   5.210  0.2137 -1.3350  0.8540
16346TIP3   OH270528   4.010   5.318   0.636 -0.4472  0.2236  0.0176
16346TIP3    H170529   3.984   5.235   0.677 -0.6104 -0.0527 -0.6306
16346TIP3    H270530   3.955   5.384   0.679 -0.0250  0.0643  0.8341
16347TIP3   OH270531   2.191   6.178   1.121  0.1508  0.0948  0.6268
16347TIP3    H170532   2.152   6.255   1.079  2.1581  0.8140 -0.0596
16347TIP3    H270533   2.285   6.185   1.100  0.2447 -3.2116 -0.5100
16348TIP3   OH270534   6.820   5.304  13.840 -0.7221 -0.4396  0.5821
16348TIP3    H170535   6.799   5.300  13.747 -1.0065 -1.6382  0.6848
16348TIP3    H270536   6.794   5.393  13.866 -1.2534 -0.3079 -0.3366
16349TIP3   OH270537   5.966   2.884  12.325  0.0645  0.3228  0.4396
16349TIP3    H170538   6.011   2.890  12.409  0.4748 -1.4516  0.3869
16349TIP3    H270539   6.027   2.923  12.262 -0.0670  1.2786  0.8977
16350TIP3   OH270540   4.572   6.594   5.630  0.1004 -0.1760 -0.6050
16350TIP3    H170541   4.663   6.609   5.605 -0.0839 -0.0156 -1.2142
16350TIP3    H270542   4.546   6.516   5.579 -1.0921  1.7204 -3.1260
16351TIP3   OH270543   5.236   4.466  15.326  0.1477 -0.0372  0.0612
16351TIP3    H170544   5.156   4.457  15.377  0.4583 -1.5351  0.3471
16351TIP3    H270545   5.288   4.531  15.372 -0.3550 -0.0229  0.6126
16352TIP3   OH270546   6.047   2.667   5.065  0.4322  0.2861 -0.3576
16352TIP3    H170547   6.139   2.649   5.048  0.6316 -0.5481  1.3813
16352TIP3    H270548   6.045   2.755   5.101  0.2889  1.0689 -2.1720
16353TIP3   OH270549   6.771   3.801  15.450  0.0320 -0.5377  0.0273
16353TIP3    H170550   6.753   3.708  15.451  0.1314 -0.6854 -3.1011
16353TIP3    H270551   6.824   3.815  15.371  1.4160  1.9560  1.2538
16354TIP3   OH270552   3.253   4.021   3.550 -0.2892 -0.6243  0.2089
16354TIP3    H170553   3.224   4.052   3.635 -0.7124 -0.2004 -0.0841
16354TIP3    H270554   3.310   3.946   3.569 -1.3731 -1.3169  0.8095
16355TIP3   OH270555   5.647   1.117  12.174  0.2050 -0.0713  0.0248
16355TIP3    H170556   5.656   1.087  12.083 -0.1306 -1.3957  0.4058
16355TIP3    H270557   5.703   1.194  12.180  2.2832 -1.4692 -0.6373
16356TIP3   OH270558   5.165   5.904   3.631 -0.3209 -0.3338  0.1197
16356TIP3    H170559   5.173   5.821   3.583  0.3085 -1.3153  1.7987
16356TIP3    H270560   5.187   5.881   3.721 -0.4904  1.6156  0.7082
16357TIP3   OH270561   1.686   3.829   6.331  0.1334  0.1307 -0.5671
16357TIP3    H170562   1.720   3.915   6.305 -1.5047  0.1146 -3.1376
16357TIP3    H270563   1.699   3.826   6.426 -0.9081  3.7599 -0.1384
16358TIP3   OH270564   2.263   4.018  10.462 -0.2818 -0.1692  0.0687
16358TIP3    H170565   2.334   3.983  10.517 -0.1724 -0.9585 -0.5536
16358TIP3    H270566   2.295   4.103  10.433 -0.3372  0.2544  1.2176
16359TIP3   OH270567   0.557   1.140   2.623 -0.0561  0.3705 -0.2549
16359TIP3    H170568   0.644   1.106   2.604 -0.7768 -1.0737 -1.0993
16359TIP3    H270569   0.522   1.164   2.537 -1.2300 -0.9252 -0.1566
16360TIP3   OH270570   5.211   4.052  12.849  0.4841  0.5884 -0.0439
16360TIP3    H170571   5.215   3.978  12.788 -0.5051  0.9909 -0.6324
16360TIP3    H270572   5.168   4.017  12.927 -0.5574  0.6669 -0.5585
16361TIP3   OH270573   3.797   3.610  14.865  0.0149  0.3052  0.0745
16361TIP3    H170574   3.780   3.608  14.959 -0.7786  0.9992 -0.0472
16361TIP3    H270575   3.713   3.635  14.825  0.9258  2.4762 -0.6456
16362TIP3   OH270576   2.939   0.034  13.023  0.0979  0.3650  0.5275
16362TIP3    H170577   2.937  -0.061  13.033  2.0498  0.2637  0.2530
16362TIP3    H270578   2.975   0.066  13.105  1.1291  0.7245 -0.0543
16363TIP3   OH270579   6.245   1.833  12.043 -0.2948 -0.5680  0.2044
16363TIP3    H170580   6.231   1.746  12.081  0.1563 -0.5218  0.4850
16363TIP3    H270581   6.193   1.833  11.963 -1.3501 -0.6356  0.8638
16364TIP3   OH270582   4.708   4.297   1.767  0.3317  0.1364  0.4369
16364TIP3    H170583   4.618   4.311   1.798  1.3641  3.3877  2.4599
16364TIP3    H270584   4.731   4.210   1.800 -1.8364 -0.5047  0.4245
16365TIP3   OH270585   3.485   2.487  17.069 -0.1509  0.1556 -0.4197
16365TIP3    H170586   3.487   2.582  17.066  0.2635  0.1252 -2.3288
16365TIP3    H270587   3.559   2.464  17.126  0.7031  0.9663 -1.1604
16366TIP3   OH270588   1.082   3.408  13.984  0.1770 -0.2998 -0.0684
16366TIP3    H170589   1.087   3.493  13.940  0.5803  1.3770  2.9417
16366TIP3    H270590   0.991   3.401  14.013  0.5594  0.0021  1.2572
16367TIP3   OH270591   4.827   5.456  11.484 -0.2241 -0.1050  0.3057
16367TIP3    H170592   4.838   5.443  11.390  0.3308  0.3433  0.3026
16367TIP3    H270593   4.869   5.541  11.502 -0.6152 -0.0269  0.9007
16368TIP3   OH270594   2.725   2.090  12.953 -0.7893  0.4699  0.1496
16368TIP3    H170595   2.705   2.176  12.988 -1.8504 -0.2037  1.2592
16368TIP3    H270596   2.688   2.091  12.864 -0.4387  1.2812  0.0103
16369TIP3   OH270597   6.058   2.262   3.825  0.2631  0.5418 -0.4735
16369TIP3    H170598   6.082   2.354   3.812  1.0375  0.4474  0.2030
16369TIP3    H270599   6.140   2.218   3.846 -0.0962 -0.3211 -0.8266
16370TIP3   OH270600   0.130   3.009   3.746  0.4049  0.5337 -0.1648
16370TIP3    H170601   0.167   2.976   3.828  1.3886  0.4118 -0.6418
16370TIP3    H270602   0.078   3.085   3.773 -2.2436 -1.5576  0.9977
16371TIP3   OH270603   4.391   1.307   1.864 -0.0410  0.0770  0.0520
16371TIP3    H170604   4.394   1.232   1.923 -1.5373  1.2513  1.7332
16371TIP3    H270605   4.311   1.354   1.888  0.0830  1.4492 -1.9139
16372TIP3   OH270606   0.717   5.666   1.938  0.0168  1.0118 -0.1822
16372TIP3    H170607   0.687   5.618   2.014  3.0113  0.2510  0.6528
16372TIP3    H270608   0.736   5.599   1.872 -0.2950  1.4640 -0.7458
16373TIP3   OH270609   4.915   2.116   4.792 -0.5614  0.0850 -0.4524
16373TIP3    H170610   4.959   2.201   4.785  1.3874 -0.9434 -1.9024
16373TIP3    H270611   4.825   2.137   4.816  0.2615  2.4362  0.9090
16374TIP3   OH270612   5.396   0.615  12.025  0.1214  0.6994 -0.1377
16374TIP3    H170613   5.371   0.532  11.985  0.8050  1.1676 -1.6180
16374TIP3    H270614   5.414   0.594  12.116 -0.7323 -0.5720 -0.2397
16375TIP3   OH270615   3.790   2.731  11.545  0.7889 -0.4795  0.0565
16375TIP3    H170616   3.827   2.819  11.546  1.9379 -0.9378  1.0024
16375TIP3    H270617   3.790   2.706  11.452  0.5131  0.4689 -0.2142
16376TIP3   OH270618   3.086   0.586   0.423  0.2835 -0.5979  0.1299
16376TIP3    H170619   3.046   0.516   0.371  0.7038 -0.3920 -0.4720
16376TIP3    H270620   3.173   0.553   0.444  0.2636 -0.5051  0.3568
16377TIP3   OH270621   0.752   1.057   6.292  0.4427  0.7003  0.5394
16377TIP3    H170622   0.719   0.998   6.359  0.1704 -0.8673 -0.9149
16377TIP3    H270623   0.674   1.099   6.256  0.3149 -0.4854 -0.6086
16378TIP3   OH270624   4.217   4.809   0.438  0.0472 -0.1701 -0.4026
16378TIP3    H170625   4.249   4.805   0.528 -2.4025  2.1043  0.6956
16378TIP3    H270626   4.294   4.834   0.387  1.2473 -0.3719  1.2107
16379TIP3   OH270627   5.893   4.248  15.358 -0.0183  0.0787 -0.2368
16379TIP3    H170628   5.930   4.174  15.311  0.8188  0.9686 -1.0228
16379TIP3    H270629   5.798   4.240  15.345  0.0094 -1.1414  0.1577
16380TIP3   OH270630   5.650   6.273   2.830 -0.0320 -0.2561 -0.2911
16380TIP3    H170631   5.696   6.231   2.757 -0.1367 -0.0757 -0.4622
16380TIP3    H270632   5.613   6.353   2.792 -1.3943 -0.9194 -0.4292
16381TIP3   OH270633   4.148   0.065   4.424 -0.3501 -0.0107 -1.0699
16381TIP3    H170634   4.142   0.020   4.508 -1.7620  1.5706 -0.2739
16381TIP3    H270635   4.241   0.061   4.401 -0.0863 -1.2491  0.1089
16382TIP3   OH270636   5.595   6.189  12.749 -0.8124  0.1277  0.3843
16382TIP3    H170637   5.585   6.253  12.678  2.0471  1.7944  1.3381
16382TIP3    H270638   5.689   6.185  12.765 -1.2945 -0.4169  3.8766
16383TIP3   OH270639   0.925   1.685   1.543  0.5758 -0.3253 -0.1409
16383TIP3    H170640   0.856   1.670   1.479 -1.1496  2.4408  0.9407
16383TIP3    H270641   0.908   1.621   1.612  0.2670 -0.8958 -0.7313
16384TIP3   OH270642   3.093   0.755   2.751 -0.6256 -0.0898 -0.6660
16384TIP3    H170643   3.102   0.838   2.705 -0.1027 -0.4524 -1.2247
16384TIP3    H270644   3.179   0.738   2.788 -0.9618  0.0459  0.2020
16385TIP3   OH270645   3.464   0.284  14.805  0.2516  0.2659  0.0789
16385TIP3    H170646   3.494   0.245  14.723  0.2433 -0.9990  0.6411
16385TIP3    H270647   3.495   0.223  14.872 -0.7872  0.6409  0.9219
16386TIP3   OH270648   6.349   4.307   4.482  0.2275  0.0015  0.0935
16386TIP3    H170649   6.364   4.393   4.520 -0.8462  0.5977 -0.7882
16386TIP3    H270650   6.431   4.285   4.438  0.5682  0.4915  0.4771
16387TIP3   OH270651   0.045   6.548   4.720  0.0898  0.4186 -0.4482
16387TIP3    H170652  -0.018   6.619   4.735 -0.6595 -0.3484  0.1357
16387TIP3    H270653   0.098   6.579   4.647 -0.4840  1.4085 -0.4714
16388TIP3   OH270654   3.473   6.089   0.048 -0.7636 -0.4082  0.2446
16388TIP3    H170655   3.396   6.060  -0.000 -0.5451 -0.8464  0.1544
16388TIP3    H270656   3.535   6.016   0.042  0.2675  0.5165 -1.0190
16389TIP3   OH270657   6.288   5.459   1.075 -0.6824 -0.2083 -0.2524
16389TIP3    H170658   6.354   5.416   1.023 -0.4460  0.8460 -0.8565
16389TIP3    H270659   6.243   5.518   1.014 -0.1780  1.2971  0.7724
16390TIP3   OH270660   5.970   2.786  15.480  0.1035 -1.0973 -0.6659
16390TIP3    H170661   5.885   2.759  15.517  0.0477 -0.1813 -0.1004
16390TIP3    H270662   5.963   2.764  15.387 -1.1958 -0.0136 -0.8524
16391TIP3   OH270663   0.938   5.393   2.842  0.3907 -0.2513  0.1256
16391TIP3    H170664   1.022   5.368   2.804  0.0503 -0.3776 -0.5522
16391TIP3    H270665   0.926   5.332   2.915  0.6837 -0.5181 -0.0463
16392TIP3   OH270666   4.712   1.409  13.019  0.3598  0.3084 -0.2132
16392TIP3    H170667   4.787   1.396  12.961  0.3590  1.0387 -0.3898
16392TIP3    H270668   4.674   1.492  12.990 -1.8042 -1.0667 -1.5419
16393TIP3   OH270669   3.944   4.837  16.630 -0.3643 -0.2944  0.2360
16393TIP3    H170670   3.936   4.932  16.634 -0.2816 -0.2533 -0.5140
16393TIP3    H270671   3.953   4.817  16.537 -0.2036 -1.0226  0.3988
16394TIP3   OH270672   2.762   2.889  11.538  0.0681 -0.4762 -0.1337
16394TIP3    H170673   2.794   2.809  11.497  0.6316 -1.6033  2.3110
16394TIP3    H270674   2.712   2.859  11.613  2.5353  1.3934  2.4878
16395TIP3   OH270675   2.681   5.117  11.706 -0.3004 -0.2005  0.5745
16395TIP3    H170676   2.663   5.164  11.787 -0.1834 -1.3602  1.2979
16395TIP3    H270677   2.707   5.185  11.644 -2.3297  0.9615  0.9092
16396TIP3   OH270678   5.735   3.152  11.368  0.0219  0.3006 -0.1308
16396TIP3    H170679   5.737   3.204  11.287  2.4156  0.6064  0.0455
16396TIP3    H270680   5.748   3.217  11.437 -0.6759 -0.1230  0.4046
16397TIP3   OH270681   4.965   4.135  15.152 -0.5967  0.7723  0.3621
16397TIP3    H170682   5.027   4.104  15.218  1.4209  0.1128 -1.7043
16397TIP3    H270683   5.011   4.204  15.106 -2.6130  2.4284  0.6689
16398TIP3   OH270684   0.051   3.839  14.868  0.6995  0.3037 -0.6218
16398TIP3    H170685  -0.012   3.769  14.886  1.2271  0.1126  0.6229
16398TIP3    H270686   0.061   3.883  14.952  1.8130  0.6694 -0.9324
16399TIP3   OH270687   5.750   1.922   5.453  0.1205 -0.4200 -0.0448
16399TIP3    H170688   5.670   1.905   5.404 -0.6250 -1.2184  1.3886
16399TIP3    H270689   5.728   1.995   5.512  0.8247  0.1556 -0.4803
16400TIP3   OH270690   4.024   2.600  12.872  0.1238  0.1171  0.0959
16400TIP3    H170691   4.072   2.577  12.951  0.9670  1.8332  0.1390
16400TIP3    H270692   4.088   2.590  12.801 -0.0672  0.3575 -0.1139
16401TIP3   OH270693   0.818   4.181  15.085  0.9873 -0.0805 -0.9524
16401TIP3    H170694   0.744   4.159  15.028 -0.8373  0.8073  0.9359
16401TIP3    H270695   0.836   4.273  15.067  1.5524 -0.2522 -1.2946
16402TIP3   OH270696   1.579   1.351   1.243  0.7212 -0.0596  0.2225
16402TIP3    H170697   1.563   1.373   1.152  0.3028 -2.0559 -0.2318
16402TIP3    H270698   1.491   1.339   1.280  0.9149 -1.1940  0.3476
16403TIP3   OH270699   6.606   5.297   2.622 -0.3715 -0.2003  0.3855
16403TIP3    H170700   6.690   5.297   2.668 -0.3570 -0.8561  0.3632
16403TIP3    H270701   6.626   5.260   2.536 -0.2428  1.6986 -0.4643
16404TIP3   OH270702   4.304   3.342   4.820 -0.1992  0.5755  0.1570
16404TIP3    H170703   4.356   3.288   4.762  0.9918  1.6787  0.1392
16404TIP3    H270704   4.245   3.281   4.865  1.1055 -0.7198  0.1640
16405TIP3   OH270705   5.582   4.155   1.439  0.9105  0.2371  0.0525
16405TIP3    H170706   5.489   4.143   1.455  0.7665 -1.2424 -1.5405
16405TIP3    H270707   5.625   4.095   1.500  0.8467  0.9712  0.8358
16406TIP3   OH270708   5.628   4.548   2.953 -0.2316 -0.0708 -0.4415
16406TIP3    H170709   5.570   4.549   3.030  0.2740 -0.9230 -0.0315
16406TIP3    H270710   5.575   4.510   2.883 -0.3002 -0.4868 -0.1692
16407TIP3   OH270711   6.387   6.327   0.533  0.1019 -0.3746 -0.3625
16407TIP3    H170712   6.438   6.385   0.477 -0.2087  0.2640  0.0136
16407TIP3    H270713   6.422   6.342   0.621 -2.0859  1.6356  0.2582
16408TIP3   OH270714   0.179   0.842   2.555 -0.4062 -0.0235 -0.9961
16408TIP3    H170715   0.213   0.767   2.603 -0.3463  1.1552  0.9561
16408TIP3    H270716   0.209   0.830   2.465  2.0551 -0.8978 -0.1498
16409TIP3   OH270717   0.447   2.873   2.138  0.3922 -0.1964 -0.6107
16409TIP3    H170718   0.422   2.808   2.204  1.6041 -0.5022 -0.4261
16409TIP3    H270719   0.381   2.865   2.069  0.2211 -1.2500 -0.3367
16410TIP3   OH270720   2.341   3.081   5.314 -0.0125  0.3790  0.5696
16410TIP3    H170721   2.434   3.084   5.290  0.3312  0.2914  1.7876
16410TIP3    H270722   2.301   3.152   5.264  0.1457 -1.2877 -2.1088
16411TIP3   OH270723   6.826   6.083   5.254  0.5128 -0.2064  0.4303
16411TIP3    H170724   6.824   6.136   5.175  0.6756 -1.1716 -0.2417
16411TIP3    H270725   6.759   6.122   5.311  1.5156  1.4924  0.5011
16412TIP3   OH270726   6.360   1.018   2.287  0.5340 -0.0780  0.0127
16412TIP3    H170727   6.337   0.963   2.213  0.0364 -0.3594  0.3700
16412TIP3    H270728   6.328   1.105   2.264 -1.2801 -0.5385  0.6635
16413TIP3   OH270729   3.739   6.514   1.030 -0.5468  0.0980 -0.2718
16413TIP3    H170730   3.709   6.449   1.093  2.8776  0.8651  2.5102
16413TIP3    H270731   3.726   6.598   1.075 -0.6020  0.9403 -1.8134
16414TIP3   OH270732   6.200   5.478   0.450 -0.5659  0.1105  0.0719
16414TIP3    H170733   6.109   5.460   0.472 -0.4148  0.6315  1.1709
16414TIP3    H270734   6.198   5.564   0.408 -0.7646 -0.5777 -1.3879
16415TIP3   OH270735   4.631   5.059   2.851  0.3770 -0.3318 -0.9456
16415TIP3    H170736   4.695   5.005   2.896 -2.0324 -1.4785  1.3741
16415TIP3    H270737   4.630   5.025   2.761  1.8784 -1.2913 -0.6218
16416TIP3   OH270738   0.121   6.216  13.729  0.1207  0.1871 -0.0635
16416TIP3    H170739   0.114   6.300  13.684  0.3591  0.7521  0.9270
16416TIP3    H270740   0.076   6.230  13.812  1.0355 -0.3577  0.5356
16417TIP3   OH270741   2.182   2.418   5.553  0.0117 -0.2624 -0.5855
16417TIP3    H170742   2.185   2.385   5.642 -1.3905 -2.3398 -1.2377
16417TIP3    H270743   2.181   2.339   5.498 -2.0139  0.8641 -2.3123
16418TIP3   OH270744   6.802   0.905  17.121 -0.4844  0.5787 -0.5985
16418TIP3    H170745   6.845   0.824  17.148 -0.1630  0.7954 -0.4682
16418TIP3    H270746   6.799   0.959  17.200 -1.4419  0.3733 -0.4720
16419TIP3   OH270747   6.788   2.247  11.824  0.0613  0.1244 -0.4757
16419TIP3    H170748   6.818   2.222  11.736  0.1148 -0.9907 -0.1644
16419TIP3    H270749   6.836   2.327  11.845  0.2782  0.2227 -1.3351
16420TIP3   OH270750   6.821   1.229   4.775 -0.0496 -0.3927 -0.2848
16420TIP3    H170751   6.727   1.246   4.773  0.1589  0.9323 -0.0250
16420TIP3    H270752   6.847   1.251   4.865  0.5625 -0.3675 -0.4614
16421TIP3   OH270753   5.149   4.410   6.753 -0.7704 -0.4635  0.2059
16421TIP3    H170754   5.055   4.426   6.747 -0.4815  1.0376 -1.4009
16421TIP3    H270755   5.171   4.367   6.671  0.0876  0.1984  0.0713
16422TIP3   OH270756   0.662   5.316  13.191 -0.0541  0.0725 -0.3734
16422TIP3    H170757   0.614   5.322  13.273  0.7679 -0.9568  0.2066
16422TIP3    H270758   0.746   5.277  13.214  0.8275  1.2333 -1.4674
16423TIP3   OH270759   1.348   0.005  12.664 -0.2472  0.3075  0.5718
16423TIP3    H170760   1.433  -0.039  12.670  0.1997  0.6670 -1.9012
16423TIP3    H270761   1.365   0.082  12.609 -2.2983  0.0149 -0.5690
16424TIP3   OH270762   1.693   3.832  14.055 -0.4107 -0.2863  0.2634
16424TIP3    H170763   1.689   3.740  14.030 -1.3690 -0.2559  0.2867
16424TIP3    H270764   1.640   3.838  14.134  0.3466  0.1342  0.7601
16425TIP3   OH270765   3.947   0.307  14.699 -0.6486 -0.0707  0.3576
16425TIP3    H170766   3.935   0.327  14.791 -0.8980 -0.1316  0.3400
16425TIP3    H270767   4.041   0.292  14.689  0.2092  4.3097 -0.2465
16426TIP3   OH270768   0.807   4.936  16.767  0.1483  0.2610 -0.1362
16426TIP3    H170769   0.847   4.856  16.802  1.1018 -0.3769 -2.5091
16426TIP3    H270770   0.716   4.912  16.749  0.1495  0.0333  0.1555
16427TIP3   OH270771   4.442   2.023  16.766 -0.0551  0.4288  0.0238
16427TIP3    H170772   4.386   2.044  16.842  1.5181 -0.0129  1.3566
16427TIP3    H270773   4.410   1.937  16.737 -1.4622  1.1301 -0.6181
16428TIP3   OH270774   5.644   0.245   2.979  0.4206 -0.0622 -0.2048
16428TIP3    H170775   5.617   0.313   2.917  1.4108 -0.0688 -0.6622
16428TIP3    H270776   5.678   0.174   2.924 -2.2632 -1.7609  0.1386
16429TIP3   OH270777   3.956   2.592   5.362 -0.1013 -0.2376  0.7212
16429TIP3    H170778   3.992   2.509   5.332 -0.9696 -0.1027 -0.7915
16429TIP3    H270779   4.007   2.658   5.316  1.1143  0.1433  2.5150
16430TIP3   OH270780   5.358   5.361  12.382 -0.4396 -0.4697  0.3122
16430TIP3    H170781   5.382   5.279  12.339  0.3164 -0.5047  0.7901
16430TIP3    H270782   5.402   5.429  12.332  0.4592 -0.5116  1.0149
16431TIP3   OH270783   0.549   6.026  17.111 -0.4486 -0.0327 -0.2946
16431TIP3    H170784   0.579   6.076  17.035 -2.4218  0.5502 -0.7699
16431TIP3    H270785   0.600   5.945  17.109  0.9854  0.8472 -1.0188
16432TIP3   OH270786   4.629   0.448  14.851  0.2853 -0.1778 -0.6536
16432TIP3    H170787   4.593   0.362  14.873 -1.3240  0.5316 -0.3841
16432TIP3    H270788   4.718   0.429  14.822  0.8750 -1.6891  1.7977
16433TIP3   OH270789   1.588   1.371   0.155  0.0610 -0.4521  0.5498
16433TIP3    H170790   1.528   1.437   0.189  0.0343 -0.9179  1.4283
16433TIP3    H270791   1.641   1.346   0.230  0.0142 -1.5017  0.2425
16434TIP3   OH270792   0.508   2.301  13.113 -0.0647  0.1209  0.4296
16434TIP3    H170793   0.596   2.339  13.111  0.5156 -1.1450  0.7140
16434TIP3    H270794   0.510   2.239  13.186 -1.4783  0.6960  1.0039
16435TIP3   OH270795   1.207   1.991  14.180  0.8379 -0.4022  0.1927
16435TIP3    H170796   1.159   2.064  14.142  1.2876 -0.7040 -1.0065
16435TIP3    H270797   1.267   2.031  14.244  2.5007  0.5502 -1.8434
16436TIP3   OH270798   0.416   5.522   0.404 -0.2751  0.0344  0.1050
16436TIP3    H170799   0.405   5.591   0.468 -2.8231  2.1324 -2.3370
16436TIP3    H270800   0.479   5.558   0.341  1.0544 -1.3783  0.5641
16437TIP3   OH270801   2.430   3.778   4.679  0.0595 -0.3747  0.5177
16437TIP3    H170802   2.482   3.844   4.633  0.6092 -1.2257 -0.0923
16437TIP3    H270803   2.492   3.709   4.701 -0.8347 -1.4921 -0.3768
16438TIP3   OH270804   4.812   4.450   0.026 -0.6195  0.3583 -0.1215
16438TIP3    H170805   4.860   4.451   0.109  0.3602 -2.5136 -0.5599
16438TIP3    H270806   4.772   4.364   0.022 -0.3630  0.2828 -2.7710
16439TIP3   OH270807   0.075   3.134   4.641 -0.6136 -0.0385 -0.4106
16439TIP3    H170808   0.095   3.226   4.622 -1.4406 -0.1806 -2.2097
16439TIP3    H270809   0.012   3.137   4.713 -1.7836  0.8988 -1.4388
16440TIP3   OH270810   3.070   5.760   1.277  0.0680 -0.1606 -0.2838
16440TIP3    H170811   3.000   5.802   1.326  0.9925  0.3413  0.6579
16440TIP3    H270812   3.026   5.696   1.222 -1.1459  0.3251  0.0805
16441TIP3   OH270813   6.141   4.785  15.363 -0.4213  0.0663 -0.0898
16441TIP3    H170814   6.085   4.859  15.342 -0.6902 -0.3866 -1.0042
16441TIP3    H270815   6.210   4.788  15.296  0.0169 -0.0411  0.3522
16442TIP3   OH270816   1.207   6.420   1.130  0.2815 -0.0296  0.0116
16442TIP3    H170817   1.266   6.495   1.134  0.7765 -0.4545  0.9193
16442TIP3    H270818   1.122   6.457   1.105  0.5378  0.8228  0.3968
16443TIP3   OH270819   6.275   1.246  13.121  0.2380 -0.1238  0.0189
16443TIP3    H170820   6.255   1.281  13.035 -0.2125 -0.7730 -0.1514
16443TIP3    H270821   6.306   1.321  13.172 -1.6021  0.7215 -0.0367
16444TIP3   OH270822   6.639   1.717   5.666  0.1481  0.1935  0.5153
16444TIP3    H170823   6.560   1.745   5.712 -3.0541 -2.8891 -2.4598
16444TIP3    H270824   6.646   1.623   5.683 -0.0403 -0.6920 -3.2833
16445TIP3   OH270825   3.243   1.972   0.777 -0.1787  0.3370 -0.6018
16445TIP3    H170826   3.267   2.048   0.829 -1.4318 -0.9734  2.0581
16445TIP3    H270827   3.155   1.949   0.807  0.5223 -2.7265 -0.5561
16446TIP3   OH270828   6.656   3.702  11.063 -0.9824  0.1587 -0.2679
16446TIP3    H170829   6.603   3.653  11.001  1.1882 -0.9265 -1.3916
16446TIP3    H270830   6.680   3.783  11.017 -0.6441  0.0648 -0.2631
16447TIP3   OH270831   4.220   5.980  11.483  0.6858  0.7351 -0.5621
16447TIP3    H170832   4.140   5.972  11.535  0.7595  3.9596  0.2763
16447TIP3    H270833   4.189   5.999  11.394  0.4700  2.1052 -0.2134
16448TIP3   OH270834   6.725   4.852  14.213  0.6441 -0.2070  0.4594
16448TIP3    H170835   6.785   4.860  14.139 -1.3229  0.0147 -1.2075
16448TIP3    H270836   6.690   4.763  14.205 -1.6308  0.7121 -0.6193
16449TIP3   OH270837   2.309   1.677   1.701  0.6604 -0.3213 -0.4929
16449TIP3    H170838   2.249   1.712   1.635  1.3687 -0.4660 -1.2395
16449TIP3    H270839   2.285   1.585   1.709 -0.8977  0.1711  1.1300
16450TIP3   OH270840   5.264   1.015   0.428  0.2427 -0.4582  0.2957
16450TIP3    H170841   5.258   1.054   0.515  1.3757  2.0404 -0.6738
16450TIP3    H270842   5.357   1.015   0.407 -0.0997 -0.0095 -1.3451
16451TIP3   OH270843   6.414   5.959   4.857 -0.9629  0.2834 -0.1201
16451TIP3    H170844   6.331   6.001   4.831 -0.0986  2.2662  0.1518
16451TIP3    H270845   6.441   6.006   4.936 -0.2277 -1.2491  0.5886
16452TIP3   OH270846   1.263   3.758  16.875 -0.4237 -0.0635 -0.5337
16452TIP3    H170847   1.271   3.775  16.969  1.4718  2.8886 -1.1148
16452TIP3    H270848   1.338   3.703  16.854 -0.5546 -0.2867 -0.4226
16453TIP3   OH270849   5.173   2.741   6.012 -0.7384 -0.2164  0.6303
16453TIP3    H170850   5.175   2.645   6.016  0.0520 -0.1775  2.7085
16453TIP3    H270851   5.152   2.768   6.101  1.9612  1.5416  0.8715
16454TIP3   OH270852   0.353   4.097   2.831  0.0995 -0.1873 -0.0927
16454TIP3    H170853   0.273   4.148   2.847  0.1971  0.0540 -0.3505
16454TIP3    H270854   0.375   4.116   2.740  0.6848  0.0798  0.0993
16455TIP3   OH270855   1.758   0.202  13.692  0.8011  0.6252  0.1766
16455TIP3    H170856   1.684   0.263  13.689 -1.3408 -1.7868  0.4044
16455TIP3    H270857   1.765   0.178  13.784  1.5346  0.4155  0.0687
16456TIP3   OH270858   6.100   2.775  17.157 -0.4490 -0.1400 -0.2293
16456TIP3    H170859   6.056   2.808  17.079 -1.9022 -0.4660  0.4256
16456TIP3    H270860   6.046   2.805  17.230 -0.4971 -1.8928  0.5050
16457TIP3   OH270861   0.307   1.886  10.891  0.0244  0.1114  0.4994
16457TIP3    H170862   0.335   1.814  10.833  0.2617  0.4743  0.1603
16457TIP3    H270863   0.389   1.917  10.931  0.5036  2.5645 -2.0672
16458TIP3   OH270864   6.011   0.259  12.380  0.6805  0.0858 -0.2389
16458TIP3    H170865   5.956   0.289  12.452  1.2739 -1.4905  0.9549
16458TIP3    H270866   5.969   0.292  12.301 -1.0586  0.2803  0.7239
16459TIP3   OH270867   2.987   5.395   5.945  0.1786 -0.0914 -0.0765
16459TIP3    H170868   2.995   5.412   5.851  0.2859  0.8276  0.0895
16459TIP3    H270869   2.961   5.479   5.982 -0.1956 -0.5282  0.6800
16460TIP3   OH270870   5.992   4.745   2.668 -0.3215  0.0709 -0.5145
16460TIP3    H170871   6.055   4.677   2.690 -1.4777 -1.1801 -0.9051
16460TIP3    H270872   5.934   4.750   2.743  0.9168  2.1398  0.4087
16461TIP3   OH270873   5.371   5.902   5.880 -0.2598 -0.7560  0.1714
16461TIP3    H170874   5.419   5.819   5.880  0.3451 -0.4151 -0.4780
16461TIP3    H270875   5.320   5.900   5.961 -0.4821 -1.8933  0.0119
16462TIP3   OH270876   1.008   5.843   0.107 -0.0088  0.2753  0.4859
16462TIP3    H170877   1.092   5.855   0.063  0.0335 -1.7583 -0.0993
16462TIP3    H270878   0.975   5.760   0.072 -2.7805  1.5316 -0.1493
16463TIP3   OH270879   2.777   6.571  14.746 -0.1540 -0.1339 -0.3521
16463TIP3    H170880   2.684   6.550  14.750 -0.2136  0.1939  0.2125
16463TIP3    H270881   2.781   6.665  14.766  0.2468 -0.0149 -0.9736
16464TIP3   OH270882   0.638   1.598   1.390 -0.1787  0.2207 -0.1766
16464TIP3    H170883   0.579   1.563   1.323  0.5958 -0.0430 -0.7427
16464TIP3    H270884   0.660   1.522   1.444  0.2038  0.1637 -0.4067
16465TIP3   OH270885   4.799   6.154   5.261 -0.2880 -0.3965 -0.5688
16465TIP3    H170886   4.803   6.245   5.293 -1.2346 -0.6733  0.4231
16465TIP3    H270887   4.763   6.162   5.173  1.2962  0.3093 -1.1889
16466TIP3   OH270888   5.179   5.944  11.463  0.2738 -0.6905  0.3937
16466TIP3    H170889   5.209   5.873  11.406 -2.3642 -0.0685 -2.0291
16466TIP3    H270890   5.103   5.909  11.508 -0.2888  0.1792  0.1461
16467TIP3   OH270891   6.115   4.075  15.523  0.0389  0.1534  0.2253
16467TIP3    H170892   6.068   4.133  15.584  0.4574  1.5458 -0.7148
16467TIP3    H270893   6.047   4.043  15.465 -0.0947  0.3116  0.2898
16468TIP3   OH270894   4.470   1.910   4.961  0.7717  0.4213  0.2785
16468TIP3    H170895   4.466   1.920   5.056 -0.0679  0.0712  0.2843
16468TIP3    H270896   4.498   1.819   4.947 -1.0610 -0.1673  0.2016
16469TIP3   OH270897   1.781   6.792   3.597 -0.1024 -0.0037  0.1159
16469TIP3    H170898   1.823   6.789   3.683  0.2028  0.3567 -0.0190
16469TIP3    H270899   1.716   6.723   3.601 -1.5053  1.3014  1.3678
16470TIP3   OH270900   2.376   3.798  16.934 -0.4960 -0.3398  0.1325
16470TIP3    H170901   2.318   3.841  16.997 -2.4635 -1.6387 -0.7155
16470TIP3    H270902   2.342   3.709  16.926 -0.1942 -0.2984 -2.6038
16471TIP3   OH270903   5.050   2.317   1.563 -0.3160  0.2566 -0.1279
16471TIP3    H170904   5.069   2.224   1.573 -0.8654  0.0999 -0.4774
16471TIP3    H270905   5.048   2.331   1.468  0.5441  0.7958 -0.0773
16472TIP3   OH270906   3.561   2.676   3.127 -0.2960 -0.6203  0.3434
16472TIP3    H170907   3.645   2.683   3.081 -0.8652 -1.1371 -0.8485
16472TIP3    H270908   3.542   2.765   3.156  0.3764 -0.3855  0.1017
16473TIP3   OH270909   4.006   1.155  12.379  0.3061 -0.3929 -0.3220
16473TIP3    H170910   4.023   1.223  12.444 -1.5653  0.8766 -1.0597
16473TIP3    H270911   4.049   1.077  12.414 -0.0876  0.3855  2.1350
16474TIP3   OH270912   5.114   6.129   2.128 -0.4844  0.6899 -0.4602
16474TIP3    H170913   5.186   6.095   2.182 -0.1899  0.4648 -0.9860
16474TIP3    H270914   5.070   6.192   2.184  0.2640  1.0030 -0.2082
16475TIP3   OH270915   4.843   5.959   4.959  0.1740 -0.0565  0.6098
16475TIP3    H170916   4.800   5.874   4.962  0.9286 -0.4303  1.0879
16475TIP3    H270917   4.837   5.986   4.867  0.5612 -0.9510  0.3146
16476TIP3   OH270918   6.802   5.882  12.658  0.2244  0.0575 -0.0130
16476TIP3    H170919   6.755   5.819  12.712  0.0994 -0.0013 -0.1897
16476TIP3    H270920   6.895   5.861  12.673  0.1808 -1.1658 -1.2055
16477TIP3   OH270921   0.780   4.655  12.028 -0.3846  0.4460  0.3258
16477TIP3    H170922   0.703   4.627  12.078 -2.0819  0.2068 -2.2704
16477TIP3    H270923   0.841   4.582  12.035 -1.4982 -0.5165  0.2022
16478TIP3   OH270924   4.471   1.163  11.813  0.1972 -0.1826  0.3959
16478TIP3    H170925   4.457   1.258  11.807 -2.2038 -0.5105 -0.3089
16478TIP3    H270926   4.423   1.127  11.738  3.8538 -1.8098 -1.4709
16479TIP3   OH270927   4.003   6.253   4.418 -0.2005  0.0233 -0.0161
16479TIP3    H170928   4.053   6.197   4.359 -0.1822  1.6188 -1.6124
16479TIP3    H270929   4.036   6.232   4.505  1.2833 -0.9226 -0.7598
16480TIP3   OH270930   0.118   4.855   1.688 -0.3044  0.7630 -0.4221
16480TIP3    H170931   0.181   4.862   1.759 -0.5612 -1.8773  0.1403
16480TIP3    H270932   0.135   4.933   1.634  4.7349 -0.6183 -1.3442
16481TIP3   OH270933   2.167   5.655  10.651 -0.0034  0.1979 -0.3657
16481TIP3    H170934   2.126   5.574  10.623 -1.1350  0.2923  0.9292
16481TIP3    H270935   2.246   5.662  10.597 -1.4818 -0.1390 -2.7231
16482TIP3   OH270936   2.159   5.765  16.182  0.0570 -0.4601  0.5895
16482TIP3    H170937   2.255   5.764  16.188  0.0776  1.1990  1.1718
16482TIP3    H270938   2.140   5.826  16.111 -0.5512  1.0627  1.9859
16483TIP3   OH270939   5.883   3.102   3.819  0.2853  0.4107  0.0532
16483TIP3    H170940   5.962   3.084   3.767  0.0282 -2.2463  0.4713
16483TIP3    H270941   5.868   3.022   3.868 -3.4794  0.2875 -1.0322
16484TIP3   OH270942   5.315   0.985   0.708 -0.9130 -0.1303 -0.6272
16484TIP3    H170943   5.385   0.924   0.728  0.0197  1.1223  0.0331
16484TIP3    H270944   5.238   0.950   0.753  0.0844  0.2304  1.4332
16485TIP3   OH270945   5.558   1.930   3.365  0.5936  0.4115 -0.0596
16485TIP3    H170946   5.526   1.939   3.276 -0.7738 -0.2730  0.3390
16485TIP3    H270947   5.556   2.018   3.401 -2.8926  0.2103  0.5920
16486TIP3   OH270948   6.359   4.937   5.339 -0.0396  0.2626  0.5956
16486TIP3    H170949   6.331   4.957   5.249  0.2726 -0.2905  0.3684
16486TIP3    H270950   6.412   4.858   5.330  0.2255  0.3658  1.2370
16487TIP3   OH270951   3.357   2.915  13.718 -0.2600 -0.4630 -0.3756
16487TIP3    H170952   3.447   2.948  13.713  0.0701 -1.3676 -0.5977
16487TIP3    H270953   3.308   2.984  13.764  0.1725  0.8044 -1.7346
16488TIP3   OH270954   2.087   0.771   1.726 -0.4052  0.9363  0.2263
16488TIP3    H170955   2.082   0.725   1.642 -0.5612  0.4028  0.5210
16488TIP3    H270956   2.179   0.766   1.750 -0.4423  0.6581  0.3178
16489TIP3   OH270957   0.379   2.321   3.970 -0.5193 -0.3764  0.7047
16489TIP3    H170958   0.388   2.281   3.884 -0.3702  0.4888  0.3127
16489TIP3    H270959   0.286   2.338   3.979 -0.5979 -0.8785  0.9154
16490TIP3   OH270960   0.639   3.620   2.185 -0.0163  0.2638  0.5099
16490TIP3    H170961   0.627   3.713   2.168  0.3469  0.2449  0.1477
16490TIP3    H270962   0.574   3.577   2.129  1.1481  0.2039 -0.8504
16491TIP3   OH270963   2.830   4.834   1.004  0.3693 -0.0890 -0.2169
16491TIP3    H170964   2.742   4.845   1.041  0.3237  0.9015 -0.5920
16491TIP3    H270965   2.889   4.844   1.079  0.3924  3.8159 -0.5516
16492TIP3   OH270966   5.761   3.197  10.789 -0.0883 -0.0425  0.6044
16492TIP3    H170967   5.856   3.208  10.799  0.4742 -0.0153 -3.2326
16492TIP3    H270968   5.752   3.134  10.717 -3.0367 -0.7356  1.4541
16493TIP3   OH270969   6.267   1.069  11.541 -0.4032  0.1167  0.5237
16493TIP3    H170970   6.266   1.004  11.470 -1.8072 -0.4410  1.0293
16493TIP3    H270971   6.358   1.101  11.542  0.1906 -1.4438 -0.0904
16494TIP3   OH270972   5.216   2.503   5.551 -0.0016 -0.4320  0.4294
16494TIP3    H170973   5.221   2.505   5.647 -2.4140  1.7307  0.6200
16494TIP3    H270974   5.130   2.466   5.532 -0.4668  1.1789 -0.7970
16495TIP3   OH270975   0.482   4.401  11.431  0.0203 -0.4534  0.3878
16495TIP3    H170976   0.534   4.472  11.392  0.7697 -0.9647  0.4414
16495TIP3    H270977   0.524   4.384  11.515 -0.6562 -0.4064  0.7356
16496TIP3   OH270978   0.366   6.345   3.485  0.5929  0.1238  0.3797
16496TIP3    H170979   0.438   6.332   3.424 -0.8302 -2.0650 -0.9557
16496TIP3    H270980   0.318   6.421   3.450  1.5303  0.8275  0.5965
16497TIP3   OH270981   4.690   0.333   2.120  0.5083 -0.0163  0.0165
16497TIP3    H170982   4.622   0.334   2.053  0.3522 -2.5189  0.0137
16497TIP3    H270983   4.673   0.410   2.174  0.5535  2.0293 -2.6581
16498TIP3   OH270984   3.886   2.248   0.694  0.2016  0.2625  0.3205
16498TIP3    H170985   3.896   2.237   0.788 -0.7701 -0.8356  0.3084
16498TIP3    H270986   3.976   2.262   0.662  0.6117 -0.0034  1.3180
16499TIP3   OH270987   2.824   1.091   5.582  0.1060  0.2091  0.1561
16499TIP3    H170988   2.764   1.017   5.585  0.9776 -0.5356 -0.3091
16499TIP3    H270989   2.818   1.130   5.670  0.4756 -1.1132  0.8006
16500TIP3   OH270990   2.039   2.582  11.235  0.1197  0.3559  0.2540
16500TIP3    H170991   2.002   2.498  11.208 -0.2212  0.5919 -0.0240
16500TIP3    H270992   1.975   2.647  11.205  0.1489  0.6831  0.8856
16501TIP3   OH270993   1.982   0.360   1.571  0.2398  0.5944 -0.5194
16501TIP3    H170994   1.966   0.444   1.528 -0.9795 -0.1418 -1.5912
16501TIP3    H270995   1.972   0.378   1.665 -0.7518  1.5036 -0.7809
16502TIP3   OH270996   2.337   1.348   4.753  0.3246 -0.4914 -0.1382
16502TIP3    H170997   2.391   1.421   4.785 -0.3854  0.1673 -0.4143
16502TIP3    H270998   2.322   1.294   4.830  0.9327 -0.3945  0.0541
16503TIP3   OH270999   0.435   2.364   3.316  0.3101  0.3151 -0.3027
16503TIP3    H171000   0.510   2.395   3.264  0.3599  0.7747  0.0350
16503TIP3    H271001   0.474   2.337   3.399 -0.0701  2.0545  0.4852
16504TIP3   OH271002   2.878   0.861  17.244  0.0051 -0.2403 -0.0365
16504TIP3    H171003   2.939   0.935  17.248 -1.4172  1.0386 -0.6129
16504TIP3    H271004   2.894   0.812  17.324  0.4424  1.1849  0.7886
16505TIP3   OH271005   3.773   1.806  17.170  0.0858 -0.1586  0.2763
16505TIP3    H171006   3.706   1.749  17.133  0.2890 -0.4709  0.3813
16505TIP3    H271007   3.780   1.779  17.261  0.3257 -0.1020  0.2775
16506TIP3   OH271008   6.453   2.576  16.879 -0.2101 -0.7707 -0.0328
16506TIP3    H171009   6.362   2.592  16.907 -0.1791 -0.9681  0.1725
16506TIP3    H271010   6.466   2.638  16.807 -0.6926 -1.1249 -0.4354
16507TIP3   OH271011   2.639   4.140   0.449 -0.0017  0.1113 -0.2975
16507TIP3    H171012   2.697   4.104   0.517  0.1194  1.2234  0.2025
16507TIP3    H271013   2.681   4.115   0.367  0.1653 -0.7383  0.0343
16508TIP3   OH271014   0.476   2.815  11.880  0.0786  0.7617  0.1923
16508TIP3    H171015   0.521   2.746  11.830  2.3634  1.1974  1.5047
16508TIP3    H271016   0.459   2.775  11.965  1.2438  1.6907  0.8949
16509TIP3   OH271017   0.932   1.010   5.987 -0.0671 -0.5037 -0.4036
16509TIP3    H171018   0.967   1.099   5.995 -0.1249 -0.6072  1.4662
16509TIP3    H271019   0.921   0.981   6.077 -2.3583 -1.5222 -0.9378
16510TIP3   OH271020   6.070   1.392   3.501  0.0179  0.6795  0.5278
16510TIP3    H171021   6.151   1.425   3.462 -0.0702  0.1088 -0.1428
16510TIP3    H271022   6.019   1.471   3.520 -0.4640  0.9569 -1.6318
16511TIP3   OH271023   1.755   0.432  12.974  0.3286 -0.1190 -0.5364
16511TIP3    H171024   1.784   0.500  12.913 -0.4100 -0.6315 -1.4656
16511TIP3    H271025   1.660   0.429  12.964  0.1256  0.1425  1.0220
16512TIP3   OH271026   4.858   4.661  13.836  0.1495 -0.0136  0.0338
16512TIP3    H171027   4.883   4.746  13.872  0.5271  0.5240 -1.4023
16512TIP3    H271028   4.771   4.644  13.872  0.1444  0.8876  0.4896
16513TIP3   OH271029   2.820   6.124  14.405  0.1676 -0.0022  0.3923
16513TIP3    H171030   2.797   6.064  14.475 -0.5143 -0.1501  0.0494
16513TIP3    H271031   2.753   6.192  14.408  0.3497  0.1956  0.1268
16514TIP3   OH271032   0.546   5.567  16.548 -0.1142  0.1072  0.0535
16514TIP3    H171033   0.455   5.598  16.541  0.0285  0.5469  0.1218
16514TIP3    H271034   0.599   5.642  16.522  0.3922  1.1249  3.5331
16515TIP3   OH271035   5.996   3.236  12.226 -0.4510  0.8066 -0.1145
16515TIP3    H171036   5.968   3.211  12.138 -0.0925  0.5603 -0.1623
16515TIP3    H271037   6.077   3.187  12.240 -0.7276  0.5170  0.5135
16516TIP3   OH271038   4.003   3.914  13.412  0.1606  0.3697 -0.3224
16516TIP3    H171039   4.002   3.849  13.341  0.6933 -0.3551  0.3133
16516TIP3    H271040   4.089   3.955  13.407  0.6952 -0.5731  0.6627
16517TIP3   OH271041   3.319   4.717  11.141  0.4181  0.3319 -0.2937
16517TIP3    H171042   3.262   4.649  11.104  0.3070 -0.7106  1.6521
16517TIP3    H271043   3.395   4.718  11.083 -0.2338 -0.4109 -1.2029
16518TIP3   OH271044   5.088   0.197  10.530  0.0774 -0.4556  0.1761
16518TIP3    H171045   5.040   0.278  10.512 -1.1183 -0.8694  1.3429
16518TIP3    H271046   5.181   0.222  10.524 -0.2740  0.9591  0.3816
16519TIP3   OH271047   0.737   1.597   6.896 -0.0494  0.4701  0.1902
16519TIP3    H171048   0.691   1.629   6.818 -0.9269  0.2033  0.5914
16519TIP3    H271049   0.708   1.655   6.967 -1.7659 -1.2338  0.9586
16520TIP3   OH271050   6.109   4.437   3.226  0.4316  0.2068  0.4531
16520TIP3    H171051   6.030   4.491   3.215  0.6038  0.2630 -0.5651
16520TIP3    H271052   6.139   4.420   3.137  0.5110 -1.4067  0.7714
16521TIP3   OH271053   6.393   2.108   1.331 -0.7557  0.1941 -0.2564
16521TIP3    H171054   6.377   2.118   1.425 -0.0283 -0.1722 -0.0851
16521TIP3    H271055   6.411   2.196   1.300  1.1014  0.0703  0.3671
16522TIP3   OH271056   5.997   5.733   6.643 -0.5430 -0.0803  0.1307
16522TIP3    H171057   6.042   5.782   6.711 -0.9420  0.3230  0.1042
16522TIP3    H271058   5.958   5.658   6.689  0.3099 -0.5398  0.1211
16523TIP3   OH271059   0.167   5.456  10.457 -0.4573 -0.1551  0.1158
16523TIP3    H171060   0.221   5.535  10.457  1.5004 -1.3790 -0.7778
16523TIP3    H271061   0.077   5.487  10.459  0.2465  2.0121  2.0725
16524TIP3   OH271062   4.086   4.363  12.950  0.1817 -0.9450 -0.3497
16524TIP3    H171063   4.091   4.354  13.046  0.7304 -0.5002 -0.3316
16524TIP3    H271064   4.115   4.278  12.917  1.3054 -0.6767 -0.1242
16525TIP3   OH271065   4.648   6.022   2.343  0.4900 -0.0792 -0.8977
16525TIP3    H171066   4.576   6.050   2.285  1.8133  0.6908 -2.2428
16525TIP3    H271067   4.726   6.025   2.287  1.7740  0.2980  0.8518
16526TIP3   OH271068   6.714   5.435   1.186 -0.3553 -0.0953 -0.4455
16526TIP3    H171069   6.721   5.492   1.262  1.4398  0.5096 -1.0065
16526TIP3    H271070   6.727   5.347   1.222  0.8649  0.2130 -0.0541
16527TIP3   OH271071   0.827   0.061  16.924  0.0086  0.0348 -0.0430
16527TIP3    H171072   0.770   0.138  16.925  1.1036  0.8673 -0.3108
16527TIP3    H271073   0.878   0.067  17.004  0.1412 -0.3897 -0.0907
16528TIP3   OH271074   0.282   0.963  16.819 -0.1923 -0.0905 -0.0363
16528TIP3    H171075   0.262   0.891  16.759 -0.5422  1.6530 -2.1464
16528TIP3    H271076   0.367   0.996  16.789  0.1904  0.0763  1.2060
16529TIP3   OH271077   1.996   0.712   2.721  0.3839 -0.1804  0.3497
16529TIP3    H171078   2.060   0.655   2.764 -0.0838 -1.3413 -0.4484
16529TIP3    H271079   1.965   0.661   2.646 -0.4213  0.9368 -0.1006
16530TIP3   OH271080   6.103   4.446  16.124  0.4142 -0.8206 -0.4786
16530TIP3    H171081   6.095   4.489  16.039  0.2451 -1.0175 -0.5626
16530TIP3    H271082   6.030   4.481  16.175  1.0046 -0.0620 -0.1278
16531TIP3   OH271083   2.105   3.745  15.359 -0.1493  0.2069 -0.1193
16531TIP3    H171084   2.059   3.826  15.384 -1.2004 -0.6682  0.8969
16531TIP3    H271085   2.134   3.708  15.442  0.9335 -0.1328 -0.6304
16532TIP3   OH271086   3.909   1.324   5.131  0.1461 -0.9474  0.3802
16532TIP3    H171087   3.841   1.370   5.084  1.1916  0.0338 -0.2232
16532TIP3    H271088   3.865   1.248   5.169 -1.0267 -0.9570 -0.9243
16533TIP3   OH271089   0.534   3.087   3.295 -0.7783  0.3027 -0.5084
16533TIP3    H171090   0.578   3.002   3.292 -2.9138 -0.8582 -2.4211
16533TIP3    H271091   0.590   3.141   3.350  1.5459 -1.8311 -0.5862
16534TIP3   OH271092   5.946   6.364   0.148 -0.3296  0.0696  0.2495
16534TIP3    H171093   5.894   6.439   0.175  0.6775  0.2492  1.8079
16534TIP3    H271094   6.033   6.381   0.184 -0.3781 -2.4077  1.7270
16535TIP3   OH271095   1.707   5.834  14.729  0.3304 -1.0227  0.0029
16535TIP3    H171096   1.652   5.762  14.700 -0.6337 -0.7256  1.0030
16535TIP3    H271097   1.666   5.864  14.810  2.0539 -0.8727  0.8722
16536TIP3   OH271098   5.252   2.772  15.728 -0.1813  0.6617  0.0642
16536TIP3    H171099   5.200   2.828  15.670  0.0188  0.3830 -0.3942
16536TIP3    H271100   5.308   2.722  15.669  0.2701  0.6134  0.5228
16537TIP3   OH271101   3.965   3.706  12.166 -0.3035  0.0129  0.1150
16537TIP3    H171102   3.963   3.786  12.218 -0.7870 -0.0892  0.2673
16537TIP3    H271103   4.005   3.641  12.223  0.3505  0.2150 -0.1127
16538TIP3   OH271104   1.958   6.129   0.646  0.4345  0.0788 -0.0704
16538TIP3    H171105   2.038   6.106   0.598  0.2003 -0.7936 -0.0551
16538TIP3    H271106   1.972   6.090   0.733 -0.7121 -1.5356 -0.5748
16539TIP3   OH271107   3.239   0.779   1.680 -0.2758 -0.0498 -0.4076
16539TIP3    H171108   3.186   0.757   1.603  1.4027 -2.0236 -1.1077
16539TIP3    H271109   3.212   0.715   1.746  0.4349 -0.3573 -0.4093
16540TIP3   OH271110   4.178   2.786  14.280  0.3466 -0.3654 -0.1090
16540TIP3    H171111   4.248   2.851  14.274 -0.4123  0.4719 -0.0476
16540TIP3    H271112   4.179   2.742  14.195  0.3303  0.2973 -0.4642
16541TIP3   OH271113   1.616   5.192  11.136  0.1662 -0.6395 -0.2684
16541TIP3    H171114   1.669   5.170  11.059  0.1010  0.0029 -0.5041
16541TIP3    H271115   1.644   5.130  11.203  2.1983  0.5259  0.0341
16542TIP3   OH271116   6.553   6.597   4.283 -0.3592 -0.6037 -0.6246
16542TIP3    H171117   6.487   6.636   4.340  1.2725  1.2318  0.1112
16542TIP3    H271118   6.567   6.510   4.319  0.5282  0.4528  1.7653
16543TIP3   OH271119   6.122   4.725   4.290  0.0803  0.7433  0.0569
16543TIP3    H171120   6.129   4.745   4.196  0.7112 -0.7558 -0.2415
16543TIP3    H271121   6.106   4.810   4.331  0.5224  1.5344 -1.3308
16544TIP3   OH271122   6.055   4.751   3.796 -0.5120 -0.3994 -0.4732
16544TIP3    H171123   6.015   4.836   3.811 -0.5696 -0.7482  1.6874
16544TIP3    H271124   6.132   4.750   3.852  1.2713 -0.6467 -2.7804
16545TIP3   OH271125   1.381   5.077  14.603 -1.0222 -0.1577  0.0196
16545TIP3    H171126   1.384   4.991  14.645 -1.2120  0.3390  1.0851
16545TIP3    H271127   1.381   5.139  14.676  2.2153  0.8837 -0.7039
16546TIP3   OH271128   1.825   3.788   3.992 -0.0163  0.6142 -0.6206
16546TIP3    H171129   1.745   3.777   3.940 -0.2241  0.1018 -0.2025
16546TIP3    H271130   1.893   3.745   3.940 -0.4862 -1.1669  0.1549
16547TIP3   OH271131   5.791   4.267  12.276 -0.1991 -0.2672 -0.0333
16547TIP3    H171132   5.849   4.313  12.336  0.7240 -1.9856  0.4455
16547TIP3    H271133   5.703   4.297  12.299  0.2434  0.0126  1.3522
16548TIP3   OH271134   3.325   6.735  17.197 -0.3410  0.0014 -0.1840
16548TIP3    H171135   3.243   6.705  17.236 -2.1621  2.6136 -1.7355
16548TIP3    H271136   3.327   6.694  17.111 -0.3488  0.4478 -0.3992
16549TIP3   OH271137   4.232   0.844  15.340  0.0036 -0.0993 -0.6290
16549TIP3    H171138   4.212   0.822  15.249 -0.8594  0.5583 -0.6154
16549TIP3    H271139   4.271   0.931  15.335  0.7398 -0.4033 -0.4286
16550TIP3   OH271140   4.852   2.663  15.947 -0.0015  0.3376 -0.1018
16550TIP3    H171141   4.868   2.622  15.862  0.5239  0.9973 -0.3264
16550TIP3    H271142   4.939   2.676  15.984 -0.2547 -1.1782  1.1528
16551TIP3   OH271143   0.215   1.080  14.018  0.0136  0.1689  0.3091
16551TIP3    H171144   0.171   1.010  13.971 -0.5354 -0.7209  2.0527
16551TIP3    H271145   0.288   1.106  13.962 -1.1044 -0.2191 -1.3886
16552TIP3   OH271146   0.673   4.424   0.704  0.0586  0.8204 -0.0988
16552TIP3    H171147   0.730   4.500   0.716 -1.0280  1.7377 -0.5772
16552TIP3    H271148   0.658   4.420   0.609 -0.6324  0.5647  0.0168
16553TIP3   OH271149   3.039   3.843   0.579 -0.2194 -0.5938  0.1246
16553TIP3    H171150   2.952   3.807   0.560 -0.2228 -0.4840 -0.0615
16553TIP3    H271151   3.041   3.848   0.675  0.1230 -1.9373  0.2043
16554TIP3   OH271152   2.749   5.433  11.070  0.3051  0.4225  0.4257
16554TIP3    H171153   2.661   5.399  11.055  0.4588 -0.0605  0.6220
16554TIP3    H271154   2.773   5.476  10.987  0.5604 -0.9357 -0.2278
16555TIP3   OH271155   4.624   1.263  15.235  0.0546  0.1313 -0.0071
16555TIP3    H171156   4.666   1.192  15.285  0.3912 -0.2502 -0.8040
16555TIP3    H271157   4.567   1.217  15.173  0.9203  0.4882 -1.1183
16556TIP3   OH271158   1.992   6.399   4.881 -0.1427  0.3027 -0.0103
16556TIP3    H171159   2.032   6.339   4.944  0.4234  2.6971  2.0786
16556TIP3    H271160   2.034   6.483   4.899 -1.0526  1.4136 -2.6599
16557TIP3   OH271161   3.863   1.310   3.110 -0.2846  0.4795 -0.7180
16557TIP3    H171162   3.844   1.260   3.030  0.5032  0.3461 -0.8306
16557TIP3    H271163   3.958   1.304   3.119 -0.4399 -0.2076  0.6844
16558TIP3   OH271164   0.189   3.608  16.897 -0.4205  0.9341  1.0135
16558TIP3    H171165   0.236   3.569  16.824 -4.1541  1.8130 -2.1783
16558TIP3    H271166   0.120   3.546  16.918 -0.6964  1.6538  2.3854
16559TIP3   OH271167   3.467   1.340  16.702 -0.2709 -1.1316 -0.7437
16559TIP3    H171168   3.424   1.425  16.715  1.2696 -0.6127  1.6825
16559TIP3    H271169   3.397   1.276  16.709 -1.4325 -0.1087 -2.3795
16560TIP3   OH271170   5.363   6.763   1.784 -0.0471 -0.0037  0.0478
16560TIP3    H171171   5.388   6.755   1.692 -0.4803 -0.4048 -0.0393
16560TIP3    H271172   5.283   6.710   1.792 -0.4238  0.6077  0.4895
16561TIP3   OH271173   6.211   5.963   1.465 -0.0943  0.0622  0.0592
16561TIP3    H171174   6.192   5.908   1.389  1.2087  0.0632 -0.3090
16561TIP3    H271175   6.160   5.926   1.536  2.0547 -2.7786  0.2883
16562TIP3   OH271176   2.849   1.173   6.069 -0.0870  0.0103 -0.4130
16562TIP3    H171177   2.778   1.122   6.108 -0.6578 -0.3852 -1.8820
16562TIP3    H271178   2.818   1.264   6.073  1.1071  0.3996  2.5749
16563TIP3   OH271179   2.626   6.191   3.737 -0.0693 -0.5013  0.4102
16563TIP3    H171180   2.653   6.250   3.807  0.8307 -0.2595 -0.1110
16563TIP3    H271181   2.570   6.244   3.681  0.7899 -0.0919 -0.0917
16564TIP3   OH271182   0.536   6.718  11.718  0.4459 -0.1200  0.8158
16564TIP3    H171183   0.625   6.742  11.694  0.8029 -0.3209  1.8896
16564TIP3    H271184   0.541   6.625  11.741  0.3440  0.2685  2.5440
16565TIP3   OH271185   6.798   2.216   1.196 -0.2630 -0.4857 -0.2969
16565TIP3    H171186   6.735   2.274   1.154 -0.2601 -1.1491 -1.2451
16565TIP3    H271187   6.793   2.238   1.289  0.3631  1.6210 -0.7204
16566TIP3   OH271188   5.122   6.403  13.372 -0.3514  0.9653 -0.3177
16566TIP3    H171189   5.100   6.496  13.382 -1.3348  0.7005  0.0801
16566TIP3    H271190   5.104   6.365  13.458  0.9609  0.5763 -0.1939
16567TIP3   OH271191   2.919   0.164   1.830 -0.0649 -0.2554 -0.3638
16567TIP3    H171192   2.994   0.201   1.783  1.1667 -0.2748  1.4743
16567TIP3    H271193   2.940   0.072   1.840 -0.4844 -0.3258 -0.1120
16568TIP3   OH271194   1.098   5.476  13.883  0.0213 -0.2153 -0.2543
16568TIP3    H171195   1.084   5.504  13.793 -1.0223  0.6271  0.1408
16568TIP3    H271196   1.044   5.536  13.935 -1.3499 -2.2202  0.7560
16569TIP3   OH271197   0.871   3.521   1.674 -0.2841  0.6377 -0.3736
16569TIP3    H171198   0.953   3.479   1.698 -1.4993 -1.0161  1.1563
16569TIP3    H271199   0.866   3.599   1.729  0.2982  0.8094 -0.5578
16570TIP3   OH271200   3.353   6.797  15.660  0.2471  0.0190 -0.1363
16570TIP3    H171201   3.323   6.760  15.743  0.2590 -2.4009 -1.1251
16570TIP3    H271202   3.381   6.721  15.609 -0.2785  1.3512 -2.5601
16571TIP3   OH271203   5.436   2.425  16.612  0.4621  0.6975  0.3328
16571TIP3    H171204   5.417   2.358  16.678  0.4997  1.0134  0.6707
16571TIP3    H271205   5.375   2.496  16.632  0.5784  0.8562  0.1234
16572TIP3   OH271206   2.000   5.581  12.959  0.5087 -0.3790 -0.1425
16572TIP3    H171207   1.958   5.615  13.038  0.7678  0.6992 -0.4504
16572TIP3    H271208   2.011   5.488  12.976 -1.9628 -0.7042 -0.0465
16573TIP3   OH271209   3.955   0.728  15.100  0.4751 -0.2840 -0.0145
16573TIP3    H171210   4.029   0.782  15.071 -0.1309  0.1701 -0.7323
16573TIP3    H271211   3.882   0.789  15.109  0.4745 -0.5128  1.9146
16574TIP3   OH271212   5.824   6.675   0.763  0.0310 -0.2733  0.1799
16574TIP3    H171213   5.815   6.732   0.840  1.2229 -0.6159  0.5923
16574TIP3    H271214   5.735   6.646   0.744 -0.3395  0.1810  1.1490
16575TIP3   OH271215   1.896   0.064   2.345 -0.0794  0.4203  0.4796
16575TIP3    H171216   1.907   0.079   2.251  0.3888  0.3128  0.5172
16575TIP3    H271217   1.863   0.147   2.379 -2.3124 -0.1549 -0.1164
16576TIP3   OH271218   3.825   1.864   1.189  0.2761  0.4301  0.1808
16576TIP3    H171219   3.763   1.922   1.145  1.0667  0.1980 -1.2848
16576TIP3    H271220   3.776   1.829   1.264 -1.8326 -0.8142 -1.6821
16577TIP3   OH271221   1.624   5.089   0.943  0.4089 -0.5820 -0.4167
16577TIP3    H171222   1.643   5.113   1.033  0.2827 -0.6637 -0.3675
16577TIP3    H271223   1.678   5.148   0.890  0.6305 -0.6655 -0.2845
16578TIP3   OH271224   3.992   3.165   3.599  0.1339 -0.7927  0.1185
16578TIP3    H171225   3.981   3.222   3.675 -0.0172 -0.2338 -0.3160
16578TIP3    H271226   4.086   3.167   3.580 -0.0233  0.2806 -0.6235
16579TIP3   OH271227   0.736   4.457  16.127  0.0030 -0.3122  0.1997
16579TIP3    H171228   0.743   4.364  16.107  1.0844  0.1347 -1.8183
16579TIP3    H271229   0.784   4.468  16.209 -1.0289 -1.6647  1.0143
16580TIP3   OH271230   5.379   5.995   1.898 -0.1682  0.2025 -0.2945
16580TIP3    H171231   5.418   5.999   1.985  0.2825 -1.2647 -0.3935
16580TIP3    H271232   5.294   5.952   1.912 -0.3916  0.5802 -0.4871
16581TIP3   OH271233   0.558   6.419   5.661  0.5320 -0.4931  0.7926
16581TIP3    H171234   0.555   6.373   5.744 -0.8808 -1.2509  0.3538
16581TIP3    H271235   0.467   6.448   5.646  0.7657 -0.3358 -0.4547
16582TIP3   OH271236   3.752   2.669   2.257  0.2211  0.7128 -0.9111
16582TIP3    H171237   3.750   2.606   2.185 -1.1785 -0.8073  0.3930
16582TIP3    H271238   3.745   2.616   2.336 -0.7709  2.4806  0.2460
16583TIP3   OH271239   2.088   0.225   5.488  0.4738 -0.4708  0.0812
16583TIP3    H171240   2.023   0.290   5.464 -0.5700 -1.5148 -0.0359
16583TIP3    H271241   2.162   0.275   5.523 -0.3301  0.7468  0.0646
16584TIP3   OH271242   0.264   0.065  13.283 -0.0387 -0.3133  0.8499
16584TIP3    H171243   0.218  -0.017  13.266  0.0855 -0.3976  0.9190
16584TIP3    H271244   0.273   0.106  13.197 -2.4056  0.8644  1.0826
16585TIP3   OH271245   1.874   3.744  14.749  0.0720 -0.4101  0.5238
16585TIP3    H171246   1.786   3.781  14.757 -0.4165 -1.7851  2.0486
16585TIP3    H271247   1.926   3.792  14.814  0.4003  0.2190 -0.1914
16586TIP3   OH271248   4.443   0.032   1.693  0.1557 -0.0760  0.3744
16586TIP3    H171249   4.440  -0.039   1.628  1.1926  0.6917 -0.5598
16586TIP3    H271250   4.533   0.033   1.723 -0.3190 -0.4189  1.8615
16587TIP3   OH271251   5.506   3.196  15.954 -0.1371 -0.0169  0.5590
16587TIP3    H171252   5.579   3.238  16.001 -1.7202  0.9228  2.3057
16587TIP3    H271253   5.484   3.258  15.884 -0.4239  0.5693  1.1616
16588TIP3   OH271254   2.094   0.731  16.007 -0.2679  0.1558 -0.0411
16588TIP3    H171255   2.037   0.773  15.943 -0.7779 -0.1832  0.1830
16588TIP3    H271256   2.081   0.637  15.993  0.7231  0.0578 -0.4150
16589TIP3   OH271257   1.052   2.751  16.068 -0.1829 -0.1586 -0.2004
16589TIP3    H171258   0.998   2.718  16.140 -1.7517  2.4077 -0.0643
16589TIP3    H271259   1.051   2.680  16.003 -1.3601 -1.3020  0.9974
16590TIP3   OH271260   3.189   3.160  16.132  0.1768 -0.3023  0.6211
16590TIP3    H171261   3.132   3.188  16.061  0.5929  1.3492  0.9037
16590TIP3    H271262   3.277   3.187  16.105  0.4673 -0.5131  1.3267
16591TIP3   OH271263   3.148   3.989   2.545 -0.4354 -0.1124  0.2223
16591TIP3    H171264   3.056   3.990   2.571 -1.3931  0.9386 -2.7012
16591TIP3    H271265   3.145   3.983   2.449  2.6083 -2.1383  0.1244
16592TIP3   OH271266   5.976   2.264   1.399  0.0930  0.0459  0.2043
16592TIP3    H171267   6.005   2.296   1.313 -0.5914 -0.7906 -0.3626
16592TIP3    H271268   5.976   2.341   1.455 -2.9059  1.4175 -1.4408
16593TIP3   OH271269   2.709   4.336   5.755  0.0774 -0.4071  0.1010
16593TIP3    H171270   2.734   4.250   5.788  0.8168  0.2230  1.2478
16593TIP3    H271271   2.702   4.391   5.833 -0.2583  0.6116 -0.6142
16594TIP3   OH271272   0.081   1.025   3.609  0.4284  0.3348  0.2262
16594TIP3    H171273   0.152   1.054   3.551  0.7290  3.3080  1.9170
16594TIP3    H271274   0.126   0.998   3.690 -0.2242 -0.5558  0.3119
16595TIP3   OH271275   3.660   3.838  13.078  0.6720  0.0120 -0.2776
16595TIP3    H171276   3.719   3.859  13.006  1.0963 -0.1236  0.0268
16595TIP3    H271277   3.606   3.916  13.089 -1.6887 -1.0881 -2.9114
16596TIP3   OH271278   4.251   6.444   1.590  0.1349  1.0085  0.4017
16596TIP3    H171279   4.198   6.382   1.641  0.5399 -0.7035 -1.1744
16596TIP3    H271280   4.186   6.496   1.542 -0.1700 -0.2858 -0.6207
16597TIP3   OH271281   2.212   0.343   1.451  0.9476  0.0035  0.1402
16597TIP3    H171282   2.298   0.313   1.480 -0.0436 -0.6535  2.7093
16597TIP3    H271283   2.152   0.312   1.519 -1.1600  1.5129 -0.9247
16598TIP3   OH271284   3.269   1.692   1.893  0.1394 -0.4141 -0.8276
16598TIP3    H171285   3.295   1.689   1.985 -1.6120 -1.0144 -0.3208
16598TIP3    H271286   3.241   1.603   1.872  0.8594 -0.3707 -2.0643
16599TIP3   OH271287   1.870   3.090  12.871  0.0649 -0.2904 -0.5654
16599TIP3    H171288   1.893   3.020  12.810  0.4582 -1.4365  0.8192
16599TIP3    H271289   1.946   3.098  12.928 -0.5984  0.1424  0.2866
16600TIP3   OH271290   4.532   5.666  13.459  0.1534  0.4215 -0.0085
16600TIP3    H171291   4.575   5.700  13.380 -1.1536 -2.0553 -1.9499
16600TIP3    H271292   4.597   5.606  13.496 -0.5986 -1.4581 -1.5604
16601TIP3   OH271293   3.388   1.463  12.819 -0.8685  0.3834  0.3866
16601TIP3    H171294   3.310   1.506  12.783 -0.8313  0.4712  0.4108
16601TIP3    H271295   3.378   1.469  12.914  0.1481  2.2066  0.4154
16602TIP3   OH271296   6.276   0.227   2.520  0.6989  0.3245 -0.4318
16602TIP3    H171297   6.252   0.283   2.446 -1.3401 -0.1246 -0.1848
16602TIP3    H271298   6.263   0.138   2.487 -1.2490  0.1286  0.6933
16603TIP3   OH271299   3.436   6.763   0.254  0.4717 -0.0091  0.1755
16603TIP3    H171300   3.401   6.791   0.338  0.5523  1.0478 -0.1287
16603TIP3    H271301   3.524   6.799   0.250 -0.0372  1.2408 -0.9489
16604TIP3   OH271302   6.276   6.710   1.951  0.0174  0.3390 -0.2604
16604TIP3    H171303   6.242   6.797   1.972  1.4029  0.5998  1.0460
16604TIP3    H271304   6.204   6.651   1.969 -0.1341  0.9815  1.3608
16605TIP3   OH271305   3.341   2.151   5.615 -0.3726 -0.0560 -0.1730
16605TIP3    H171306   3.366   2.105   5.695  0.0148  0.4230 -0.0095
16605TIP3    H271307   3.278   2.217   5.645 -0.1249  0.2128 -0.2410
16606TIP3   OH271308   5.212   1.175   2.567  0.4205  0.5239  0.5120
16606TIP3    H171309   5.301   1.144   2.553 -0.4921 -1.5436 -1.3328
16606TIP3    H271310   5.220   1.271   2.570  2.5236  0.4599 -0.9514
16607TIP3   OH271311   0.642   3.056   5.084 -0.1938 -0.2486 -0.4214
16607TIP3    H171312   0.730   3.067   5.049 -0.0449  0.2671  0.0812
16607TIP3    H271313   0.650   2.987   5.149 -0.4154 -1.0234 -1.1987
16608TIP3   OH271314   0.405   2.110  15.915 -0.0710  0.0095 -0.2037
16608TIP3    H171315   0.404   2.196  15.957  0.9560  0.6453 -1.4238
16608TIP3    H271316   0.498   2.090  15.904 -0.1917 -2.2561  1.9538
16609TIP3   OH271317   2.193   2.385  12.662  0.2853 -0.2903 -0.5861
16609TIP3    H171318   2.250   2.462  12.665  0.5658 -0.4902 -0.7568
16609TIP3    H271319   2.249   2.312  12.687  0.2915 -0.5878 -1.4327
16610TIP3   OH271320   2.215   5.654  13.778  0.2785 -0.2618  0.3273
16610TIP3    H171321   2.137   5.608  13.809  0.5214 -0.5711  0.4767
16610TIP3    H271322   2.206   5.743  13.814  1.4649 -1.0879  2.8993
16611TIP3   OH271323   1.959   4.467   6.018 -0.0452 -0.0887 -0.4681
16611TIP3    H171324   2.032   4.514   6.058 -0.5027  0.8412 -0.7019
16611TIP3    H271325   1.883   4.493   6.069 -0.2683 -0.8096 -0.4221
16612TIP3   OH271326   6.155   3.419   6.089 -0.1064 -0.0053  0.5827
16612TIP3    H171327   6.128   3.476   6.018  0.8079 -1.1953 -0.7837
16612TIP3    H271328   6.232   3.373   6.055  0.1827 -0.8241  2.2367
16613TIP3   OH271329   6.596   0.782   4.460 -0.1430  0.0070  0.1873
16613TIP3    H171330   6.519   0.753   4.410 -0.0932  1.9158 -1.1223
16613TIP3    H271331   6.667   0.783   4.395  0.2857  1.0992  0.6548
16614TIP3   OH271332   2.282   3.227  14.765  0.2473 -0.2544 -0.1304
16614TIP3    H171333   2.254   3.239  14.855  1.0662  0.6071  0.0154
16614TIP3    H271334   2.344   3.154  14.768  1.1093  0.4812  0.1824
16615TIP3   OH271335   2.594   0.876   0.585  0.5971  0.3890  0.4870
16615TIP3    H171336   2.601   0.847   0.494  1.1248 -2.4785  1.3293
16615TIP3    H271337   2.674   0.842   0.627 -1.0382 -1.1266  2.6339
16616TIP3   OH271338   5.206   3.603  11.376  0.0492  0.2921 -0.1726
16616TIP3    H171339   5.110   3.602  11.375 -0.1058 -2.3218 -3.8249
16616TIP3    H271340   5.231   3.596  11.284  3.6588 -2.9876  0.7832
16617TIP3   OH271341   3.461   2.781  12.317 -0.4556  0.2601  0.0493
16617TIP3    H171342   3.453   2.825  12.232 -0.8220  0.5105  0.2076
16617TIP3    H271343   3.373   2.747  12.335 -0.8656  1.7321  1.1262
16618TIP3   OH271344   2.914   6.709   5.136 -0.0803  0.0881  0.1573
16618TIP3    H171345   2.906   6.617   5.159  2.0501 -0.5713 -1.4953
16618TIP3    H271346   2.971   6.746   5.204 -1.5130  0.4074  1.2303
16619TIP3   OH271347   1.418   4.388   3.199  0.3320  0.0922  0.3953
16619TIP3    H171348   1.406   4.392   3.294  0.9007 -0.6157  0.5070
16619TIP3    H271349   1.477   4.314   3.186  2.5916  1.8874 -0.2906
16620TIP3   OH271350   6.376   0.159   3.471  0.0544  0.1897  0.2068
16620TIP3    H171351   6.436   0.188   3.402  0.1285  0.9421  0.5738
16620TIP3    H271352   6.321   0.094   3.429  0.7217 -0.0577 -0.3070
16621TIP3   OH271353   5.593   1.573   3.673 -0.2508  0.3943 -0.3949
16621TIP3    H171354   5.567   1.544   3.586  0.1578 -0.9392 -0.0988
16621TIP3    H271355   5.610   1.666   3.663 -0.1249  0.2495 -1.7701
16622TIP3   OH271356   2.324   6.006  13.887 -0.2922  0.1293 -0.4671
16622TIP3    H171357   2.391   5.938  13.890 -2.2433 -1.8691  1.2909
16622TIP3    H271358   2.242   5.961  13.909 -1.5541  3.1884  1.9551
16623TIP3   OH271359   6.789   5.795  17.181  0.4830  0.1513  0.0342
16623TIP3    H171360   6.764   5.702  17.188  2.0844 -0.5358 -2.1735
16623TIP3    H271361   6.826   5.816  17.266  1.0507 -1.5849  0.2616
16624TIP3   OH271362   3.518   6.605  11.221 -0.4656 -0.4946 -0.1977
16624TIP3    H171363   3.496   6.599  11.128 -0.1657 -0.8836 -0.2442
16624TIP3    H271364   3.498   6.696  11.245  2.1819  0.4850 -1.3497
16625TIP3   OH271365   6.075   4.124  16.808 -0.2136 -0.1969 -0.6122
16625TIP3    H171366   6.084   4.180  16.884 -0.0877 -0.4166 -0.4624
16625TIP3    H271367   6.142   4.155  16.747  0.5709 -0.8536 -0.1052
16626TIP3   OH271368   3.929   5.744   1.461 -0.2622  0.1992  0.0147
16626TIP3    H171369   3.936   5.657   1.422  2.7836  0.3647 -0.0874
16626TIP3    H271370   3.924   5.803   1.386 -0.7608  0.2079  0.0513
16627TIP3   OH271371   6.400   1.069  14.496  0.9202  0.3940 -0.2908
16627TIP3    H171372   6.440   1.155  14.491 -0.5072  1.1681  0.7276
16627TIP3    H271373   6.369   1.050  14.408  1.6553  0.7168 -0.6156
16628TIP3   OH271374   4.489   4.664   1.093  0.7573 -0.0564  0.0598
16628TIP3    H171375   4.581   4.683   1.077  0.6726  1.4307  1.1200
16628TIP3    H271376   4.488   4.575   1.129  1.8072  0.0621  0.4048
16629TIP3   OH271377   4.001   1.582  15.311 -0.0506  0.3304 -0.6475
16629TIP3    H171378   4.006   1.507  15.370 -0.4709 -0.0925 -1.1446
16629TIP3    H271379   4.054   1.650  15.354 -0.2982  0.0082  0.1827
16630TIP3   OH271380   5.506   6.357   4.314  0.0825  0.1151  0.9512
16630TIP3    H171381   5.483   6.271   4.349  0.2810 -0.4150 -0.1747
16630TIP3    H271382   5.423   6.404   4.310 -0.1349 -0.2649  0.9381
16631TIP3   OH271383   3.213   1.719  15.120  0.5736  0.4492  0.0494
16631TIP3    H171384   3.143   1.655  15.121  1.0906 -0.1265  0.6281
16631TIP3    H271385   3.221   1.745  15.028  1.2673 -1.3535 -0.4344
16632TIP3   OH271386   4.682   4.254   5.187 -0.1933 -0.1636 -0.0631
16632TIP3    H171387   4.596   4.219   5.212  0.5945 -2.9063 -0.8510
16632TIP3    H271388   4.663   4.315   5.116 -1.5646  0.0316  0.4407
16633TIP3   OH271389   0.937   3.656   0.731 -0.2837 -0.5276  0.3021
16633TIP3    H171390   0.928   3.743   0.693  0.2298  0.4352  2.2814
16633TIP3    H271391   1.014   3.618   0.688 -0.6265 -0.1071 -0.7092
16634TIP3   OH271392   0.817   6.521  16.553  0.2084 -0.7207  0.2489
16634TIP3    H171393   0.881   6.588  16.577 -0.7866  0.2990  0.0997
16634TIP3    H271394   0.795   6.540  16.462 -0.3985 -0.9877  0.3363
16635TIP3   OH271395   3.820   2.858   3.392 -0.3183  0.3842  0.2593
16635TIP3    H171396   3.891   2.794   3.391 -2.0787 -1.6956 -0.6926
16635TIP3    H271397   3.742   2.807   3.414 -1.7602  2.2811 -0.1840
16636TIP3   OH271398   6.478   4.357   1.336 -0.1927 -0.6218  0.0629
16636TIP3    H171399   6.458   4.263   1.330 -1.2283 -0.4655  0.7120
16636TIP3    H271400   6.397   4.396   1.370  0.2026  0.5197 -0.2664
16637TIP3   OH271401   0.529   4.979   1.698  0.2910  0.0024  0.5897
16637TIP3    H171402   0.472   4.944   1.767 -1.3750 -2.1002 -1.6786
16637TIP3    H271403   0.611   4.931   1.709 -0.4185 -1.3266  0.3635
16638TIP3   OH271404   6.510   5.350   4.997 -0.2497 -0.8754 -0.2371
16638TIP3    H171405   6.489   5.262   5.031 -2.8746  0.0659  0.8346
16638TIP3    H271406   6.455   5.359   4.920  0.6862 -0.4564 -0.8747
16639TIP3   OH271407   3.710   3.770  15.601 -0.4211  0.1381  0.4601
16639TIP3    H171408   3.797   3.740  15.627 -0.1094  1.1976  0.6950
16639TIP3    H271409   3.662   3.778  15.683 -0.6037 -0.0408  0.3705
16640TIP3   OH271410   0.953   5.096  13.002  0.9466 -0.1297  0.0064
16640TIP3    H171411   0.939   5.160  13.071  0.3143 -1.7926  1.5058
16640TIP3    H271412   0.879   5.108  12.942 -0.5418 -1.0220  1.5801
16641TIP3   OH271413   5.504   3.754  11.670 -0.3758  0.1155 -0.4066
16641TIP3    H171414   5.489   3.803  11.751  1.7218 -1.8842  1.3195
16641TIP3    H271415   5.421   3.710  11.653 -0.9115  0.7206  0.5576
16642TIP3   OH271416   1.054   4.014  16.819 -0.3128  0.1559  0.1552
16642TIP3    H171417   1.092   3.931  16.849  0.5642 -0.1702 -1.7302
16642TIP3    H271418   1.036   4.000  16.726 -3.1417  1.0347  0.4691
16643TIP3   OH271419   5.055   0.326  15.132  0.3811 -0.2136 -0.1638
16643TIP3    H171420   5.045   0.241  15.176  1.2341 -0.1588  0.1533
16643TIP3    H271421   5.141   0.321  15.091  2.0403  1.7946  2.7778
16644TIP3   OH271422   0.691   2.551   5.585  0.0492  0.2905 -0.4652
16644TIP3    H171423   0.711   2.611   5.513  0.2516  0.2430 -0.4477
16644TIP3    H271424   0.655   2.473   5.542 -1.6256  0.9913 -0.4084
16645TIP3   OH271425   1.067   2.819  12.949 -0.2534  0.2431  0.4235
16645TIP3    H171426   1.161   2.836  12.959 -0.0151  1.3749 -2.6235
16645TIP3    H271427   1.061   2.723  12.949  0.6384  0.1390  2.0770
16646TIP3   OH271428   1.559   2.511  13.395 -0.2730  0.5168  0.1140
16646TIP3    H171429   1.601   2.465  13.323  1.2384  1.9815  0.0111
16646TIP3    H271430   1.601   2.477  13.474 -0.3417  0.5205  0.1524
16647TIP3   OH271431   4.263   5.563  10.916  0.0912 -0.0498  0.2391
16647TIP3    H171432   4.267   5.553  11.011 -1.7113  1.5290  0.5401
16647TIP3    H271433   4.233   5.478  10.884  0.5171 -0.5330  1.0896
16648TIP3   OH271434   3.340   2.402   3.781 -0.0557 -0.4809  0.4025
16648TIP3    H171435   3.387   2.335   3.831 -1.5991 -2.2439 -0.3889
16648TIP3    H271436   3.247   2.381   3.795 -0.5598  0.9744 -0.5793
16649TIP3   OH271437   1.443   6.814  15.857 -0.6206  0.2022 -0.0764
16649TIP3    H171438   1.529   6.789  15.891 -1.0646  1.3349  2.0717
16649TIP3    H271439   1.394   6.732  15.856 -0.0260 -0.1736  0.3249
16650TIP3   OH271440   1.954   0.971  10.304 -0.3037 -0.3736  0.1412
16650TIP3    H171441   1.931   0.878  10.300  1.4324 -0.8652  0.6756
16650TIP3    H271442   2.001   0.988  10.223 -0.2413 -0.0808  0.2353
16651TIP3   OH271443   1.934   4.880  10.936 -0.2379  0.1093  0.3360
16651TIP3    H171444   2.025   4.870  10.963  0.7217 -0.3171 -2.6773
16651TIP3    H271445   1.893   4.797  10.960  0.8432 -0.7058 -0.5453
16652TIP3   OH271446   5.214   4.363  13.760 -0.4051 -0.0015 -0.2041
16652TIP3    H171447   5.296   4.322  13.733  0.0368  0.0269  1.0431
16652TIP3    H271448   5.178   4.302  13.825 -1.1192  0.2384 -0.3730
16653TIP3   OH271449   4.063   1.314  11.524  0.0677 -0.3042 -0.2370
16653TIP3    H171450   4.002   1.376  11.485 -0.6791 -1.7276 -1.4167
16653TIP3    H271451   4.008   1.243  11.557  0.9721 -0.8170  0.2166
16654TIP3   OH271452   0.940   3.215  16.797  0.4455 -0.5735 -0.2534
16654TIP3    H171453   0.993   3.137  16.817  0.2404 -0.5047  0.6157
16654TIP3    H271454   1.004   3.281  16.770  0.5589 -1.2349 -1.6768
16655TIP3   OH271455   3.295   6.080  15.910  0.2950 -0.0657  0.1537
16655TIP3    H171456   3.328   5.996  15.941  0.0985 -0.7090 -1.3226
16655TIP3    H271457   3.264   6.063  15.821 -1.7749  1.0764  0.5993
16656TIP3   OH271458   2.315   3.104  14.438 -0.1104 -0.0181  0.1539
16656TIP3    H171459   2.326   3.195  14.463  1.5892 -0.1571  0.0131
16656TIP3    H271460   2.402   3.065  14.448 -0.7011 -1.5212 -0.2001
16657TIP3   OH271461   2.092   3.203   0.256  1.1919  0.2630 -0.3547
16657TIP3    H171462   2.093   3.280   0.312  1.9217  0.6713 -0.9082
16657TIP3    H271463   2.160   3.146   0.293 -0.8413 -1.1651  1.4295
16658TIP3   OH271464   0.033   4.550   2.731  0.1481 -0.0131 -0.1793
16658TIP3    H171465  -0.037   4.615   2.728 -0.5465 -0.7313  0.3396
16658TIP3    H271466   0.083   4.573   2.809  1.0378  1.0285 -1.0151
16659TIP3   OH271467   4.059   0.041   2.670 -0.1736  0.1823 -0.2987
16659TIP3    H171468   4.107  -0.015   2.609  1.4246  0.5446  0.5634
16659TIP3    H271469   3.970   0.007   2.669  0.5752 -1.9112 -0.3667
16660TIP3   OH271470   2.561   5.172   5.494 -0.3370 -0.1360  0.2256
16660TIP3    H171471   2.614   5.106   5.538  0.1552 -0.4854 -0.8564
16660TIP3    H271472   2.471   5.148   5.516 -0.1730 -1.2463 -0.2280
16661TIP3   OH271473   6.189   5.223  16.714 -0.1841  0.0346 -0.4923
16661TIP3    H171474   6.094   5.227  16.710 -0.1997  0.2296 -0.0431
16661TIP3    H271475   6.219   5.256  16.629 -0.5084  0.4225 -0.4564
16662TIP3   OH271476   2.982   5.307  14.711  0.2239  0.2677  0.3056
16662TIP3    H171477   2.999   5.382  14.653 -0.4583 -0.2169 -0.5514
16662TIP3    H271478   2.891   5.283  14.693  0.3102 -0.5194  0.8637
16663TIP3   OH271479   3.056   3.342  11.174  0.6666 -0.1795 -0.1287
16663TIP3    H171480   3.110   3.271  11.209 -0.3744 -0.8482  0.1428
16663TIP3    H271481   3.120   3.408  11.146  1.6247 -0.9082  0.2675
16664TIP3   OH271482   1.327   4.531  11.480 -0.0177  0.5251 -0.0302
16664TIP3    H171483   1.247   4.481  11.467 -0.2719  0.9006  0.0867
16664TIP3    H271484   1.365   4.495  11.560  1.8907 -2.2491 -1.9910
16665TIP3   OH271485   6.358   4.049  16.997 -0.2774 -0.2655  0.4430
16665TIP3    H171486   6.300   4.110  16.951  1.1671 -0.1963 -1.4001
16665TIP3    H271487   6.410   4.105  17.054 -0.6427 -0.0866  0.6059
16666TIP3   OH271488   0.925   5.528   0.778  0.7559  0.3700  0.2259
16666TIP3    H171489   0.875   5.448   0.793 -0.9069  1.2180 -0.6302
16666TIP3    H271490   0.975   5.540   0.860  0.2717 -0.9706  0.7534
16667TIP3   OH271491   1.251   3.968  12.292 -0.0417  0.6646 -0.0478
16667TIP3    H171492   1.345   3.978  12.311 -0.3446  2.2490  0.7850
16667TIP3    H271493   1.237   3.873  12.291  1.5690  0.3948 -0.1947
16668TIP3   OH271494   5.960   1.148  16.091  0.6425 -0.2009 -0.2300
16668TIP3    H171495   6.053   1.160  16.071  0.3799  1.8342 -0.4938
16668TIP3    H271496   5.921   1.123  16.007  0.8226 -0.1410 -0.3343
16669TIP3   OH271497   5.775   6.397  11.725  0.6451  0.1007 -0.3411
16669TIP3    H171498   5.754   6.330  11.790  1.9113 -0.6655 -0.6887
16669TIP3    H271499   5.735   6.365  11.644  1.5751 -0.4428 -0.5938
16670TIP3   OH271500   2.490   1.219  14.676  0.4475 -0.3014  0.3646
16670TIP3    H171501   2.476   1.227  14.582 -0.3963 -0.4745  0.4689
16670TIP3    H271502   2.428   1.152  14.704 -1.0991  1.4960  1.4447
16671TIP3   OH271503   4.712   2.679   2.016 -0.0956 -0.0650  0.5103
16671TIP3    H171504   4.708   2.612   2.084  0.6188 -0.7777 -0.1298
16671TIP3    H271505   4.715   2.762   2.065 -1.3777 -0.4501  1.2970
16672TIP3   OH271506   1.248   2.361   5.802 -0.5384  0.6233  0.2083
16672TIP3    H171507   1.320   2.425   5.807 -0.3830  0.6125 -1.3035
16672TIP3    H271508   1.175   2.410   5.765 -0.9414  0.3429  0.6344
16673TIP3   OH271509   1.329   1.656  13.676 -0.3621 -0.5711 -1.0909
16673TIP3    H171510   1.316   1.562  13.662 -0.9358 -0.6569 -0.1005
16673TIP3    H271511   1.421   1.664  13.701 -0.6775 -1.0948  0.3633
16674TIP3   OH271512   5.223   6.041   6.405  0.3801  0.0763 -0.4664
16674TIP3    H171513   5.131   6.018   6.398 -0.2505  2.0002  0.8125
16674TIP3    H271514   5.224   6.136   6.409  2.3272  0.0571  0.6828
16675TIP3   OH271515   6.367   1.085  12.559 -0.2894 -0.3589  0.1753
16675TIP3    H171516   6.347   1.175  12.583 -3.6557  0.1145 -3.3247
16675TIP3    H271517   6.303   1.032  12.606 -0.1533 -0.6003  0.0938
16676TIP3   OH271518   5.212   1.610  14.361  0.0004  1.3183  0.0958
16676TIP3    H171519   5.121   1.595  14.336 -0.0811 -1.3219  1.5837
16676TIP3    H271520   5.260   1.609  14.279 -0.7849 -2.5211 -0.5478
16677TIP3   OH271521   5.564   6.482  16.819  0.1689 -0.3826  0.1527
16677TIP3    H171522   5.616   6.448  16.747 -0.4969 -0.9338 -0.0702
16677TIP3    H271523   5.531   6.404  16.864  0.0424 -0.0402  0.6651
16678TIP3   OH271524   6.293   5.655  13.349 -0.0660  0.3113  0.3556
16678TIP3    H171525   6.247   5.734  13.378 -0.7764  0.6023 -1.4398
16678TIP3    H271526   6.350   5.685  13.278  1.3900 -0.4199  1.1704
16679TIP3   OH271527   3.010   4.420   4.126 -0.2472  0.2349 -0.6157
16679TIP3    H171528   2.928   4.469   4.131 -1.0345 -1.0923  0.1008
16679TIP3    H271529   3.046   4.422   4.214 -0.0352 -0.0629 -0.6912
16680TIP3   OH271530   5.119   2.802  14.513  0.2360 -0.3430 -0.6585
16680TIP3    H171531   5.087   2.805  14.423 -0.7695  1.7633 -0.2789
16680TIP3    H271532   5.143   2.893  14.533 -2.6325 -0.0731  2.2321
16681TIP3   OH271533   0.725   6.366   1.970  0.0421  0.2370  0.1268
16681TIP3    H171534   0.772   6.359   2.053  1.7567  1.6124 -0.6327
16681TIP3    H271535   0.783   6.323   1.906 -0.6052  0.3694 -0.5659
16682TIP3   OH271536   3.733   4.257   4.993 -0.0124  0.2202 -0.0088
16682TIP3    H171537   3.652   4.206   4.994  0.2768 -0.2592  1.6634
16682TIP3    H271538   3.758   4.260   4.901 -1.8405  0.2630 -0.5445
16683TIP3   OH271539   5.826   2.444  15.069  0.6671  0.5290  0.1434
16683TIP3    H171540   5.848   2.394  15.148 -0.3994  0.4218  0.3959
16683TIP3    H271541   5.865   2.394  14.998  0.7662  0.0605  0.5185
16684TIP3   OH271542   0.497   2.404  12.469 -0.4705 -0.2635  0.3102
16684TIP3    H171543   0.461   2.318  12.490 -0.8697 -0.5420 -1.3685
16684TIP3    H271544   0.588   2.399  12.499 -0.4300 -1.3511  0.0674
16685TIP3   OH271545   1.201   6.178  13.038 -0.0589 -0.1207 -0.7348
16685TIP3    H171546   1.268   6.161  13.103  0.1153 -0.2156 -0.9367
16685TIP3    H271547   1.205   6.273  13.025 -0.8141  0.0418  0.1562
16686TIP3   OH271548   5.950   3.360   5.216 -0.1978 -0.0556  0.4024
16686TIP3    H171549   5.865   3.386   5.179 -0.0976 -1.2538 -0.7449
16686TIP3    H271550   5.928   3.314   5.297 -0.3949  3.1621  2.3913
16687TIP3   OH271551   2.400   5.793  13.417 -0.2438 -0.1846  0.5180
16687TIP3    H171552   2.411   5.703  13.386  0.1899 -0.7822  2.3044
16687TIP3    H271553   2.454   5.799  13.496 -0.5354  1.5463  0.6393
16688TIP3   OH271554   0.648   3.596   0.076 -0.7170  0.3540  0.4632
16688TIP3    H171555   0.590   3.642   0.137  0.4368  0.5675  1.4415
16688TIP3    H271556   0.599   3.518   0.050 -2.2641  1.5369 -0.3681
16689TIP3   OH271557   4.706   5.437   3.342 -0.8348 -0.0004  0.5942
16689TIP3    H171558   4.737   5.354   3.308 -2.1313 -0.2628 -0.0041
16689TIP3    H271559   4.759   5.503   3.297  0.2399 -0.4850  1.1197
16690TIP3   OH271560   6.076   4.439  15.853 -0.1014 -0.0156 -0.2998
16690TIP3    H171561   6.164   4.476  15.843 -0.0294  0.1368  0.8153
16690TIP3    H271562   6.051   4.413  15.764  0.3486  1.5681 -0.9340
16691TIP3   OH271563   5.431   4.781   2.715 -0.3452 -0.0218 -0.3440
16691TIP3    H171564   5.415   4.746   2.628 -1.4355 -0.9138  0.2003
16691TIP3    H271565   5.450   4.705   2.769 -2.9447  0.0994  0.9021
16692TIP3   OH271566   2.520   5.022  16.931 -0.0981  0.1968  0.1252
16692TIP3    H171567   2.492   4.959  16.864  0.0328  0.1818  0.0851
16692TIP3    H271568   2.614   5.032  16.917 -0.1577  0.5771 -0.0177
16693TIP3   OH271569   0.534   0.400  16.775 -0.3453  0.2116  0.2708
16693TIP3    H171570   0.518   0.494  16.774 -0.4653  0.1972  0.8969
16693TIP3    H271571   0.483   0.367  16.848  2.0144  0.0821  1.9657
16694TIP3   OH271572   0.411   6.285  13.142 -0.0290  0.1230  0.0708
16694TIP3    H171573   0.429   6.210  13.198  0.2434  0.3148  0.2432
16694TIP3    H271574   0.317   6.280  13.125 -0.2605  0.4644  1.1420
16695TIP3   OH271575   1.754   2.130  13.452  1.1088 -0.1517  0.6479
16695TIP3    H171576   1.838   2.095  13.479  0.0521 -2.0457  1.7118
16695TIP3    H271577   1.731   2.193  13.520  1.1263 -0.5465  1.0228
16696TIP3   OH271578   1.694   2.827  15.327 -0.4359  0.4082  0.1933
16696TIP3    H171579   1.780   2.798  15.357 -0.4306  1.4434  1.2494
16696TIP3    H271580   1.632   2.786  15.387 -0.6415  0.0934 -0.2326
16697TIP3   OH271581   0.584   4.065   4.990  0.4814  0.6017 -0.4000
16697TIP3    H171582   0.607   3.977   4.961  0.2934  0.4726 -0.1622
16697TIP3    H271583   0.500   4.054   5.035  0.5792  0.8599 -0.1505
16698TIP3   OH271584   3.704   1.220  17.225  0.1353 -0.2520  0.3117
16698TIP3    H171585   3.760   1.167  17.282  0.3603  0.3199  0.6273
16698TIP3    H271586   3.655   1.156  17.174  2.5905 -0.8539 -1.5037
16699TIP3   OH271587   1.366   4.887   0.344  0.4992  0.2588 -0.3823
16699TIP3    H171588   1.392   4.940   0.268 -0.2281 -0.0779 -0.8763
16699TIP3    H271589   1.330   4.951   0.406  1.7995  0.6378  0.0182
16700TIP3   OH271590   6.196   6.526   6.686  0.0060  0.4479 -1.0949
16700TIP3    H171591   6.231   6.469   6.618 -0.9424  1.4743 -2.5067
16700TIP3    H271592   6.269   6.584   6.710  0.7811 -0.8847 -0.1140
16701TIP3   OH271593   4.786   4.095   4.621 -0.0922  0.0704  0.5254
16701TIP3    H171594   4.705   4.144   4.608 -0.0384  0.3217  1.0952
16701TIP3    H271595   4.814   4.119   4.709 -0.2227 -1.2125  0.9353
16702TIP3   OH271596   2.347   6.757   3.489 -0.1771  0.5292 -0.0149
16702TIP3    H171597   2.371   6.664   3.498  1.5555  0.9813  0.3467
16702TIP3    H271598   2.323   6.784   3.577 -2.5770 -0.0069 -0.4269
16703TIP3   OH271599   4.296   4.355  11.821  0.0423 -0.1803 -0.6060
16703TIP3    H171600   4.311   4.387  11.910 -1.9884  2.6031 -1.1249
16703TIP3    H271601   4.236   4.281  11.833  0.8195 -0.6620  0.3995
16704TIP3   OH271602   6.311   6.691  14.554  0.3508 -0.4166  0.5196
16704TIP3    H171603   6.395   6.724  14.584  1.1277 -1.3238 -0.5853
16704TIP3    H271604   6.254   6.698  14.631  1.5678 -0.2707  1.4405
16705TIP3   OH271605   6.425   1.236  11.231 -0.1553  0.4012 -0.2676
16705TIP3    H171606   6.333   1.207  11.234 -0.0228 -0.0734 -0.7200
16705TIP3    H271607   6.434   1.281  11.147 -0.2569  1.4382  0.2654
16706TIP3   OH271608   6.500   6.646   4.965 -0.2657 -0.1755  0.6083
16706TIP3    H171609   6.559   6.666   4.892 -0.1002 -0.6766  0.6002
16706TIP3    H271610   6.478   6.554   4.953 -1.6894  0.2076  0.1687
16707TIP3   OH271611   5.454   0.049  13.504  0.2460  0.0780  0.0483
16707TIP3    H171612   5.435  -0.019  13.569  2.7298 -2.2249 -1.4270
16707TIP3    H271613   5.404   0.024  13.427  2.0103 -0.8477 -0.8693
16708TIP3   OH271614   5.908   1.551   6.146  0.2823  0.0273 -0.0993
16708TIP3    H171615   5.888   1.539   6.053  2.7773  2.2658 -1.0061
16708TIP3    H271616   5.949   1.637   6.152  0.1965 -0.0320  3.1169
16709TIP3   OH271617   1.050   5.811  11.523  0.3950 -0.1478 -0.5445
16709TIP3    H171618   1.136   5.824  11.563  1.0488  0.4788 -2.0571
16709TIP3    H271619   1.056   5.728  11.477  0.1837 -0.1006 -0.6614
16710TIP3   OH271620   4.954   3.745  15.811 -0.1388  0.2936  0.3526
16710TIP3    H171621   4.976   3.774  15.900  1.0686  0.5450 -0.0112
16710TIP3    H271622   4.886   3.679  15.823  0.7837 -0.4721  1.5393
16711TIP3   OH271623   2.369   3.608   4.244 -0.4831 -0.1041 -0.1139
16711TIP3    H171624   2.297   3.651   4.197 -1.1933 -0.5132  0.5840
16711TIP3    H271625   2.421   3.680   4.278 -0.1771  0.2009 -1.1824
16712TIP3   OH271626   1.827   0.926   2.933  0.3605  0.2294 -0.4052
16712TIP3    H171627   1.878   0.865   2.880  1.9880 -0.1151  1.4478
16712TIP3    H271628   1.890   0.993   2.961  0.1023 -0.6024  2.5641
16713TIP3   OH271629   6.763   1.052   4.109 -0.1495 -0.4055  0.0422
16713TIP3    H171630   6.679   1.072   4.149  0.2566 -0.2755  0.8519
16713TIP3    H271631   6.828   1.092   4.168  0.4592 -0.0446 -0.8417
16714TIP3   OH271632   0.292   3.561   2.830 -0.1768 -0.4084 -0.2443
16714TIP3    H171633   0.224   3.626   2.847 -0.0103  0.1314 -1.5374
16714TIP3    H271634   0.244   3.481   2.808 -0.3840 -0.5586  0.7446
16715TIP3   OH271635   1.607   6.820   2.263 -0.0296 -0.6292 -0.0877
16715TIP3    H171636   1.603   6.744   2.205 -0.3260 -0.7670  0.1078
16715TIP3    H271637   1.700   6.840   2.270 -0.0749  0.4746 -1.9777
16716TIP3   OH271638   0.531   0.326   5.275  0.1636 -0.5338 -0.5436
16716TIP3    H171639   0.489   0.242   5.258  0.3103 -1.2860  2.3522
16716TIP3    H271640   0.485   0.361   5.351  0.6153  1.6758 -1.2145
16717TIP3   OH271641   0.173   0.864  11.820 -0.3846  0.1613  0.3179
16717TIP3    H171642   0.150   0.924  11.749  0.2760  1.2224  0.9633
16717TIP3    H271643   0.268   0.856  11.814 -0.4965 -1.1691 -0.0054
16718TIP3   OH271644   3.262   0.956  11.486 -0.4850 -0.2384 -0.1954
16718TIP3    H171645   3.301   1.042  11.498  0.3018 -0.6922  0.5553
16718TIP3    H271646   3.331   0.904  11.445 -0.0456 -1.2199  1.7047
16719TIP3   OH271647   5.987   3.533  11.535  0.2787 -0.1154  0.4381
16719TIP3    H171648   6.020   3.475  11.466 -1.1920 -1.1817  0.6038
16719TIP3    H271649   5.982   3.478  11.612 -3.0912 -0.4114  0.1273
16720TIP3   OH271650   1.500   6.253  13.178  0.0111  0.3198  0.4281
16720TIP3    H171651   1.569   6.311  13.209 -0.9514  0.6816  1.9493
16720TIP3    H271652   1.518   6.243  13.084  1.5328  1.1929  0.5975
16721TIP3   OH271653   1.892   1.042   0.871  0.8702  0.1320 -0.5181
16721TIP3    H171654   1.845   1.075   0.794 -0.3666  0.6381  0.4201
16721TIP3    H271655   1.892   0.947   0.860 -0.6736  0.0909 -0.4011
16722TIP3   OH271656   6.577   4.631  16.868  0.2293  0.6281 -0.2267
16722TIP3    H171657   6.614   4.582  16.795 -2.2897 -1.8518  0.0082
16722TIP3    H271658   6.637   4.614  16.941 -0.0119 -1.2722 -0.4376
16723TIP3   OH271659   0.324   3.900   3.579  0.1195 -0.3230 -0.0607
16723TIP3    H171660   0.370   3.901   3.495 -2.3946  0.2275 -1.5311
16723TIP3    H271661   0.250   3.841   3.565 -1.7454  1.6297  0.9492
16724TIP3   OH271662   3.162   1.280  17.007  0.4074  0.2461 -0.0394
16724TIP3    H171663   3.206   1.265  17.091  1.1835 -0.2961 -0.5304
16724TIP3    H271664   3.169   1.375  16.993 -1.6781  0.7335  1.5343
16725TIP3   OH271665   2.830   2.989  11.294  0.6679  0.3901  0.3047
16725TIP3    H171666   2.817   2.961  11.384  0.7887 -2.2812 -0.4110
16725TIP3    H271667   2.914   2.949  11.269 -0.0462 -0.1476 -1.3846
16726TIP3   OH271668   5.597   1.156  15.689  0.7911 -0.4358 -0.0464
16726TIP3    H171669   5.575   1.128  15.600  1.2142  1.0743 -0.6564
16726TIP3    H271670   5.609   1.251  15.682  1.0986 -0.3304  1.5710
16727TIP3   OH271671   3.440   2.798  14.030  0.4437 -0.2215 -0.4168
16727TIP3    H171672   3.398   2.840  13.955  1.1014  0.5830 -0.3466
16727TIP3    H271673   3.432   2.862  14.101 -0.1075 -0.9474  0.1955
16728TIP3   OH271674   2.048   5.235  15.838 -0.1626 -0.3940 -0.3105
16728TIP3    H171675   2.037   5.195  15.752 -0.1403  0.9010 -0.9372
16728TIP3    H271676   1.960   5.266  15.862  0.2861  1.6706 -1.1298
16729TIP3   OH271677   4.992   3.812  12.182  0.5025 -0.2939 -0.1573
16729TIP3    H171678   4.998   3.787  12.090  0.5096  2.6805 -1.0685
16729TIP3    H271679   4.976   3.730  12.228 -0.5553 -1.7521 -2.8963
16730TIP3   OH271680   1.477   1.583   0.690  0.3847 -0.0541  0.1198
16730TIP3    H171681   1.395   1.622   0.722  0.0828 -0.5190 -0.0684
16730TIP3    H271682   1.453   1.493   0.669  1.5865 -1.0840  2.7479
16731TIP3   OH271683   4.213   3.640   0.096 -0.0924 -0.5627 -0.8747
16731TIP3    H171684   4.154   3.715   0.096  1.4430  0.6913  0.9039
16731TIP3    H271685   4.176   3.580   0.161 -0.3330 -0.5683 -1.0142
16732TIP3   OH271686   1.515   1.490  12.302  0.5235  0.0669  0.5468
16732TIP3    H171687   1.562   1.519  12.380 -0.1686 -2.3298  1.9507
16732TIP3    H271688   1.424   1.483  12.329  0.3537 -1.3729 -0.2619
16733TIP3   OH271689   5.648   2.595   0.651  0.2994  0.6135  0.4097
16733TIP3    H171690   5.638   2.620   0.559  1.5686 -0.4351 -0.0444
16733TIP3    H271691   5.589   2.521   0.662  0.7273  0.2390  0.2155
16734TIP3   OH271692   2.321   0.589  16.477 -0.0329 -0.0799  0.0223
16734TIP3    H171693   2.307   0.611  16.569  1.3170  1.4261 -0.0826
16734TIP3    H271694   2.237   0.553  16.448 -1.4317  2.0540  1.1158
16735TIP3   OH271695   1.173   2.037   6.483 -0.7080  0.2312  0.1368
16735TIP3    H171696   1.159   1.974   6.412  0.6864  0.2244 -0.1652
16735TIP3    H271697   1.268   2.046   6.488 -0.8353  1.1604  1.2036
16736TIP3   OH271698   1.196   6.275  15.496 -0.4565  0.0502 -0.3013
16736TIP3    H171699   1.169   6.213  15.428  3.5000 -2.6574  0.3004
16736TIP3    H271700   1.157   6.241  15.576 -0.7974  0.1940 -0.4009
16737TIP3   OH271701   0.694   0.055  10.989  0.6659  0.2198  0.3101
16737TIP3    H171702   0.773   0.063  10.936 -1.7023 -1.2282 -3.9308
16737TIP3    H271703   0.713  -0.015  11.051  2.9007  0.4078 -0.0854
16738TIP3   OH271704   4.841   1.158   1.882 -0.7576  0.6916  0.5712
16738TIP3    H171705   4.914   1.108   1.846 -0.4515  1.0916  0.6243
16738TIP3    H271706   4.874   1.248   1.887 -0.7926  0.6452  1.8399
16739TIP3   OH271707   4.149   0.322  14.145 -0.2950  0.0539  0.0744
16739TIP3    H171708   4.104   0.301  14.227 -0.1151  1.4574  0.5568
16739TIP3    H271709   4.217   0.384  14.170 -0.1515  0.4042 -1.1250
16740TIP3   OH271710   1.921   6.152  15.225 -0.3605 -0.3034 -0.0754
16740TIP3    H171711   1.853   6.211  15.191 -0.1546 -0.1384 -0.1992
16740TIP3    H271712   1.958   6.199  15.300  0.4766  0.1654 -0.7627
16741TIP3   OH271713   5.335   3.804   1.266 -0.2392  0.2329  0.2462
16741TIP3    H171714   5.420   3.771   1.296 -0.7115  0.0589  1.4307
16741TIP3    H271715   5.357   3.864   1.195  0.7965 -0.7399 -0.3009
16742TIP3   OH271716   5.317   6.178   3.823 -0.4031 -0.3862 -0.0664
16742TIP3    H171717   5.230   6.167   3.783  0.3044 -0.2335 -1.7333
16742TIP3    H271718   5.365   6.100   3.798  0.3026  0.0671 -0.1632
16743TIP3   OH271719   0.443   1.258  13.502 -0.3844 -0.2014  0.7761
16743TIP3    H171720   0.398   1.339  13.526 -0.9374  0.4610 -2.1115
16743TIP3    H271721   0.535   1.273  13.525 -0.6697  0.7570  1.3421
16744TIP3   OH271722   4.334   6.452  15.388  0.6970  0.4009 -0.4863
16744TIP3    H171723   4.309   6.425  15.476 -0.8973 -1.2980 -1.3859
16744TIP3    H271724   4.306   6.543  15.382  0.5229  0.4336  0.6504
16745TIP3   OH271725   6.576   1.621  12.865 -0.2230 -0.0583  0.1316
16745TIP3    H171726   6.586   1.686  12.795  0.0833  0.4916  0.6802
16745TIP3    H271727   6.636   1.551  12.840 -0.8964 -0.3551 -0.7076
16746TIP3   OH271728   1.645   4.080   3.968  0.5995  0.2899 -0.3041
16746TIP3    H171729   1.698   4.089   4.046 -1.3571  0.8003  1.0549
16746TIP3    H271730   1.695   4.125   3.899  1.2179  2.1226  1.2546
16747TIP3   OH271731   1.155   5.196  12.566  0.6668  0.0954 -0.4746
16747TIP3    H171732   1.198   5.234  12.489  0.5880 -1.1896 -1.1797
16747TIP3    H271733   1.077   5.153  12.531  0.1589  0.2430  0.4495
16748TIP3   OH271734   1.715   6.341   0.388  0.2535 -0.7592 -0.3919
16748TIP3    H171735   1.757   6.374   0.467  2.0386 -0.9892 -1.1963
16748TIP3    H271736   1.665   6.264   0.417 -0.4149  0.0862  0.7480
16749TIP3   OH271737   4.715   4.562   6.171 -0.1841 -0.1093 -0.5256
16749TIP3    H171738   4.623   4.581   6.189 -0.0696 -1.0913  1.1994
16749TIP3    H271739   4.759   4.574   6.254  1.0863 -0.6739 -1.0921
16750TIP3   OH271740   5.618   0.193  13.282 -0.2973 -0.1084 -0.1848
16750TIP3    H171741   5.625   0.149  13.367  1.5821 -0.0278 -0.2515
16750TIP3    H271742   5.595   0.283  13.303  1.8326  0.3531  0.4142
16751TIP3   OH271743   1.776   3.790  11.076  0.1491  0.2183  0.6321
16751TIP3    H171744   1.790   3.699  11.052  1.4630  0.4778  0.3442
16751TIP3    H271745   1.860   3.819  11.110  0.0692  1.6407 -0.3194
16752TIP3   OH271746   6.274   1.684  13.403 -0.0782  0.5209 -0.2509
16752TIP3    H171747   6.234   1.713  13.321 -0.1661  2.4747  0.4320
16752TIP3    H271748   6.316   1.762  13.438  1.3678 -0.6622  0.7865
16753TIP3   OH271749   0.090   2.915   3.462  0.3031  0.1197  0.5399
16753TIP3    H171750  -0.001   2.911   3.493 -0.0039 -4.2004 -0.3702
16753TIP3    H271751   0.140   2.870   3.530  1.0961 -1.0773 -0.8069
16754TIP3   OH271752   4.967   3.993   0.794 -0.2532 -0.0035  0.0198
16754TIP3    H171753   4.913   4.072   0.786 -1.0347 -0.3247  1.6515
16754TIP3    H271754   4.983   3.965   0.704 -1.6839  0.8671 -0.5331
16755TIP3   OH271755   0.536   3.554  11.199  0.7292  0.0304  0.2034
16755TIP3    H171756   0.554   3.524  11.110  0.3915 -0.2647  0.2359
16755TIP3    H271757   0.597   3.627  11.211  1.7156 -0.7580  0.1993
16756TIP3   OH271758   3.648   1.767   0.891 -0.6009  0.0475  0.5890
16756TIP3    H171759   3.566   1.740   0.932  0.3104 -0.2804  2.3287
16756TIP3    H271760   3.657   1.860   0.915 -0.8916  0.3309 -0.3742
16757TIP3   OH271761   3.254   0.451  14.732 -0.0290  0.1796 -0.1675
16757TIP3    H171762   3.330   0.393  14.738  0.4999  1.0080  2.1011
16757TIP3    H271763   3.290   0.539  14.743 -1.1825  0.6802 -0.2448
16758TIP3   OH271764   2.047   2.036   2.066 -0.3006 -0.7991  0.3704
16758TIP3    H171765   2.075   2.118   2.106 -0.1076 -0.6309 -0.0975
16758TIP3    H271766   2.128   1.990   2.046 -0.4144 -1.9013  2.1971
16759TIP3   OH271767   1.170   6.811  15.547  0.0699 -0.6487  0.3055
16759TIP3    H171768   1.111   6.735  15.547 -1.1980  0.2760  1.5436
16759TIP3    H271769   1.125   6.876  15.493  1.0666 -0.6885 -0.6054
16760TIP3   OH271770   5.324   4.559   4.003 -0.7226 -0.4999  0.6755
16760TIP3    H171771   5.274   4.632   4.041  0.9090  0.5251  0.9310
16760TIP3    H271772   5.384   4.600   3.941  0.5475 -1.5719  1.1538
16761TIP3   OH271773   4.817   4.023  11.797 -0.0185  0.4831  0.2432
16761TIP3    H171774   4.902   4.035  11.837 -0.2868  1.0915  0.6510
16761TIP3    H271775   4.780   4.111  11.792 -0.2145  0.3559 -0.8430
16762TIP3   OH271776   4.493   3.587   3.134 -1.1120  0.2199  0.1186
16762TIP3    H171777   4.469   3.671   3.173  2.2408  1.4304 -0.1257
16762TIP3    H271778   4.511   3.531   3.210 -0.4815  0.6778  0.3183
16763TIP3   OH271779   3.862   1.601   0.972 -0.0628  0.5666 -0.0373
16763TIP3    H171780   3.950   1.639   0.977 -0.1989  0.7656  0.9551
16763TIP3    H271781   3.812   1.666   0.922  0.9238 -0.7040 -2.9154
16764TIP3   OH271782   4.683   1.022  12.985 -0.7552 -0.3414  0.1170
16764TIP3    H171783   4.768   1.049  13.018 -1.3373  1.4800  0.2316
16764TIP3    H271784   4.682   1.050  12.894 -1.0655 -0.8071 -0.0314
16765TIP3   OH271785   5.488   2.912   1.844 -0.0571 -0.4737  0.1743
16765TIP3    H171786   5.455   2.987   1.895  1.3286 -1.0258  2.0075
16765TIP3    H271787   5.483   2.838   1.905  1.9557 -1.1074 -0.3592
16766TIP3   OH271788   3.657   1.411   1.676 -0.2303 -0.3322  0.1910
16766TIP3    H171789   3.712   1.362   1.738  1.4685 -1.4688 -2.0423
16766TIP3    H271790   3.714   1.482   1.645  0.6162 -2.2512 -3.0897
16767TIP3   OH271791   0.773   2.452  16.447  0.3926 -0.3390  0.8270
16767TIP3    H171792   0.794   2.359  16.455 -1.3618 -0.6459  2.5267
16767TIP3    H271793   0.693   2.463  16.498  0.3973  2.0629  0.4208
16768TIP3   OH271794   0.695   3.463   0.351 -0.3670  0.0569 -0.8687
16768TIP3    H171795   0.680   3.448   0.444 -2.7140 -1.5530 -1.4122
16768TIP3    H271796   0.754   3.539   0.348  1.4213 -1.0620  1.9101
16769TIP3   OH271797   0.893   0.935  12.807  0.3450 -0.1076  0.3700
16769TIP3    H171798   0.895   0.879  12.730 -1.3492  1.1956 -0.6927
16769TIP3    H271799   0.946   1.011  12.782 -1.1523  0.8514  0.0018
16770TIP3   OH271800   4.797   3.913   0.401 -0.3226  0.4769 -0.1637
16770TIP3    H171801   4.763   3.845   0.459  0.4447 -1.3410 -1.7546
16770TIP3    H271802   4.719   3.956   0.366 -0.8098  0.7259  1.1813
16771TIP3   OH271803   5.987   3.413  16.718  0.9342  0.2089  0.4563
16771TIP3    H171804   6.018   3.441  16.632 -0.8430 -0.4978 -0.4532
16771TIP3    H271805   5.974   3.494  16.766 -0.9714  0.8542 -1.0143
16772TIP3   OH271806   2.231   6.098  12.772  0.6494  0.1974 -0.1081
16772TIP3    H171807   2.232   6.067  12.862  0.1107  0.7983  0.1070
16772TIP3    H271808   2.308   6.058  12.732 -0.0876 -1.5555  0.1161
16773TIP3   OH271809   4.295   6.554  12.944  0.0992 -0.3611 -0.0568
16773TIP3    H171810   4.284   6.459  12.938 -1.2018 -0.2546  0.1745
16773TIP3    H271811   4.225   6.589  12.889  2.1432  0.4824 -2.2722
16774TIP3   OH271812   0.507   4.992  16.293  0.1531 -0.5331 -0.1917
16774TIP3    H171813   0.443   4.927  16.265 -0.6588  1.1662 -2.5777
16774TIP3    H271814   0.481   5.014  16.383 -0.7898 -1.9559 -0.0764
16775TIP3   OH271815   3.011   4.600  14.949  1.1563 -0.5851 -0.5137
16775TIP3    H171816   3.099   4.582  14.982  0.4647 -1.8678  0.6878
16775TIP3    H271817   2.959   4.525  14.976 -1.1696  1.6982  2.0117
16776TIP3   OH271818   2.164   6.115  14.647 -0.2932 -0.5816 -0.1374
16776TIP3    H171819   2.227   6.044  14.659 -0.2489 -0.5201 -0.0104
16776TIP3    H271820   2.087   6.072  14.608 -0.4143 -0.7666  0.2986
16777TIP3   OH271821   2.806   0.367   2.772  0.0106  0.2876 -0.5828
16777TIP3    H171822   2.838   0.427   2.839 -0.9166 -0.3160  0.4416
16777TIP3    H271823   2.719   0.400   2.749 -1.2398 -1.5024  1.2044
16778TIP3   OH271824   1.751   1.871   4.656  0.0393  0.3031 -0.5444
16778TIP3    H171825   1.837   1.905   4.631  0.6262  0.1673  1.1218
16778TIP3    H271826   1.708   1.944   4.700  0.2716 -0.2789  0.7199
16779TIP3   OH271827   1.685   4.288  11.222  0.2764 -0.1361 -0.3849
16779TIP3    H171828   1.656   4.362  11.169  0.9123 -0.8042 -1.6954
16779TIP3    H271829   1.714   4.223  11.159 -1.0507 -1.8653  0.7020
16780TIP3   OH271830   2.644   4.785  12.422  0.0540  0.2032  0.3145
16780TIP3    H171831   2.611   4.850  12.484  0.7671  1.0891 -0.2023
16780TIP3    H271832   2.636   4.828  12.337 -0.9340 -1.0011 -0.2354
16781TIP3   OH271833   2.921   1.753  14.272 -0.8710  0.1145  0.6355
16781TIP3    H171834   2.935   1.766  14.178 -0.3850 -2.2075  0.3268
16781TIP3    H271835   3.007   1.770  14.311 -0.8218  0.0922  0.5384
16782TIP3   OH271836   3.405   4.446   2.624  0.1132 -0.7332  0.4399
16782TIP3    H171837   3.324   4.463   2.673 -0.0562  0.3018 -0.1863
16782TIP3    H271838   3.379   4.385   2.555 -0.3375  0.2462 -0.2813
16783TIP3   OH271839   5.398   0.150   1.936  0.5018  0.2572  0.6635
16783TIP3    H171840   5.321   0.140   1.992 -0.4732  0.0256 -0.6411
16783TIP3    H271841   5.396   0.073   1.879  0.6658  1.1277 -0.5620
16784TIP3   OH271842   5.501   5.096   1.830 -0.4627 -0.1382 -0.0650
16784TIP3    H171843   5.525   5.173   1.882  0.4118 -0.5780  0.1911
16784TIP3    H271844   5.479   5.131   1.744  1.4953  0.2778 -0.4513
16785TIP3   OH271845   0.691   4.476  13.995 -0.3218  0.2059 -0.7458
16785TIP3    H171846   0.647   4.529  13.928 -2.3936 -0.0900  0.3071
16785TIP3    H271847   0.637   4.397  14.002  1.1973 -0.8568 -0.3615
16786TIP3   OH271848   5.370   0.350   3.462 -0.0530 -0.2722 -0.0311
16786TIP3    H171849   5.305   0.282   3.480  1.0953 -1.2322  0.6960
16786TIP3    H271850   5.444   0.327   3.517  1.1455  0.4319 -1.2734
16787TIP3   OH271851   0.836   3.932  13.736 -0.0499  0.2961 -0.1374
16787TIP3    H171852   0.864   3.960  13.823  0.0949 -1.6318  0.4870
16787TIP3    H271853   0.913   3.942  13.682  0.9208 -1.7277  0.7843
16788TIP3   OH271854   2.648   0.426   1.951 -0.0430 -0.0037 -0.2292
16788TIP3    H171855   2.617   0.502   1.903  0.3514 -0.6000 -1.4733
16788TIP3    H271856   2.732   0.453   1.989  0.5029 -0.0640 -1.3638
16789TIP3   OH271857   6.106   4.778  16.238  0.1943 -0.4046 -0.3172
16789TIP3    H171858   6.146   4.727  16.168  1.2112  0.4575 -0.3874
16789TIP3    H271859   6.092   4.864  16.200 -2.8094 -0.9263 -0.6484
16790TIP3   OH271860   4.915   3.981   2.928 -0.1327 -0.0474 -0.4942
16790TIP3    H171861   4.870   4.063   2.911 -1.7003 -0.5351  0.9773
16790TIP3    H271862   4.874   3.918   2.869  0.3896  0.0100 -0.9277
16791TIP3   OH271863   1.570   0.264   2.303 -0.5848  0.5105  0.7344
16791TIP3    H171864   1.597   0.275   2.394  2.7720  1.6219 -0.2296
16791TIP3    H271865   1.571   0.169   2.289  0.6721  0.3869  1.4558
16792TIP3   OH271866   5.044   4.487  13.338 -0.3029  0.1056 -0.7037
16792TIP3    H171867   5.102   4.429  13.288 -0.8835 -0.6121 -0.5529
16792TIP3    H271868   5.064   4.467  13.430  0.5563  1.2170 -0.6249
16793TIP3   OH271869   6.087   4.529  14.143 -0.8385 -0.2432  0.2695
16793TIP3    H171870   6.060   4.437  14.147 -1.9909  0.0750 -0.1395
16793TIP3    H271871   6.161   4.529  14.082  1.1082 -1.3287  2.4267
16794TIP3   OH271872   5.372   4.448   6.008 -0.1464  0.6034  0.3471
16794TIP3    H171873   5.405   4.524   6.055 -0.1385  0.8411 -0.0376
16794TIP3    H271874   5.451   4.401   5.980 -0.0938  1.5766 -1.2340
16795TIP3   OH271875   1.044   2.258  12.933  0.0573 -0.1063  0.7453
16795TIP3    H171876   1.089   2.195  12.989 -0.6095 -0.8875  0.4072
16795TIP3    H271877   1.050   2.222  12.845 -0.1009  0.4375  0.5039
16796TIP3   OH271878   6.144   3.351  16.419  0.2967 -0.1081  0.1160
16796TIP3    H171879   6.071   3.409  16.397  1.3270  1.4962  0.7286
16796TIP3    H271880   6.105   3.264  16.427 -1.3032  0.4878 -0.8708
16797TIP3   OH271881   3.389   5.831  15.940 -0.0056  0.8070 -0.1115
16797TIP3    H171882   3.414   5.765  15.876  1.5471  0.3917  0.8827
16797TIP3    H271883   3.420   5.798  16.023  0.1775  2.4616  0.5231
16798TIP3   OH271884   5.966   0.795  16.841  0.3682  0.5476 -0.2352
16798TIP3    H171885   6.049   0.779  16.797  0.7997 -0.5941  0.9273
16798TIP3    H271886   5.905   0.732  16.803  0.6156 -0.1061  0.4260
16799TIP3   OH271887   2.568   2.716  15.098 -0.0994 -0.0023  0.3034
16799TIP3    H171888   2.620   2.654  15.149  0.4761  0.5641  0.4130
16799TIP3    H271889   2.549   2.787  15.159 -2.1463 -0.7968  0.6642
16800TIP3   OH271890   3.431   3.599  12.115  0.9001  0.1919  0.4564
16800TIP3    H171891   3.407   3.536  12.182 -1.6886  0.6601  0.0838
16800TIP3    H271892   3.482   3.549  12.052 -0.2811 -1.3394  0.6522
16801TIP3   OH271893   0.337   5.281   3.621 -0.5731 -0.4736 -0.2623
16801TIP3    H171894   0.262   5.253   3.674  0.3672 -0.2069  1.2747
16801TIP3    H271895   0.299   5.313   3.540 -2.2019  0.5473  0.8553
16802TIP3   OH271896   6.462   4.456  14.357 -0.1144 -0.5073 -0.3237
16802TIP3    H171897   6.497   4.511  14.287  1.4791 -2.5072 -1.1916
16802TIP3    H271898   6.496   4.495  14.437 -0.9750  1.1166 -0.7070
16803TIP3   OH271899   3.458   5.317   0.886  0.1568 -0.6043 -0.8005
16803TIP3    H171900   3.442   5.409   0.906  0.1416 -0.5742 -0.9473
16803TIP3    H271901   3.385   5.292   0.830 -0.4003 -0.9949  0.0884
16804TIP3   OH271902   4.871   6.371   5.567  0.2664  0.0448  0.1048
16804TIP3    H171903   4.899   6.409   5.650  0.0813 -0.7448  0.5358
16804TIP3    H271904   4.777   6.355   5.578 -0.0326  1.0966 -0.7188
16805TIP3   OH271905   0.114   3.858  14.118 -0.0426  0.4230 -0.1919
16805TIP3    H171906   0.096   3.946  14.084 -2.0059  0.8568  1.7877
16805TIP3    H271907   0.042   3.804  14.085  0.2505 -0.0749 -0.0296
16806TIP3   OH271908   6.423   0.818  12.150 -0.0579  0.0190  0.0050
16806TIP3    H171909   6.495   0.758  12.130 -0.9223 -0.6991 -1.0481
16806TIP3    H271910   6.437   0.842  12.242  1.1856 -0.5637 -0.0080
16807TIP3   OH271911   3.527   3.366  13.509 -0.0030  0.2293 -0.2622
16807TIP3    H171912   3.504   3.278  13.479 -1.9696  0.7940 -0.6097
16807TIP3    H271913   3.484   3.425  13.446 -0.8263  1.4256  1.3280
16808TIP3   OH271914   2.318   4.265  11.501 -0.4218  0.3794 -0.5422
16808TIP3    H171915   2.229   4.282  11.533 -0.6701  0.3466 -1.1894
16808TIP3    H271916   2.322   4.311  11.417  0.8862  2.1745  0.4370
16809TIP3   OH271917   0.683   1.977   3.727  0.7606  0.2806 -0.2912
16809TIP3    H171918   0.779   1.980   3.722  0.7372  1.0849 -0.3733
16809TIP3    H271919   0.663   2.004   3.817  0.5919  0.6342 -0.4332
16810TIP3   OH271920   5.224   1.272  15.768 -0.3044  0.1492  0.3548
16810TIP3    H171921   5.158   1.223  15.718 -1.8781  0.8190  1.6699
16810TIP3    H271922   5.290   1.207  15.792 -1.5871 -1.0374  0.7968
16811TIP3   OH271923   3.763   4.315   3.486  0.7358 -0.3078  0.3387
16811TIP3    H171924   3.804   4.278   3.565 -0.8370 -2.1901  0.3678
16811TIP3    H271925   3.728   4.238   3.440 -1.5232  1.0314 -0.3363
16812TIP3   OH271926   6.311   4.941  13.062  0.0360  0.0416  0.1304
16812TIP3    H171927   6.355   5.023  13.039  1.0268  0.4226  2.9403
16812TIP3    H271928   6.361   4.873  13.017 -1.0878  0.9092 -2.6347
16813TIP3   OH271929   5.455   2.365   4.574 -0.2568  0.2176 -0.3625
16813TIP3    H171930   5.452   2.458   4.596  1.1801 -0.1454  1.6164
16813TIP3    H271931   5.500   2.324   4.647 -0.0635 -1.9358 -1.5912
16814TIP3   OH271932   4.742   2.420   1.511  0.0398  0.0899 -0.1634
16814TIP3    H171933   4.792   2.392   1.587 -0.5313 -0.2032  0.1162
16814TIP3    H271934   4.651   2.421   1.541  0.0090  2.1140 -0.1972
16815TIP3   OH271935   2.719   5.279   1.434  0.0558  0.2592 -0.5231
16815TIP3    H171936   2.787   5.323   1.485 -0.6697  2.3671 -1.2695
16815TIP3    H271937   2.767   5.224   1.372  1.0641  1.2095 -0.6075
16816TIP3   OH271938   2.111   3.553   4.789  0.1542 -0.3807  0.3048
16816TIP3    H171939   2.100   3.542   4.694 -0.0565 -0.2019  0.3107
16816TIP3    H271940   2.071   3.637   4.809  0.9963  0.0054  0.4126
16817TIP3   OH271941   1.683   1.502   0.524  0.6192  0.7974 -0.8107
16817TIP3    H171942   1.613   1.558   0.557 -0.4926 -0.5947 -0.7388
16817TIP3    H271943   1.761   1.531   0.571 -0.7484 -0.6624  2.6640
16818TIP3   OH271944   4.621   2.301   4.448 -0.1415 -0.0596 -0.1414
16818TIP3    H171945   4.548   2.256   4.404 -1.0984  0.6462  0.6882
16818TIP3    H271946   4.647   2.370   4.386 -0.5664  0.0572 -0.1907
16819TIP3   OH271947   6.015   4.777   1.463  0.1379  1.0502  0.2633
16819TIP3    H171948   6.103   4.807   1.440  0.1250  0.1176 -1.1402
16819TIP3    H271949   5.980   4.740   1.382 -2.3945  3.2910  0.1996
16820TIP3   OH271950   0.406   1.349   4.970  0.7035 -0.3505 -0.1081
16820TIP3    H171951   0.374   1.269   4.929  1.1190 -0.7814  0.3837
16820TIP3    H271952   0.455   1.318   5.047 -1.1994  0.4569  1.5139
16821TIP3   OH271953   5.565   5.052  14.082  0.0798  0.6425  0.3941
16821TIP3    H171954   5.562   5.007  13.998 -0.3433  0.5095  0.4783
16821TIP3    H271955   5.645   5.105  14.079  0.3722  0.1894  0.1378
16822TIP3   OH271956   4.689   5.587   3.832  0.1531 -0.2225 -0.2708
16822TIP3    H171957   4.725   5.546   3.911  2.4794 -0.7334 -1.5213
16822TIP3    H271958   4.658   5.514   3.779 -3.7967  0.2125  1.0934
16823TIP3   OH271959   5.469   5.640   5.305 -0.2942  0.3868  0.2049
16823TIP3    H171960   5.541   5.696   5.333  1.8464 -1.2964 -1.5881
16823TIP3    H271961   5.455   5.581   5.379 -0.2724  1.1293  0.8101
16824TIP3   OH271962   0.869   4.447  15.106 -0.2209  0.1046  0.3857
16824TIP3    H171963   0.896   4.538  15.118 -0.3959  0.3544 -0.9170
16824TIP3    H271964   0.827   4.446  15.020 -0.8886 -1.0626  0.7062
16825TIP3   OH271965   1.945   3.853   0.145  0.3691  0.5172  0.0317
16825TIP3    H171966   1.894   3.819   0.071  0.6225 -0.5772  0.3389
16825TIP3    H271967   1.884   3.849   0.219 -0.0929  2.2141 -0.2149
16826TIP3   OH271968   3.816   1.040   3.651 -0.0120 -0.3569  0.5407
16826TIP3    H171969   3.862   1.053   3.568  0.8373 -1.6273  0.7726
16826TIP3    H271970   3.724   1.056   3.630  0.1411 -0.9767 -0.7457
16827TIP3   OH271971   3.520   3.151  12.098  0.7803 -0.3261 -0.5164
16827TIP3    H171972   3.463   3.089  12.143 -1.2694  0.9707 -1.1830
16827TIP3    H271973   3.515   3.127  12.006 -0.5892  1.1413 -0.8818
16828TIP3   OH271974   4.666   1.849   4.220  0.9844 -0.6632  0.3947
16828TIP3    H171975   4.709   1.770   4.252  1.7290 -1.3441 -2.0654
16828TIP3    H271976   4.628   1.823   4.136 -1.5724  0.7741  1.0066
16829TIP3   OH271977   2.989   0.120   2.708 -0.5999 -0.1521  0.0321
16829TIP3    H171978   3.003   0.198   2.762  0.5380 -0.3195  0.0043
16829TIP3    H271979   2.973   0.154   2.620 -0.8507  0.0701  0.1624
16830TIP3   OH271980   4.712   1.469  16.776  0.2654 -0.6087  0.1686
16830TIP3    H171981   4.773   1.500  16.843  0.1522 -1.7578  0.8442
16830TIP3    H271982   4.655   1.407  16.823 -1.4135  0.4116 -0.4509
16831TIP3   OH271983   6.100   3.751  16.743  0.3788 -0.9951 -0.1928
16831TIP3    H171984   6.148   3.695  16.681 -0.1675 -1.5910 -0.0912
16831TIP3    H271985   6.093   3.698  16.822 -0.4487 -0.9142 -0.2118
16832TIP3   OH271986   0.706   4.073   1.116  0.7122  0.4391 -0.1229
16832TIP3    H171987   0.691   4.152   1.063 -1.8096  0.2075  0.1453
16832TIP3    H271988   0.734   4.007   1.052 -2.2887  0.1581 -1.3146
16833TIP3   OH271989   5.600   4.934   2.515 -0.2140 -0.4844 -0.1684
16833TIP3    H171990   5.652   5.010   2.488  0.8941 -1.8177 -2.0697
16833TIP3    H271991   5.586   4.946   2.609  3.7969 -0.1570  0.5745
16834TIP3   OH271992   0.013   1.208   3.370 -0.0810 -0.2458  0.4193
16834TIP3    H171993   0.089   1.188   3.315  0.9260 -0.3395  1.7983
16834TIP3    H271994   0.044   1.274   3.432 -1.6798  1.1675 -0.1907
16835TIP3   OH271995   1.804   3.800  11.710  0.4775  0.0298  0.1495
16835TIP3    H171996   1.789   3.809  11.616 -0.5246 -2.2976  0.0032
16835TIP3    H271997   1.891   3.761  11.717 -1.0974 -4.0455 -0.2242
16836TIP3   OH271998   0.622   4.121   4.324  0.2729 -0.3244 -0.1210
16836TIP3    H171999   0.589   4.108   4.414 -0.5754  1.0041 -0.2081
16836TIP3    H272000   0.691   4.187   4.333  1.1484 -1.2040 -0.2821
16837TIP3   OH272001   1.216   0.176   2.647  0.0506  0.1165  0.1809
16837TIP3    H172002   1.162   0.181   2.568 -1.1246  1.1293  1.0199
16837TIP3    H272003   1.153   0.161   2.718  1.2714 -4.4047  0.6561
16838TIP3   OH272004   0.445   3.936   6.035  0.3585  0.3896 -0.2816
16838TIP3    H172005   0.376   3.873   6.017  0.7073 -0.6191  1.6602
16838TIP3    H272006   0.445   3.946   6.130  1.7974  1.6261 -0.3679
16839TIP3   OH272007   1.211   1.975  16.187 -0.1743 -0.2265  1.0864
16839TIP3    H172008   1.160   1.895  16.172 -1.6069  0.5244  1.6998
16839TIP3    H272009   1.204   2.022  16.103 -0.2371 -0.2672  1.0673
16840TIP3   OH272010   5.637   5.790  15.399 -0.0261 -0.1538  0.3002
16840TIP3    H172011   5.692   5.834  15.464 -0.2983  0.4114  0.1476
16840TIP3    H272012   5.666   5.699  15.402  0.0195 -0.1225  1.1637
16841TIP3   OH272013   3.389   1.814   0.982  0.1829 -0.3669  0.0330
16841TIP3    H172014   3.306   1.801   1.029  1.4024 -0.8261  2.1816
16841TIP3    H272015   3.375   1.892   0.930 -1.3013  0.1358  1.1109
16842TIP3   OH272016   4.107   4.145   2.315 -0.0125 -0.7293 -0.2744
16842TIP3    H172017   4.104   4.180   2.404 -1.7313  0.5916 -0.7963
16842TIP3    H272018   4.192   4.102   2.309  0.6415  0.1978  1.6099
16843TIP3   OH272019   5.289   1.774   3.298  0.1052  0.2684 -0.6614
16843TIP3    H172020   5.354   1.709   3.325 -1.2407 -1.0432 -0.3583
16843TIP3    H272021   5.327   1.817   3.221  1.2502 -0.5485 -0.5785
16844TIP3   OH272022   3.959   0.196   4.639 -0.1981 -0.9028  0.2105
16844TIP3    H172023   3.878   0.217   4.592  0.6026 -0.2506 -0.9357
16844TIP3    H272024   3.955   0.248   4.719 -0.9128 -0.8890  0.1697
16845TIP3   OH272025   1.709   3.843  16.531 -0.1003 -0.3266 -0.5816
16845TIP3    H172026   1.695   3.856  16.437 -0.0630 -2.3710 -0.9105
16845TIP3    H272027   1.718   3.749  16.541  2.5740 -0.0067  1.1196
16846TIP3   OH272028   3.977   5.158   2.814  0.2845  0.6093  0.0279
16846TIP3    H172029   3.930   5.187   2.736  0.3826  0.0318 -0.2463
16846TIP3    H272030   3.916   5.174   2.886 -1.1659 -1.9883 -0.5124
16847TIP3   OH272031   3.242   5.990   2.057 -0.2204  0.0754  0.2836
16847TIP3    H172032   3.184   5.973   2.131 -1.3311  0.2706 -0.5315
16847TIP3    H272033   3.192   5.964   1.980  0.9751 -0.2611 -0.4070
16848TIP3   OH272034   0.580   2.904   4.820  0.6772  0.2950 -0.4152
16848TIP3    H172035   0.595   2.997   4.836 -0.0710  0.5795 -1.2525
16848TIP3    H272036   0.655   2.876   4.768  0.0884  0.8463 -1.5889
16849TIP3   OH272037   6.341   2.407  12.182  0.6093  0.3144  0.9219
16849TIP3    H172038   6.271   2.465  12.153  0.0961 -0.7010  0.0671
16849TIP3    H272039   6.323   2.324  12.138  2.4537  0.0812  0.5459
16850TIP3   OH272040   5.180   3.528   0.581 -0.9979 -0.1809  0.4423
16850TIP3    H172041   5.131   3.573   0.512 -0.3713 -0.4513 -0.1877
16850TIP3    H272042   5.145   3.439   0.581  1.1805 -1.1554 -1.7830
16851TIP3   OH272043   6.167   2.235  12.757  0.0823 -0.6292  0.2477
16851TIP3    H172044   6.253   2.199  12.733  0.2222 -0.1580  0.0326
16851TIP3    H272045   6.183   2.328  12.771 -0.3673 -0.5670  0.3654
16852TIP3   OH272046   2.968   4.787  12.309 -0.1307  0.4361  0.0720
16852TIP3    H172047   2.932   4.850  12.372 -0.6369 -0.1030  0.3271
16852TIP3    H272048   2.892   4.750  12.265 -0.1207 -2.2475  2.0853
16853TIP3   OH272049   1.894   4.480   2.368 -0.4201  0.4329  0.5644
16853TIP3    H172050   1.922   4.398   2.327  0.0363 -0.2621  2.1763
16853TIP3    H272051   1.975   4.517   2.405 -0.5107  1.9476 -0.6429
16854TIP3   OH272052   3.562   3.271   1.782  0.1522  0.1239 -0.1981
16854TIP3    H172053   3.641   3.218   1.792  1.8532  2.7021  1.0651
16854TIP3    H272054   3.545   3.271   1.688  1.8728 -0.2201 -0.5510
16855TIP3   OH272055   0.373   6.182  10.904 -0.6776 -0.3293 -0.2420
16855TIP3    H172056   0.455   6.148  10.869  0.7771  0.8167  1.8429
16855TIP3    H272057   0.369   6.272  10.871  0.0937  0.3532  1.3824
16856TIP3   OH272058   2.111   5.945  11.106  0.0371 -0.1054 -0.1003
16856TIP3    H172059   2.084   6.035  11.088  1.2974  0.5896  1.3139
16856TIP3    H272060   2.139   5.946  11.198  2.9313 -1.2294 -0.8792
16857TIP3   OH272061   3.661   1.686  13.043  0.6205 -0.2135  0.2579
16857TIP3    H172062   3.696   1.611  13.091  1.2277  0.6102  1.1125
16857TIP3    H272063   3.736   1.721  12.994 -0.2141 -1.7661 -2.3445
16858TIP3   OH272064   2.817   2.755   4.623  0.6653 -0.0654  0.1601
16858TIP3    H172065   2.865   2.831   4.591 -0.5053  1.0493  0.9627
16858TIP3    H272066   2.834   2.753   4.717 -1.0491  0.5565  0.5308
16859TIP3   OH272067   5.134   0.668  17.183  0.2885 -0.0709 -0.2352
16859TIP3    H172068   5.132   0.761  17.203  0.4905  0.2060 -1.4416
16859TIP3    H272069   5.109   0.662  17.091  1.6403 -1.0834 -0.5698
16860TIP3   OH272070   6.128   4.842  11.988  0.2255 -0.2466 -0.0792
16860TIP3    H172071   6.079   4.883  12.059 -1.0556 -1.6752 -0.0881
16860TIP3    H272072   6.191   4.785  12.032  0.1353 -0.3461 -0.0789
16861TIP3   OH272073   6.710   2.329   4.235  0.3036 -0.0664  0.4118
16861TIP3    H172074   6.651   2.377   4.294 -1.3070  1.6985 -2.4170
16861TIP3    H272075   6.687   2.237   4.248  0.2598  0.2044  2.7191
16862TIP3   OH272076   0.330   3.919   1.970 -0.7704  0.7751  0.1875
16862TIP3    H172077   0.234   3.921   1.971 -0.8694 -0.4111 -1.7970
16862TIP3    H272078   0.354   3.904   2.061 -2.4741  0.7526  0.6837
16863TIP3   OH272079   2.354   0.616   0.888 -0.6123  0.3764 -0.2415
16863TIP3    H172080   2.402   0.689   0.927 -0.2980  0.0384  0.0015
16863TIP3    H272081   2.296   0.586   0.958 -0.3995  0.0831 -0.1944
16864TIP3   OH272082   5.309   3.533   4.780 -0.5056 -0.4224  0.5795
16864TIP3    H172083   5.277   3.541   4.870  2.4787 -1.0972  1.8517
16864TIP3    H272084   5.294   3.441   4.757 -1.3972 -0.2158  0.3072
16865TIP3   OH272085   4.754   2.256   3.846  0.1568  0.5805  0.1517
16865TIP3    H172086   4.768   2.208   3.927  0.3051  1.6362  0.7635
16865TIP3    H272087   4.761   2.190   3.777 -1.2114 -0.5572  1.0677
16866TIP3   OH272088   5.507   0.637   2.604  0.0059 -0.0019  0.0817
16866TIP3    H172089   5.576   0.703   2.595  0.6722 -0.8410 -1.5631
16866TIP3    H272090   5.476   0.623   2.514 -1.2416 -0.7557  0.6045
16867TIP3   OH272091   5.241   5.377   4.512 -0.1701 -0.2979 -0.1233
16867TIP3    H172092   5.221   5.317   4.583  0.0770  0.2149  0.3811
16867TIP3    H272093   5.276   5.455   4.554  0.3415 -0.1313 -0.8234
16868TIP3   OH272094   2.504   0.390  15.709  0.3091  0.1610  0.2375
16868TIP3    H172095   2.540   0.310  15.747  0.2461  0.0392  0.0424
16868TIP3    H272096   2.457   0.433  15.781 -0.7838 -0.6330  0.0183
16869TIP3   OH272097   4.905   0.586  14.390  0.4550  0.4836  0.5030
16869TIP3    H172098   4.864   0.528  14.454  0.7234  0.4323  0.6282
16869TIP3    H272099   4.840   0.654  14.373 -0.8433 -1.1193 -1.4283
16870TIP3   OH272100   0.211   0.847  16.315  0.2284  0.4169  0.3355
16870TIP3    H172101   0.203   0.909  16.242  1.1378 -0.8823 -0.9249
16870TIP3    H272102   0.274   0.887  16.374  1.1537  0.5068 -0.6869
16871TIP3   OH272103   6.781   0.545   5.235 -0.1213  0.0424 -0.1172
16871TIP3    H172104   6.828   0.614   5.283  2.8635 -1.5076 -0.5596
16871TIP3    H272105   6.745   0.590   5.158  0.2011  1.4377  0.5124
16872TIP3   OH272106   4.787   3.685   4.222 -0.3612 -0.3357  0.3325
16872TIP3    H172107   4.880   3.679   4.244  0.0783 -0.7309 -1.4055
16872TIP3    H272108   4.762   3.774   4.247  0.7699  0.1287 -0.1085
16873TIP3   OH272109   3.994   4.222  16.092 -0.1966  0.1878  0.9370
16873TIP3    H172110   3.912   4.172  16.098 -0.6791  0.8963  0.4099
16873TIP3    H272111   4.051   4.169  16.037 -0.9723  0.5537 -0.2526
16874TIP3   OH272112   0.571   1.017   0.055  0.1899  0.7423  0.5269
16874TIP3    H172113   0.506   0.949   0.071 -0.9394  1.3946 -1.0275
16874TIP3    H272114   0.654   0.970   0.048 -0.8060 -0.8474 -2.6162
16875TIP3   OH272115   0.124   0.280   5.697  0.4757  0.4387  0.1129
16875TIP3    H172116   0.165   0.196   5.717  0.1648  0.3432  0.3483
16875TIP3    H272117   0.039   0.277   5.741 -0.0790  0.3678 -0.9489
16876TIP3   OH272118   1.004   0.794   5.798 -0.1684 -0.0388  0.1118
16876TIP3    H172119   0.915   0.778   5.767 -0.2176  1.5490 -0.6862
16876TIP3    H272120   0.997   0.878   5.845  1.1445  0.7679 -1.0839
16877TIP3   OH272121   1.539   4.300  14.533 -0.0087  0.4443  0.5563
16877TIP3    H172122   1.538   4.393  14.512  1.0624 -0.0560 -2.1425
16877TIP3    H272123   1.547   4.256  14.448  0.0876 -2.0956  1.7721
16878TIP3   OH272124   0.676   1.576  11.220 -0.3059  0.5221 -0.6266
16878TIP3    H172125   0.765   1.561  11.189  0.1612  3.0542 -0.7605
16878TIP3    H272126   0.632   1.617  11.145 -0.9894  1.0693  0.0630
16879TIP3   OH272127   0.334   0.326   4.879 -1.0026  0.1888  0.1275
16879TIP3    H172128   0.371   0.252   4.829  0.3421 -1.4042  3.1894
16879TIP3    H272129   0.339   0.400   4.818  1.4663 -1.3499 -1.7828
16880TIP3   OH272130   1.331   0.194  15.293 -0.2974  0.1065 -0.4122
16880TIP3    H172131   1.386   0.272  15.294  0.2430 -0.2741  0.4284
16880TIP3    H272132   1.339   0.160  15.204  0.8396  0.0518 -0.2966
16881TIP3   OH272133   0.732   2.687   2.891  0.5840  0.4287  0.1445
16881TIP3    H172134   0.661   2.656   2.835 -0.2884  1.7198  0.4794
16881TIP3    H272135   0.807   2.632   2.868 -0.4958 -0.9331 -0.2656
16882TIP3   OH272136   0.029   3.709   2.886  0.8837 -0.4742 -0.3982
16882TIP3    H172137  -0.062   3.689   2.864  0.4683  1.8306 -1.0435
16882TIP3    H272138   0.052   3.646   2.955 -1.1370 -1.1592 -0.2872
16883TIP3   OH272139   5.679   0.167  12.857 -0.4036  0.2598  0.3453
16883TIP3    H172140   5.741   0.095  12.848  0.8757  1.1987  1.3441
16883TIP3    H272141   5.632   0.149  12.938  2.9940  2.6645  3.1485
16884TIP3   OH272142   3.055   5.997   5.964  0.4894  0.0210 -0.4091
16884TIP3    H172143   3.034   6.054   5.891  2.8077 -0.3300 -1.4311
16884TIP3    H272144   3.056   6.055   6.041 -3.8013  0.0912 -0.1502
16885TIP3   OH272145   3.112   4.521   1.103 -0.0426 -0.3362 -0.1273
16885TIP3    H172146   3.066   4.440   1.125  0.5791 -0.5231  0.5581
16885TIP3    H272147   3.195   4.492   1.064  1.3574 -0.1434  2.4787
16886TIP3   OH272148   6.795   3.928   4.467  0.3016  0.9992  0.0140
16886TIP3    H172149   6.773   3.911   4.559  0.2259  0.4922 -0.0954
16886TIP3    H272150   6.747   3.862   4.418 -0.5390  1.9611 -0.4880
16887TIP3   OH272151   0.508   1.416  16.592 -0.2634 -0.0873 -0.3248
16887TIP3    H172152   0.454   1.398  16.515  0.5138 -0.1743 -0.8550
16887TIP3    H272153   0.533   1.507  16.584 -1.8259  0.5156  0.8901
16888TIP3   OH272154   0.995   0.564  14.649 -0.2010  0.0403  0.3552
16888TIP3    H172155   1.039   0.607  14.576  0.2152  1.1667  1.2414
16888TIP3    H272156   1.061   0.562  14.719 -0.7244 -0.6355  0.8451
16889TIP3   OH272157   5.858   0.508  14.422  0.0708  0.3406  0.0231
16889TIP3    H172158   5.939   0.478  14.463  0.5095 -0.0139 -1.0504
16889TIP3    H272159   5.800   0.529  14.495  0.4581 -1.2313  0.8238
16890TIP3   OH272160   2.788   3.738  15.751  0.1272  0.4263 -0.1602
16890TIP3    H172161   2.769   3.646  15.731 -0.9599  0.0092  2.3994
16890TIP3    H272162   2.710   3.785  15.724  0.5163  0.5468 -1.0883
16891TIP3   OH272163   6.091   5.138  16.395 -1.0395  0.2901  0.6103
16891TIP3    H172164   6.000   5.161  16.377 -1.7092 -2.8551 -0.6051
16891TIP3    H272165   6.122   5.097  16.315  1.3393  0.7971  1.1859
16892TIP3   OH272166   3.594   6.205   3.753 -0.0104  0.5208  0.0629
16892TIP3    H172167   3.659   6.206   3.683  1.8664  0.3285  1.7008
16892TIP3    H272168   3.559   6.116   3.751 -0.5340  0.7359 -1.0826
16893TIP3   OH272169   3.337   5.442   0.315  0.0941 -0.0212  0.8089
16893TIP3    H172170   3.380   5.475   0.236  1.2445  0.4496  1.6068
16893TIP3    H272171   3.268   5.384   0.282  0.1314  0.6645 -0.5465
16894TIP3   OH272172   6.344   0.373   5.325 -0.0514 -0.6755  0.0295
16894TIP3    H172173   6.325   0.299   5.383 -0.1013 -1.6271 -1.1697
16894TIP3    H272174   6.439   0.386   5.334  0.0383 -1.1942 -0.0880
16895TIP3   OH272175   5.232   1.996  13.404  0.4826  0.4605  0.5215
16895TIP3    H172176   5.269   1.929  13.461 -1.3632  1.7634  3.5095
16895TIP3    H272177   5.140   2.002  13.429  0.2433  3.1128 -0.5925
16896TIP3   OH272178   3.854   1.405  11.376  0.2958 -0.4454  0.1369
16896TIP3    H172179   3.834   1.495  11.352 -1.5246 -0.8745 -0.1045
16896TIP3    H272180   3.865   1.360  11.292 -0.4360 -0.7786  0.2151
16897TIP3   OH272181   6.674   4.765   6.156 -0.3041 -0.0194 -0.5978
16897TIP3    H172182   6.637   4.833   6.212 -0.9147 -0.0704 -0.9351
16897TIP3    H272183   6.625   4.686   6.178  0.6991 -0.4680  0.1127
16898TIP3   OH272184   0.235   1.186   3.132  0.6740 -0.1048 -0.4251
16898TIP3    H172185   0.188   1.218   3.054 -0.0020 -0.5862 -0.2269
16898TIP3    H272186   0.309   1.137   3.096  1.3073  1.0369 -0.7374
16899TIP3   OH272187   3.629   6.001  15.663 -0.3645  0.2123 -0.2849
16899TIP3    H172188   3.540   5.976  15.639 -1.0500  1.8361  0.3927
16899TIP3    H272189   3.633   6.095  15.646  1.5851 -0.0012 -1.3000
16900TIP3   OH272190   1.501   3.481  15.363 -0.6423  0.0735  0.0142
16900TIP3    H172191   1.520   3.388  15.356  0.7058  0.2223  1.1518
16900TIP3    H272192   1.414   3.486  15.402 -0.2040 -0.7311  1.1387
16901TIP3   OH272193   1.686   0.248  12.335 -0.6814 -0.2963  0.2404
16901TIP3    H172194   1.737   0.313  12.383 -0.6532 -0.0009 -0.1925
16901TIP3    H272195   1.726   0.164  12.359  0.0326 -0.0649 -0.1249
16902TIP3   OH272196   3.497   3.889   2.437  0.2145 -0.2310 -0.2886
16902TIP3    H172197   3.542   3.970   2.461 -0.4820 -0.3092  1.4441
16902TIP3    H272198   3.442   3.913   2.363  1.0455  0.5198 -0.6850
16903TIP3   OH272199   2.583   0.067  15.133 -0.2516 -0.0311 -0.4347
16903TIP3    H172200   2.531   0.138  15.093  0.6283  0.7410 -0.2560
16903TIP3    H272201   2.605   0.100  15.220 -2.4001 -1.8194  0.8856
16904TIP3   OH272202   2.048   2.011  11.545  0.3511 -0.4149  0.0849
16904TIP3    H172203   1.996   2.032  11.622 -0.1195 -2.1515  0.2806
16904TIP3    H272204   2.096   2.092  11.526 -1.0267  0.6675  0.9807
16905TIP3   OH272205   0.384   0.391   3.784  0.2207  0.2114 -0.5264
16905TIP3    H172206   0.353   0.321   3.727  0.7627  1.5705 -2.5676
16905TIP3    H272207   0.313   0.403   3.848 -0.8336 -0.6961 -1.4934
16906TIP3   OH272208   5.706   0.392  13.550  0.2740  0.5592 -0.5103
16906TIP3    H172209   5.734   0.317  13.603 -1.6107  0.2717  0.1469
16906TIP3    H272210   5.749   0.467  13.592 -0.6105  0.2483  1.0596
16907TIP3   OH272211   4.747   4.105  15.701  0.5437  0.2990 -0.4267
16907TIP3    H172212   4.810   4.042  15.666  0.4041  0.7974 -1.6370
16907TIP3    H272213   4.713   4.064  15.781  0.9798 -0.8295 -0.7985
16908TIP3   OH272214   4.563   3.375   0.759  0.6116  0.6792  0.5520
16908TIP3    H172215   4.553   3.442   0.826 -0.8962 -0.2630  1.3342
16908TIP3    H272216   4.653   3.344   0.769  1.3419  2.5501  0.1590
16909TIP3   OH272217   0.098   4.675   6.055 -0.2480  0.2936 -0.0499
16909TIP3    H172218   0.090   4.622   5.976  0.2970  0.4771 -0.2343
16909TIP3    H272219   0.008   4.696   6.080 -0.4058  1.8807 -1.7454
16910TIP3   OH272220   4.938   3.401  12.085  0.1744  0.3359 -0.0236
16910TIP3    H172221   4.848   3.431  12.069  0.6272  1.7029 -0.1434
16910TIP3    H272222   4.927   3.319  12.132 -1.1454 -0.3756 -1.4737
16911TIP3   OH272223   3.175   1.426  12.178  0.0747 -0.3749 -0.1449
16911TIP3    H172224   3.140   1.433  12.267  0.6127 -1.0501  0.1197
16911TIP3    H272225   3.163   1.335  12.154 -1.9969  0.1961 -1.5820
16912TIP3   OH272226   5.421   6.657  13.663 -0.0532  0.3657 -0.3896
16912TIP3    H172227   5.448   6.659  13.755 -2.0425  1.3986  0.2347
16912TIP3    H272228   5.395   6.567  13.647 -1.5530  0.5702  0.6886
16913TIP3   OH272229   6.146   0.674  13.104  0.5891 -0.0053  0.4806
16913TIP3    H172230   6.201   0.610  13.149  0.9341  0.2214  0.3895
16913TIP3    H272231   6.199   0.754  13.104  0.6882 -0.0559 -0.5228
16914TIP3   OH272232   3.292   5.421  11.765 -0.5660 -0.2527  0.3897
16914TIP3    H172233   3.260   5.511  11.770 -1.2616 -0.3551 -1.3816
16914TIP3    H272234   3.225   5.369  11.810 -2.0454 -0.2488 -1.6683
16915TIP3   OH272235   2.090   3.855  13.867  0.0652  0.4543  0.5062
16915TIP3    H172236   2.142   3.775  13.858 -2.3021 -1.1282  0.0005
16915TIP3    H272237   2.059   3.854  13.957  2.9902  2.8897  1.7452
16916TIP3   OH272238   3.808   0.962   4.589  0.4374  0.1282 -0.1222
16916TIP3    H172239   3.885   0.996   4.635 -0.2617  0.6345  0.6875
16916TIP3    H272240   3.734   0.992   4.640 -0.3391  0.1035 -1.1937
16917TIP3   OH272241   4.895   4.232   6.148  0.2912  0.1703  1.2057
16917TIP3    H172242   4.967   4.182   6.186 -0.7821 -1.1742  1.5772
16917TIP3    H272243   4.872   4.297   6.214  1.6130  1.0922  0.7820
16918TIP3   OH272244   3.144   2.229  15.712 -0.5337  0.1074  0.3182
16918TIP3    H172245   3.052   2.211  15.698 -0.2421 -0.1554 -1.4779
16918TIP3    H272246   3.190   2.156  15.669  0.5651  2.4256 -2.7853
16919TIP3   OH272247   1.074   0.206  15.382  0.1704 -0.4700 -0.2928
16919TIP3    H172248   1.164   0.214  15.350  0.0682  1.5858 -0.1796
16919TIP3    H272249   1.068   0.269  15.453 -1.8997  0.9327 -1.5987
16920TIP3   OH272250   6.433   3.797  10.835  0.4248  0.0384  0.5013
16920TIP3    H172251   6.499   3.855  10.874  0.6035 -1.4202  2.5813
16920TIP3    H272252   6.478   3.713  10.826 -0.4722 -0.3728 -0.2788
16921TIP3   OH272253   2.206   3.386  11.640 -0.4893 -0.4681  0.0289
16921TIP3    H172254   2.239   3.368  11.552 -0.6436 -3.1291  0.4414
16921TIP3    H272255   2.283   3.376  11.696 -0.5518  0.4846  0.3049
16922TIP3   OH272256   3.935   0.877  13.556 -0.3988  0.2395  0.3761
16922TIP3    H172257   4.010   0.883  13.498  0.3916  1.3035  1.4416
16922TIP3    H272258   3.965   0.823  13.629 -1.3457 -1.0130 -0.1264
16923TIP3   OH272259   5.771   4.303   0.322 -0.4149  0.0374  0.5626
16923TIP3    H172260   5.803   4.249   0.395 -1.3033 -1.6862 -0.2588
16923TIP3    H272261   5.687   4.337   0.352 -0.9978 -1.0444  0.2184
16924TIP3   OH272262   0.417   5.547   1.197 -0.1119 -0.3279  0.3962
16924TIP3    H172263   0.369   5.602   1.135 -0.0977  0.6711  1.2328
16924TIP3    H272264   0.362   5.548   1.276 -0.5231 -2.2057  0.1788
16925TIP3   OH272265   5.956   2.625   2.196 -0.2122 -0.0995  0.3914
16925TIP3    H172266   5.958   2.529   2.194 -0.3552 -0.0961 -0.8961
16925TIP3    H272267   6.034   2.651   2.147 -1.5504  0.3926 -1.5943
16926TIP3   OH272268   0.881   4.627   0.468  0.7022  0.0078 -0.1314
16926TIP3    H172269   0.799   4.606   0.424  0.9894  1.7403 -1.6136
16926TIP3    H272270   0.919   4.697   0.415  3.2904 -0.9415  0.3424
16927TIP3   OH272271   4.443   5.920  11.967 -0.2895 -0.2317  0.0514
16927TIP3    H172272   4.497   5.976  12.023 -0.6024 -0.2590  0.3834
16927TIP3    H272273   4.387   5.872  12.028  0.8919 -1.9166 -0.1112
16928TIP3   OH272274   4.163   2.899   4.328  0.6837 -0.0045 -0.1245
16928TIP3    H172275   4.189   2.967   4.391 -0.3570  0.2699  0.0189
16928TIP3    H272276   4.240   2.889   4.271  0.4531  2.1952 -0.9263
16929TIP3   OH272277   0.402   1.788   5.738 -0.3056  0.3380  0.2310
16929TIP3    H172278   0.306   1.779   5.741 -0.3013  0.5595  1.8317
16929TIP3    H272279   0.423   1.845   5.812  1.1627 -0.6095  0.5867
16930TIP3   OH272280   4.339   2.760   3.895  0.2726  0.0091 -0.0045
16930TIP3    H172281   4.335   2.665   3.886 -1.5691  0.0838 -0.4139
16930TIP3    H272282   4.431   2.779   3.911  0.8304 -1.7552 -0.8942
16931TIP3   OH272283   2.969   4.502  16.261 -0.4618 -0.3238  0.1451
16931TIP3    H172284   2.990   4.580  16.211 -1.1879  0.2222  0.6616
16931TIP3    H272285   3.010   4.516  16.346 -1.7403  0.1580  0.7168
16932TIP3   OH272286   5.745   2.005   0.780  0.5661 -0.2572  0.2318
16932TIP3    H172287   5.690   1.934   0.811 -1.1984  0.5481 -0.8921
16932TIP3    H272288   5.831   1.987   0.818 -0.5279 -1.3609  2.3688
16933TIP3   OH272289   4.287   3.381   5.224 -0.1390 -0.6205 -0.6917
16933TIP3    H172290   4.368   3.381   5.173  0.0840 -2.1619 -0.3624
16933TIP3    H272291   4.272   3.289   5.246 -2.5939 -0.5468 -1.7213
16934TIP3   OH272292   4.176   5.595   5.010  0.2540 -0.2539 -0.1266
16934TIP3    H172293   4.123   5.528   4.965 -1.2340  0.4445  0.5093
16934TIP3    H272294   4.179   5.565   5.101 -0.6286  0.6261  0.2165
16935TIP3   OH272295   3.038   0.677  11.468  0.1301  0.9161  0.0631
16935TIP3    H172296   3.001   0.716  11.388  1.1111 -0.7150 -1.2524
16935TIP3    H272297   3.133   0.677  11.453  0.2581 -0.4114  0.7544
16936TIP3   OH272298   1.908   5.340  15.387 -0.2932  0.2422 -0.0962
16936TIP3    H172299   1.909   5.423  15.338 -1.8769  0.1473 -0.3240
16936TIP3    H272300   1.883   5.366  15.476  0.0516  0.0952  0.0460
16937TIP3   OH272301   0.688   1.379   0.301 -0.3363  0.2653 -0.2908
16937TIP3    H172302   0.627   1.381   0.375 -2.1588  0.1132 -1.7025
16937TIP3    H272303   0.643   1.328   0.234  0.7413  1.3328 -1.9232
16938TIP3   OH272304   0.834   4.149   4.759  0.7914 -0.4731  0.7382
16938TIP3    H172305   0.910   4.206   4.769 -0.1376  0.5882  2.3100
16938TIP3    H272306   0.808   4.128   4.849 -2.2532  1.3278  0.4424
16939TIP3   OH272307   0.379   0.210  13.073 -0.3839  0.4196  0.1837
16939TIP3    H172308   0.335   0.289  13.042 -0.0072 -0.7640 -3.9307
16939TIP3    H272309   0.463   0.241  13.106 -1.0161  1.8764  0.5185
16940TIP3   OH272310   2.979   4.885  17.229  0.8069 -0.2307  0.2686
16940TIP3    H172311   3.017   4.952  17.173  1.5258 -0.7406  0.1232
16940TIP3    H272312   2.956   4.931  17.309  0.6549  0.3195 -0.0846
16941TIP3   OH272313   6.107   6.020  15.593 -0.3520  0.2907  0.4122
16941TIP3    H172314   6.181   6.032  15.534 -1.6222  0.6163 -1.1832
16941TIP3    H272315   6.142   5.969  15.666  1.3952  0.3208 -0.3637
16942TIP3   OH272316   3.764   2.597   5.973  0.2454  0.1919  0.2727
16942TIP3    H172317   3.846   2.549   5.984 -0.3567 -0.8387  0.3922
16942TIP3    H272318   3.721   2.555   5.898  0.6857  1.9777 -1.0423
16943TIP3   OH272319   5.370   1.088  14.817 -0.3208  0.2839 -0.3273
16943TIP3    H172320   5.330   1.166  14.854  1.1199 -0.1336  2.3915
16943TIP3    H272321   5.462   1.113  14.803 -0.1152 -0.5781 -0.5869
16944TIP3   OH272322   3.040   2.707   1.694  0.1462  0.3154  0.2333
16944TIP3    H172323   3.073   2.624   1.730  0.7449  0.5731  0.2777
16944TIP3    H272324   3.004   2.753   1.770  1.6606  0.9811  0.5922
16945TIP3   OH272325   1.488   4.449   2.662  0.0122 -0.2335 -0.4746
16945TIP3    H172326   1.555   4.492   2.715 -1.0392 -0.2287  0.9233
16945TIP3    H272327   1.428   4.520   2.638 -0.6585 -0.5666  0.1638
16946TIP3   OH272328   2.743   3.209   1.044  0.5406  0.1261  0.2259
16946TIP3    H172329   2.681   3.268   1.087  1.7422  1.1856  0.5649
16946TIP3    H272330   2.699   3.185   0.962  0.0245  1.5222  0.0635
16947TIP3   OH272331   4.994   2.427   5.347 -0.1127  0.2229 -0.0466
16947TIP3    H172332   4.971   2.346   5.300 -0.0417 -0.6259  1.3183
16947TIP3    H272333   5.083   2.447   5.316 -0.3458  0.1081 -0.8216
16948TIP3   OH272334   1.471   5.519  15.705 -0.4584 -0.3631 -0.0153
16948TIP3    H172335   1.526   5.551  15.777 -2.0065 -0.2372  1.1804
16948TIP3    H272336   1.505   5.432  15.686  0.4719 -0.0873  0.3425
16949TIP3   OH272337   3.809   3.248   0.437 -0.5822  0.1295  0.5673
16949TIP3    H172338   3.776   3.326   0.392  0.4678  0.4357  0.2805
16949TIP3    H272339   3.756   3.241   0.516 -0.7317  1.1140  0.5656
16950TIP3   OH272340   4.825   4.172  11.524 -0.1089 -0.3484  0.0354
16950TIP3    H172341   4.895   4.177  11.589 -1.3845 -1.2189  1.5541
16950TIP3    H272342   4.745   4.169  11.576 -1.2222 -0.4196 -1.6184
16951TIP3   OH272343   1.190   2.375  14.144  0.0197 -0.0274 -0.2302
16951TIP3    H172344   1.130   2.303  14.159 -0.9940  0.7939 -0.2267
16951TIP3    H272345   1.142   2.453  14.172  1.8509  0.4697  1.8212
16952TIP3   OH272346   2.550   4.326  17.260  0.7264  1.0253 -0.2247
16952TIP3    H172347   2.456   4.340  17.262  0.5356 -0.2319  1.2857
16952TIP3    H272348   2.564   4.261  17.191  0.4783  1.0483 -0.2976
16953TIP3   OH272349   1.633   4.946   5.842  0.1582 -0.0903 -0.0861
16953TIP3    H172350   1.541   4.930   5.822  0.7006 -0.7986 -2.2621
16953TIP3    H272351   1.634   4.968   5.935 -1.8590 -3.0071  0.7632
16954TIP3   OH272352   5.177   2.573  16.987 -0.1344 -0.4529 -0.2189
16954TIP3    H172353   5.257   2.572  17.039 -1.1938 -2.5778  1.5311
16954TIP3    H272354   5.131   2.493  17.012 -3.5488  1.4014  0.0268
16955TIP3   OH272355   2.047   1.820  11.346 -0.2149 -0.5924  0.2389
16955TIP3    H172356   2.045   1.866  11.430 -1.2608 -0.8150  0.3574
16955TIP3    H272357   2.046   1.890  11.281  0.7039 -0.4174  0.4080
16956TIP3   OH272358   5.084   1.733   2.412  0.1442 -0.5568  0.3146
16956TIP3    H172359   5.163   1.768   2.369 -1.8343  3.6732 -0.4426
16956TIP3    H272360   5.018   1.732   2.342 -1.6566  0.7291  1.9162
16957TIP3   OH272361   3.612   6.318   1.211  0.0536  0.1677 -0.1593
16957TIP3    H172362   3.668   6.329   1.288 -1.8840 -0.9558  1.5084
16957TIP3    H272363   3.582   6.227   1.216 -1.8891  0.7203 -0.9993
16958TIP3   OH272364   4.546   6.013  16.056  0.0766 -0.1975  0.5764
16958TIP3    H172365   4.632   6.032  16.019  0.7806  1.1593  2.7741
16958TIP3    H272366   4.554   5.923  16.090 -0.0164 -0.7756 -0.8546
16959TIP3   OH272367   4.316   1.203  11.581  0.2518  0.2892 -0.1845
16959TIP3    H172368   4.363   1.285  11.566  0.2032  0.2542 -0.5231
16959TIP3    H272369   4.224   1.225  11.568  0.1916  0.2988  0.2331
16960TIP3   OH272370   0.397   2.419  13.792 -0.0725  0.2342 -0.4228
16960TIP3    H172371   0.417   2.511  13.809 -1.2304  0.1256  1.9075
16960TIP3    H272372   0.301   2.416  13.790 -0.0826 -0.4833 -3.5624
16961TIP3   OH272373   6.803   3.736   3.776  0.2895 -0.0255 -0.4017
16961TIP3    H172374   6.868   3.765   3.841  0.7682 -0.7123 -0.5683
16961TIP3    H272375   6.749   3.814   3.761  0.5888  0.3353  0.3169
16962TIP3   OH272376   2.111   1.316  11.189  0.0753  0.0521 -0.8073
16962TIP3    H172377   2.174   1.300  11.118 -0.1276 -1.3851 -0.7081
16962TIP3    H272378   2.028   1.330  11.145 -0.5368 -3.0923 -0.9226
16963TIP3   OH272379   2.672   4.156  15.198  0.5009  0.2410  0.3599
16963TIP3    H172380   2.726   4.161  15.277  1.6664  0.3600 -0.4148
16963TIP3    H272381   2.716   4.091  15.143  0.2738  0.8854 -0.6034
16964TIP3   OH272382   1.314   0.521  17.189 -0.5186 -0.2932 -1.0455
16964TIP3    H172383   1.354   0.443  17.226 -2.8520 -0.7206  0.8966
16964TIP3    H272384   1.351   0.593  17.239  0.5127 -0.2611 -1.8146
16965TIP3   OH272385   0.634   4.441   6.033  0.1832 -0.0894  0.6871
16965TIP3    H172386   0.670   4.480   6.113  0.3859 -1.3072  1.2146
16965TIP3    H272387   0.557   4.494   6.014 -0.6337 -0.5363  2.4662
16966TIP3   OH272388   4.016   6.291  15.716  0.4354  0.1498 -0.0700
16966TIP3    H172389   3.992   6.257  15.802  1.3543  0.6722  0.4076
16966TIP3    H272390   3.956   6.365  15.702  0.3084  0.0867  0.1330
16967TIP3   OH272391   0.544   4.460  12.407 -0.6063 -0.3044  0.2409
16967TIP3    H172392   0.539   4.421  12.320 -1.5836  1.6851 -0.6641
16967TIP3    H272393   0.637   4.454  12.430 -0.2896 -0.6953 -1.0293
16968TIP3   OH272394   1.150   0.642  14.868  0.0477 -0.3707  0.4958
16968TIP3    H172395   1.230   0.686  14.840 -1.2622  1.4683 -0.5572
16968TIP3    H272396   1.154   0.642  14.964  2.0509 -1.8500  0.4742
16969TIP3   OH272397   3.446   2.192   6.326  0.2511  0.1050  0.0861
16969TIP3    H172398   3.383   2.256   6.358  2.5560  1.4210  2.3295
16969TIP3    H272399   3.519   2.245   6.294  1.3637 -1.3769  0.0760
16970TIP3   OH272400   0.617   0.013  16.220  0.0460 -0.4678  0.4321
16970TIP3    H172401   0.523   0.007  16.200  0.3059 -0.0753 -0.9939
16970TIP3    H272402   0.629  -0.051  16.291 -1.5120  0.3827  1.5391
16971TIP3   OH272403   3.548   3.590   5.375 -0.0647  0.8329  0.2511
16971TIP3    H172404   3.478   3.639   5.417  0.9079  1.0182  1.7297
16971TIP3    H272405   3.627   3.616   5.422  0.6567 -1.2617  0.2846
16972TIP3   OH272406   2.082   1.868  13.123  0.5277 -0.3787 -0.6998
16972TIP3    H172407   2.017   1.929  13.159  1.3371 -0.7287  1.4572
16972TIP3    H272408   2.138   1.923  13.068 -0.4032  0.2918 -1.0003
16973TIP3   OH272409   4.080   0.726  17.095 -0.0054  0.5272 -0.1482
16973TIP3    H172410   4.081   0.718  16.999 -0.5178  0.5987 -0.1588
16973TIP3    H272411   4.089   0.636  17.126  1.4889  0.6122 -0.2542
16974TIP3   OH272412   0.691   2.630  12.359  0.2634 -0.1105 -0.2205
16974TIP3    H172413   0.679   2.539  12.333 -0.2719 -0.4263  1.0735
16974TIP3    H272414   0.629   2.679  12.304 -1.5375 -0.8747  1.0301
16975TIP3   OH272415   3.941   3.499  14.558 -0.0791  0.3032 -0.0123
16975TIP3    H172416   3.965   3.564  14.492 -3.0516  1.1864 -0.3540
16975TIP3    H272417   3.913   3.550  14.634 -0.7018 -0.6129  0.3976
16976TIP3   OH272418   0.501   1.898   0.931 -0.4502  0.7198 -0.0148
16976TIP3    H172419   0.442   1.973   0.927 -0.0794  0.9733 -0.9322
16976TIP3    H272420   0.443   1.823   0.948 -0.9298  1.0823 -0.0308
16977TIP3   OH272421   5.721   6.817  11.461  0.1678  0.2449 -0.1145
16977TIP3    H172422   5.705   6.853  11.549  0.6504 -2.0751  1.0046
16977TIP3    H272423   5.796   6.759  11.472  0.1447 -0.2105 -2.0399
16978TIP3   OH272424   1.137   0.912   3.801 -0.2396  0.3044  0.0673
16978TIP3    H172425   1.219   0.892   3.756 -1.1772 -0.0384 -1.5534
16978TIP3    H272426   1.152   0.999   3.839  0.4777  0.7949 -1.2483
16979TIP3   OH272427   1.096   1.148  15.623  0.4367 -0.3150 -0.5821
16979TIP3    H172428   1.038   1.080  15.591  0.9868  0.1657 -2.7345
16979TIP3    H272429   1.185   1.114  15.610  0.7061 -0.2154  0.7667
16980TIP3   OH272430   6.760   0.332  12.845  0.7186  0.3043  0.0170
16980TIP3    H172431   6.815   0.321  12.922  0.2630  0.1452  0.3234
16980TIP3    H272432   6.822   0.341  12.772  1.1442 -0.7386  0.2302
16981TIP3   OH272433   1.754   4.562   6.198 -0.4397 -0.7900  0.1695
16981TIP3    H172434   1.697   4.494   6.162 -0.6279 -0.0502 -0.9462
16981TIP3    H272435   1.721   4.576   6.287 -1.4036 -1.0202 -0.1407
16982TIP3   OH272436   0.680   4.541   2.305  0.5938  0.2836  0.0855
16982TIP3    H172437   0.662   4.632   2.284 -0.0854  0.1749  0.1850
16982TIP3    H272438   0.651   4.530   2.395  1.1412  0.0932  0.2446
16983TIP3   OH272439   3.753   0.746   3.214 -0.4639 -0.1822 -0.0640
16983TIP3    H172440   3.749   0.840   3.232 -1.2799 -0.0837 -0.6944
16983TIP3    H272441   3.825   0.736   3.152 -1.0223  0.1704 -0.7853
16984TIP3   OH272442   1.975   2.879   4.267 -0.0197 -0.4745  0.4643
16984TIP3    H172443   1.891   2.924   4.266 -0.1645 -0.7123 -1.3079
16984TIP3    H272444   2.013   2.897   4.181  1.5560 -0.7156  1.0792
16985TIP3   OH272445   3.805   3.276   5.733 -0.2857  0.3538  0.7269
16985TIP3    H172446   3.879   3.231   5.692  1.1222  3.0694  0.0799
16985TIP3    H272447   3.804   3.363   5.693 -3.3255  0.7254  1.3695
16986TIP3   OH272448   3.089   3.299  10.719 -0.1602 -0.1179 -0.5047
16986TIP3    H172449   3.157   3.303  10.785 -0.5323  1.7022 -0.1811
16986TIP3    H272450   3.047   3.385  10.722 -1.4496 -0.6547 -1.7715
16987TIP3   OH272451   5.151   3.307  10.630 -0.4104  0.0857  0.1093
16987TIP3    H172452   5.156   3.371  10.560 -0.5629 -0.1685 -0.1338
16987TIP3    H272453   5.102   3.351  10.700  0.1924  0.5210  0.2589
16988TIP3   OH272454   2.855   3.377   1.735  0.3082 -0.6429  0.0054
16988TIP3    H172455   2.780   3.383   1.676 -0.4149  0.6118  1.0000
16988TIP3    H272456   2.817   3.366   1.822  1.2973 -0.5445  0.4664
16989TIP3   OH272457   5.148   4.252  17.206  0.1724 -0.2476 -0.4682
16989TIP3    H172458   5.138   4.284  17.116  1.4120  0.5985 -0.3247
16989TIP3    H272459   5.140   4.330  17.261 -3.2063 -1.0812  0.4128
16990TIP3   OH272460   2.584   1.033   4.485  0.5288  0.4576  0.0957
16990TIP3    H172461   2.550   1.104   4.430 -1.1135  1.1177  1.8339
16990TIP3    H272462   2.621   0.970   4.424 -1.8659  0.7978 -1.8515
16991TIP3   OH272463   5.972   4.074   0.803 -0.2548  0.6250  0.1614
16991TIP3    H172464   5.942   4.151   0.851 -1.7874  0.6920 -0.8616
16991TIP3    H272465   5.932   4.000   0.849 -1.8205  0.6957 -1.0105
16992TIP3   OH272466   2.848   5.913   4.175 -0.1465  0.1197 -0.2325
16992TIP3    H172467   2.823   5.951   4.090  0.0640  0.5922 -0.0898
16992TIP3    H272468   2.766   5.911   4.225  0.1429  2.1355  0.4158
16993TIP3   OH272469   5.187   5.001  13.266  0.1486 -0.3042 -0.4396
16993TIP3    H172470   5.130   4.927  13.246 -0.2697 -0.3128  0.7116
16993TIP3    H272471   5.205   5.041  13.181  1.3793 -2.4199 -1.2492
16994TIP3   OH272472   2.650   0.590   5.040 -0.2784 -0.1911 -0.2509
16994TIP3    H172473   2.632   0.667   5.093 -0.7696 -0.1434 -0.4864
16994TIP3    H272474   2.564   0.559   5.011 -0.0748 -0.7548 -0.2583
16995TIP3   OH272475   0.962   1.981  13.908  0.4086 -0.1070  0.1704
16995TIP3    H172476   0.872   2.012  13.914  0.5728  0.2717  0.7222
16995TIP3    H272477   0.966   1.906  13.968 -0.3519 -2.1582 -2.1456
16996TIP3   OH272478   4.057   3.617   3.586  0.1545  0.5264 -0.4079
16996TIP3    H172479   4.110   3.587   3.660  0.4513  4.0910  1.0383
16996TIP3    H272480   3.981   3.559   3.586  0.2278  0.2586  2.6497
16997TIP3   OH272481   2.488   4.944   3.985 -0.4860  0.0705  0.0629
16997TIP3    H172482   2.441   4.993   4.052 -2.5592 -0.2292 -1.0667
16997TIP3    H272483   2.502   4.857   4.024  3.4476  1.4216  2.1751
16998TIP3   OH272484   5.105   3.023  11.080  0.2476  0.2332 -0.4405
16998TIP3    H172485   5.160   3.008  11.157 -0.1340  0.4460 -0.1216
16998TIP3    H272486   5.017   3.003  11.110 -0.0319  1.2815 -0.5307
16999TIP3   OH272487   5.197   4.376  12.461 -0.4533  0.0673 -0.0602
16999TIP3    H172488   5.279   4.418  12.488 -0.0677 -1.1678  0.7775
16999TIP3    H272489   5.165   4.333  12.540 -1.0970 -0.7772 -0.7619
17000TIP3   OH272490   3.818   5.759   2.178 -0.4141 -0.3479  0.2578
17000TIP3    H172491   3.744   5.711   2.140  0.0236 -1.2207  0.4902
17000TIP3    H272492   3.894   5.702   2.164 -0.1492 -0.4911  2.0205
17001TIP3   OH272493   0.535   6.238   4.344 -0.2518 -0.3245  0.3453
17001TIP3    H172494   0.463   6.281   4.390  0.1916 -0.2377  0.9703
17001TIP3    H272495   0.495   6.201   4.265 -1.2455 -1.3851  1.3132
17002TIP3   OH272496   5.635   2.052   5.945  0.5406  0.6527  0.7757
17002TIP3    H172497   5.567   2.037   6.010  1.4856  0.5969  1.7708
17002TIP3    H272498   5.666   2.141   5.963  2.2659 -0.1053  1.8270
17003TIP3   OH272499   3.773   1.985  12.776 -0.0971  0.0169  0.6691
17003TIP3    H172500   3.678   1.973  12.771 -0.0964  0.2801 -2.7674
17003TIP3    H272501   3.799   1.942  12.857 -2.9913 -1.1560  1.0909
17004TIP3   OH272502   4.637   4.186  17.000  0.0027 -0.0979 -0.5277
17004TIP3    H172503   4.731   4.179  16.983  0.1302  1.4831 -0.6160
17004TIP3    H272504   4.620   4.280  17.001 -0.9104 -0.1434  3.0240
17005TIP3   OH272505   2.648   0.130   2.182  0.0942 -0.9165  0.2319
17005TIP3    H172506   2.666   0.216   2.219 -1.6821 -0.1236 -0.6286
17005TIP3    H272507   2.698   0.069   2.237  0.7195  0.5657  1.3727
17006TIP3   OH272508   3.150   0.053  10.982 -0.1578  0.0146  0.0671
17006TIP3    H172509   3.132  -0.037  10.953  1.4508 -0.1356 -0.5669
17006TIP3    H272510   3.161   0.045  11.077 -1.5305 -0.1659  0.2382
17007TIP3   OH272511   2.389   2.700   2.161  0.0593 -0.8326 -0.2382
17007TIP3    H172512   2.410   2.772   2.220  1.5778 -1.9208  0.6047
17007TIP3    H272513   2.454   2.707   2.091  2.2076 -3.0589  1.3703
17008TIP3   OH272514   3.512   1.024  10.816  0.1649 -0.0541 -0.3968
17008TIP3    H172515   3.450   1.078  10.768  0.3706  0.3847 -0.1869
17008TIP3    H272516   3.577   0.997  10.751  1.2591  1.7449 -0.1354
17009TIP3   OH272517   5.347   0.630   0.502  0.3492  0.1018  0.3887
17009TIP3    H172518   5.271   0.680   0.474 -1.1525 -1.4090  1.5086
17009TIP3    H272519   5.422   0.683   0.476 -1.0916  2.1676  0.1745
17010TIP3   OH272520   0.369   0.540   4.634  0.6138 -0.2471  0.3263
17010TIP3    H172521   0.428   0.475   4.595  2.1238  1.1739  0.1164
17010TIP3    H272522   0.307   0.560   4.564  1.6959  0.3505 -0.4992
17011TIP3   OH272523   1.129   4.021   1.099 -0.1887  0.1595 -0.4282
17011TIP3    H172524   1.187   3.948   1.122 -0.0426  0.3873 -0.0616
17011TIP3    H272525   1.159   4.093   1.154 -0.4830  0.4309 -0.6216
17012TIP3   OH272526   3.044   0.241  16.212 -0.1731  0.0703 -0.7921
17012TIP3    H172527   3.124   0.293  16.215  0.1043 -0.3490 -0.8140
17012TIP3    H272528   3.075   0.151  16.205 -0.6495 -0.1145 -0.5020
17013TIP3   OH272529   6.250   3.544   1.704  0.0504  0.5807  0.2304
17013TIP3    H172530   6.192   3.505   1.770 -1.6421  0.9108 -1.0055
17013TIP3    H272531   6.319   3.587   1.755 -0.1064 -0.8541  1.7107
17014TIP3   OH272532   3.493   3.815  15.798  0.4106  0.6787  0.1320
17014TIP3    H172533   3.474   3.903  15.833  1.8050  1.9255 -2.0172
17014TIP3    H272534   3.408   3.781  15.772 -0.4692  0.3776  3.0189
17015TIP3   OH272535   5.046   4.476   3.903 -0.0963  0.5530 -0.0074
17015TIP3    H172536   5.123   4.439   3.859 -0.2555 -1.2763  1.1477
17015TIP3    H272537   5.078   4.555   3.946  1.2631 -0.4216  0.8210
17016TIP3   OH272538   2.265   0.748   1.254  0.5141 -0.6030  0.5282
17016TIP3    H172539   2.272   0.675   1.192  0.7685 -0.5848  0.5337
17016TIP3    H272540   2.354   0.758   1.289  1.2335  1.6994 -1.7156
17017TIP3   OH272541   2.319   6.058  13.379 -0.4502 -0.6533 -0.4965
17017TIP3    H172542   2.369   6.109  13.442  2.1640 -1.7443 -1.5680
17017TIP3    H272543   2.325   5.967  13.411 -2.3248 -0.7561 -0.3310
17018TIP3   OH272544   5.390   2.889  16.993  0.0339 -0.3517 -0.0567
17018TIP3    H172545   5.299   2.894  17.022  0.6114 -0.8841  2.0426
17018TIP3    H272546   5.440   2.931  17.063  1.3152  1.6731 -2.0345
17019TIP3   OH272547   6.098   3.102   3.616 -0.3855 -0.2166  0.5197
17019TIP3    H172548   6.188   3.098   3.649 -0.6837 -0.1027  1.3574
17019TIP3    H272549   6.087   3.192   3.585 -0.1422 -0.2933  0.2063
17020TIP3   OH272550   6.011   0.774  14.329 -0.1442 -0.5044  0.1071
17020TIP3    H172551   5.954   0.702  14.299  0.2515 -1.2203  1.0134
17020TIP3    H272552   5.963   0.813  14.402  0.7335 -1.4526  1.2248
17021TIP3   OH272553   5.247   1.661  13.814  0.2325  0.5485 -0.0212
17021TIP3    H172554   5.163   1.620  13.832  1.2823 -3.4845 -2.9703
17021TIP3    H272555   5.307   1.624  13.879  0.3212  1.0624  0.1955
17022TIP3   OH272556   2.913   1.304  17.122 -0.0334  0.1390 -0.4000
17022TIP3    H172557   3.003   1.308  17.091  0.8069  0.5452  1.8584
17022TIP3    H272558   2.883   1.395  17.120  0.9518  0.6295  2.2127
17023TIP3   OH272559   4.844   2.908   0.196  0.1641 -0.3980 -0.1203
17023TIP3    H172560   4.853   2.995   0.234 -1.0599 -0.1281 -0.4038
17023TIP3    H272561   4.897   2.852   0.252  1.3187  0.5855 -0.1857
17024TIP3   OH272562   0.931   6.638   4.014  0.4451  0.4696 -0.3801
17024TIP3    H172563   0.847   6.635   3.969  1.0995  1.4391 -1.6949
17024TIP3    H272564   0.984   6.698   3.963  1.7991  0.2328  0.6988
17025TIP3   OH272565   1.286   2.973   2.013  0.4795 -0.4334 -0.1439
17025TIP3    H172566   1.261   2.987   2.105 -1.0978 -0.5548 -0.5138
17025TIP3    H272567   1.330   2.888   2.013  1.3874  0.0135  0.6352
17026TIP3   OH272568   0.722   2.638   1.473  0.5809 -0.3293 -0.1062
17026TIP3    H172569   0.780   2.707   1.507 -0.3194  0.4478 -0.1004
17026TIP3    H272570   0.730   2.567   1.536  1.9869 -0.4830 -0.4304
17027TIP3   OH272571   0.903   6.651  15.603 -0.1338 -0.0985 -0.6491
17027TIP3    H172572   0.842   6.704  15.551 -0.0628  0.9389  0.2933
17027TIP3    H272573   0.944   6.592  15.539 -0.9649  0.2818 -1.5535
17028TIP3   OH272574   4.118   5.613   6.401 -0.0434  0.2001 -0.2462
17028TIP3    H172575   4.113   5.682   6.335  0.0703 -0.0438 -0.5121
17028TIP3    H272576   4.204   5.624   6.442  0.5895 -0.6730 -1.2828
17029TIP3   OH272577   0.076   2.451   3.017 -0.5224 -0.3777  0.0060
17029TIP3    H172578   0.127   2.388   2.966 -1.5837  0.4626 -2.2556
17029TIP3    H272579  -0.005   2.405   3.037 -0.6216 -0.2925 -0.1947
17030TIP3   OH272580   3.893   1.858  12.989 -0.1773  0.0448  0.1871
17030TIP3    H172581   3.928   1.769  12.992 -0.5125 -0.0771  0.6500
17030TIP3    H272582   3.971   1.913  12.979  0.2921 -0.1540  2.2591
17031TIP3   OH272583   3.373   1.755  11.999 -0.6675  0.6628  0.2413
17031TIP3    H172584   3.415   1.840  12.013  2.9929 -0.8466 -0.3593
17031TIP3    H272585   3.417   1.697  12.060 -0.5903 -1.4617 -1.7245
17032TIP3   OH272586   6.249   1.859   1.319  0.1996  0.0541 -0.0022
17032TIP3    H172587   6.308   1.930   1.295 -0.2358  0.6658  0.6831
17032TIP3    H272588   6.166   1.902   1.337 -0.3541 -0.7588 -0.5870
17033TIP3   OH272589   4.564   1.538  13.466 -0.0759 -0.2436 -0.6087
17033TIP3    H172590   4.509   1.487  13.525 -0.8950 -1.6110 -2.4613
17033TIP3    H272591   4.653   1.524  13.497 -0.5177 -0.4389  0.6286
17034TIP3   OH272592   5.835   1.061  15.837 -0.4715  0.3291 -0.5763
17034TIP3    H172593   5.814   0.969  15.821 -2.5080  0.2266  1.9381
17034TIP3    H272594   5.753   1.107  15.820  0.4337  1.6560 -1.4536
17035TIP3   OH272595   3.523   2.337  12.435 -0.0700 -0.1036 -0.1796
17035TIP3    H172596   3.550   2.249  12.407  0.7406  0.4294 -1.1367
17035TIP3    H272597   3.492   2.380  12.355 -0.2578  0.5569  0.2369
17036TIP3   OH272598   1.132   1.597   3.418  0.1151  0.3024  0.1704
17036TIP3    H172599   1.157   1.520   3.468 -2.1918 -0.1429  0.7322
17036TIP3    H272600   1.092   1.656   3.482  0.9662  1.5825 -0.4251
17037TIP3   OH272601   5.955   5.938   2.395  0.6396  0.2965  0.1059
17037TIP3    H172602   5.962   6.023   2.353  0.0949  1.3878  2.1045
17037TIP3    H272603   5.870   5.905   2.367  1.7229 -0.6294 -2.3716
17038TIP3   OH272604   0.247   3.072   4.421  0.4552  0.3596  0.3462
17038TIP3    H172605   0.191   3.081   4.499  0.9835  1.4710  0.6099
17038TIP3    H272606   0.335   3.061   4.457  0.8053  1.6060 -0.0811
17039TIP3   OH272607   2.167   0.044  16.713 -0.8345  0.4246  0.1576
17039TIP3    H172608   2.080   0.017  16.744 -1.6653  3.5228  0.8430
17039TIP3    H272609   2.213   0.072  16.792 -0.1134  1.1775 -0.5152
17040TIP3   OH272610   6.664   2.977   1.647  0.4207  1.0491 -0.4416
17040TIP3    H172611   6.702   3.021   1.723 -0.4384 -0.7565  1.1034
17040TIP3    H272612   6.735   2.921   1.615  0.0459 -0.0637  0.6025
17041TIP3   OH272613   2.754   2.438  17.195 -0.1045 -0.2617 -0.2697
17041TIP3    H172614   2.830   2.402  17.151 -1.2245 -1.4272 -1.3411
17041TIP3    H272615   2.704   2.361  17.224 -1.4518  0.4196 -0.6591
17042TIP3   OH272616   2.678   5.659  17.186 -0.1611  0.0386 -0.6516
17042TIP3    H172617   2.600   5.669  17.133 -0.4650  1.4559  0.0190
17042TIP3    H272618   2.657   5.702  17.269  0.8804 -0.6827  0.0188
17043TIP3   OH272619   4.928   4.725  11.630  0.2209 -0.0785  0.4526
17043TIP3    H172620   4.987   4.757  11.698 -0.0645  1.7413 -0.1075
17043TIP3    H272621   4.986   4.678  11.569  0.9866  1.0455  0.2937
17044TIP3   OH272622   0.845   1.566  16.283  0.9376 -0.3414  0.1850
17044TIP3    H172623   0.821   1.491  16.229 -0.4948  0.1412  0.0934
17044TIP3    H272624   0.930   1.594  16.250  1.3092 -1.6783 -0.0342
17045TIP3   OH272625   1.935   5.180  11.928 -0.0691  0.0757 -0.3992
17045TIP3    H172626   1.890   5.176  12.012 -0.0987 -1.7824 -0.4485
17045TIP3    H272627   1.942   5.273  11.908 -0.7442  0.5174  1.2850
17046TIP3   OH272628   1.162   6.168  14.218 -0.5492  0.4374  0.4394
17046TIP3    H172629   1.130   6.254  14.192 -0.2554  0.4345  0.0592
17046TIP3    H272630   1.107   6.106  14.170 -0.2348  0.4270  0.0876
17047TIP3   OH272631   1.240   5.893  14.339  0.1351  0.3520  0.6449
17047TIP3    H172632   1.335   5.904  14.345  0.3039 -0.1381 -0.8563
17047TIP3    H272633   1.209   5.971  14.294  0.3456 -1.1879 -2.4233
17048TIP3   OH272634   0.592   6.667  14.158 -0.4412  0.4717  0.1528
17048TIP3    H172635   0.557   6.734  14.100  1.0169 -0.2590 -1.6480
17048TIP3    H272636   0.573   6.700  14.246 -1.0457  2.5291 -0.6845
17049TIP3   OH272637   1.112   2.788  13.857 -0.6133 -0.6034 -0.0438
17049TIP3    H172638   1.095   2.709  13.909 -1.8995 -1.1507 -1.2523
17049TIP3    H272639   1.040   2.792  13.795 -1.7506  2.6570  1.2591
17050TIP3   OH272640   6.552   2.676   2.309 -0.0462  0.1555 -0.4839
17050TIP3    H172641   6.612   2.727   2.255  1.7854 -1.1111  0.2467
17050TIP3    H272642   6.592   2.677   2.396 -1.5944  0.0273  0.2675
17051TIP3   OH272643   4.231   6.477   4.792  0.0198  0.4998 -0.1208
17051TIP3    H172644   4.276   6.443   4.869  0.5415 -0.9002 -1.0155
17051TIP3    H272645   4.277   6.558   4.771  0.0074  0.7830  0.9096
17052TIP3   OH272646   3.689   2.862   5.983 -0.6085 -0.4342  0.2289
17052TIP3    H172647   3.705   2.868   6.077  0.2916 -1.1815  0.1389
17052TIP3    H272648   3.667   2.770   5.969 -0.2930 -0.4269 -0.3473
17053TIP3   OH272649   5.096   6.138  15.827  0.3109 -0.1801 -0.4120
17053TIP3    H172650   5.181   6.183  15.834  0.5509 -0.6008 -0.6049
17053TIP3    H272651   5.080   6.131  15.733 -0.3109  0.5862 -0.3699
17054TIP3   OH272652   3.329   1.445   4.461  0.6530  0.5403 -0.1418
17054TIP3    H172653   3.325   1.424   4.554  1.9511 -0.4250 -0.2710
17054TIP3    H272654   3.252   1.401   4.423  0.9425 -0.3428  0.2652
17055TIP3   OH272655   0.237   3.475   1.167  0.7451 -0.2568  0.1430
17055TIP3    H172656   0.280   3.508   1.088  0.5258  1.4509  0.7053
17055TIP3    H272657   0.244   3.546   1.230 -0.1955 -1.1213  1.2665
17056TIP3   OH272658   0.791   3.828  16.373  0.2274 -0.4276 -0.5023
17056TIP3    H172659   0.760   3.737  16.378 -1.0325 -0.0605 -1.2418
17056TIP3    H272660   0.774   3.863  16.461  1.5877 -1.1542  0.0749
17057TIP3   OH272661   5.074   6.454  11.900 -0.2222  0.5038 -0.1160
17057TIP3    H172662   5.085   6.492  11.988  0.3197 -2.8760  1.4221
17057TIP3    H272663   5.086   6.360  11.913 -2.3966 -0.3847 -3.4809
17058TIP3   OH272664   4.440   1.290   0.260  0.1218  0.6290 -0.1399
17058TIP3    H172665   4.455   1.208   0.214  0.4191  0.7886 -0.3354
17058TIP3    H272666   4.378   1.268   0.330  0.1032  0.2686 -0.2677
17059TIP3   OH272667   6.618   2.729   0.475 -0.2002 -0.1585  0.4563
17059TIP3    H172668   6.571   2.789   0.533  0.5018 -1.8586  2.9324
17059TIP3    H272669   6.576   2.644   0.490  2.7191 -1.4705  1.7563
17060TIP3   OH272670   3.631   0.084  16.151  0.0457  0.8252  0.5463
17060TIP3    H172671   3.674   0.161  16.190  0.4881  1.2916 -0.7897
17060TIP3    H272672   3.702   0.021  16.140  0.2208  1.2022 -0.6924
17061TIP3   OH272673   3.706   5.900   3.822  0.3243  0.3452  0.1527
17061TIP3    H172674   3.620   5.918   3.783 -0.3143 -1.4748  0.6424
17061TIP3    H272675   3.761   5.878   3.747  0.2923  1.1565 -0.1257
17062TIP3   OH272676   3.064   5.655  14.177 -0.8487 -0.7087 -0.2026
17062TIP3    H172677   3.106   5.727  14.130  0.7604  0.0362  2.1845
17062TIP3    H272678   3.133   5.590  14.189 -1.5477 -1.4246  0.0308
17063TIP3   OH272679   1.410   0.390  10.889 -0.5700 -0.3496 -0.4980
17063TIP3    H172680   1.498   0.361  10.912 -0.5683  0.3219  0.4267
17063TIP3    H272681   1.397   0.470  10.940 -2.2412 -1.1945  0.5149
17064TIP3   OH272682   2.020   5.024  13.515 -0.0436  0.1148 -0.2956
17064TIP3    H172683   2.105   4.988  13.493 -0.1132 -1.0107  1.1927
17064TIP3    H272684   2.029   5.118  13.499  1.7381  0.1283  0.6182
17065TIP3   OH272685   4.501   4.648  15.238  0.2311  0.0452  0.3166
17065TIP3    H172686   4.415   4.611  15.219  0.2734 -0.5554  1.2214
17065TIP3    H272687   4.488   4.698  15.319  0.8358 -0.4702  0.7430
17066TIP3   OH272688   2.411   2.160  16.116  0.4068  0.5271 -0.0934
17066TIP3    H172689   2.471   2.157  16.191  0.2638  1.1990  0.0516
17066TIP3    H272690   2.338   2.103  16.142 -0.2884  1.7995  0.8592
17067TIP3   OH272691   6.313   5.668   4.053 -0.0708  0.8258  0.0479
17067TIP3    H172692   6.265   5.602   4.002  2.2504  0.6576 -2.0915
17067TIP3    H272693   6.261   5.747   4.045 -1.1650  0.1079 -0.2086
17068TIP3   OH272694   4.644   0.515   3.283  0.6066  0.7608  0.2577
17068TIP3    H172695   4.578   0.447   3.299  1.1654  0.2089  0.2684
17068TIP3    H272696   4.687   0.526   3.368  1.3344  0.2381 -0.0310
17069TIP3   OH272697   1.499   4.114   0.499  0.1092  0.0572  0.0016
17069TIP3    H172698   1.471   4.200   0.467 -0.4364 -0.2454 -0.3512
17069TIP3    H272699   1.591   4.125   0.520  0.0404  0.7376 -0.0210
17070TIP3   OH272700   0.260   0.494   1.998 -0.0057  0.0129  0.4736
17070TIP3    H172701   0.264   0.430   2.068 -1.3417 -0.0625  0.5114
17070TIP3    H272702   0.285   0.576   2.038  2.1652 -0.5194  0.3246
17071TIP3   OH272703   6.638   3.913  16.415  1.0359  0.0125 -0.2492
17071TIP3    H172704   6.694   3.843  16.449  2.4344 -0.1405 -2.6635
17071TIP3    H272705   6.663   3.991  16.465  0.2822 -0.9043  1.6680
17072TIP3   OH272706   4.668   3.422   0.143 -0.3975 -0.0880  0.3975
17072TIP3    H172707   4.682   3.506   0.099 -3.3290  0.8340  0.9586
17072TIP3    H272708   4.617   3.371   0.080 -0.2527 -0.7310  0.7891
17073TIP3   OH272709   0.090   3.991  11.274 -0.0275 -0.2358 -0.0315
17073TIP3    H172710   0.106   3.906  11.233  0.5519 -0.1336 -0.0303
17073TIP3    H272711   0.126   3.982  11.362  1.0277  0.3526 -0.3867
17074TIP3   OH272712   3.439   2.731  13.042  0.6526 -0.0142 -0.1478
17074TIP3    H172713   3.394   2.811  13.015  0.3688  0.6699  2.1646
17074TIP3    H272714   3.513   2.761  13.095  0.0299 -1.2439  1.5080
17075TIP3   OH272715   4.688   4.170   4.104 -0.0159  0.0284 -0.0535
17075TIP3    H172716   4.747   4.243   4.124 -0.2247  0.5299 -1.2346
17075TIP3    H272717   4.705   4.106   4.174  0.4431  1.0330  0.7807
17076TIP3   OH272718   6.161   1.189  11.202 -0.6824 -0.0932 -0.0587
17076TIP3    H172719   6.113   1.258  11.248 -1.8611 -0.6994 -0.3404
17076TIP3    H272720   6.126   1.191  11.112 -0.3904 -0.7313 -0.1933
17077TIP3   OH272721   5.336   2.792   3.469 -0.4920  0.3957  0.3813
17077TIP3    H172722   5.328   2.774   3.563 -2.8413  1.8463  0.5493
17077TIP3    H272723   5.288   2.873   3.456 -1.3917 -0.4485 -2.2868
17078TIP3   OH272724   1.535   1.702   2.496 -0.2876  0.1998  0.3558
17078TIP3    H172725   1.548   1.728   2.405 -0.5399 -0.7448  0.0487
17078TIP3    H272726   1.442   1.719   2.513  0.3566  3.3679  1.4202
17079TIP3   OH272727   2.378   5.843  16.647 -0.2173 -0.2306 -0.4048
17079TIP3    H172728   2.406   5.756  16.621 -0.0859 -0.6317  1.0128
17079TIP3    H272729   2.293   5.855  16.602 -0.4769 -1.2821 -0.2182
17080TIP3   OH272730   0.569   3.321   5.016  0.6251  0.0393 -0.1588
17080TIP3    H172731   0.595   3.237   5.054 -0.0857 -0.4297 -0.6713
17080TIP3    H272732   0.643   3.379   5.033  1.9898 -1.2184 -1.5483
17081TIP3   OH272733   1.016   2.403  12.493 -0.4792 -0.0941 -0.2341
17081TIP3    H172734   0.933   2.427  12.533 -1.0346  1.4127 -2.1273
17081TIP3    H272735   1.079   2.465  12.528 -0.5033 -0.1802 -0.0400
17082TIP3   OH272736   3.393   4.569   6.536  0.2377  0.2373  0.3490
17082TIP3    H172737   3.329   4.638   6.522 -0.3145 -0.0599  1.3314
17082TIP3    H272738   3.341   4.491   6.555  0.8372 -0.5902 -1.2244
17083TIP3   OH272739   1.044   3.778  15.312  0.0547  0.0378  0.0694
17083TIP3    H172740   0.960   3.737  15.333 -0.2281 -0.1411 -1.3032
17083TIP3    H272741   1.031   3.870  15.333  0.6541 -0.4666  3.0709
17084TIP3   OH272742   5.890   0.529  11.305 -0.3400 -0.1251  0.0147
17084TIP3    H172743   5.935   0.542  11.222 -1.8343 -0.5299 -0.8994
17084TIP3    H272744   5.936   0.587  11.366 -1.0868  2.5933 -1.8058
17085TIP3   OH272745   6.570   0.277   1.301 -0.4210 -0.2254 -0.5301
17085TIP3    H172746   6.663   0.255   1.307 -0.5743 -0.6884  0.1509
17085TIP3    H272747   6.532   0.206   1.249 -0.7858 -1.2524  1.0723
17086TIP3   OH272748   4.536   1.291   2.421  0.0594  0.3908  0.2562
17086TIP3    H172749   4.464   1.346   2.391  0.4135 -0.4031 -2.3008
17086TIP3    H272750   4.615   1.342   2.400  0.3236  0.0057  0.3095
17087TIP3   OH272751   4.758   4.568  12.566 -0.1493 -0.4041  0.4259
17087TIP3    H172752   4.723   4.613  12.489 -2.5611 -2.4886  0.2071
17087TIP3    H272753   4.803   4.491  12.531  0.7461 -0.1581  1.0002
17088TIP3   OH272754   3.986   4.073  15.343  0.1517 -0.6752  0.2015
17088TIP3    H172755   3.912   4.013  15.334 -0.4050  0.1152 -0.7324
17088TIP3    H272756   3.948   4.153  15.380  0.5421 -0.3065 -0.1788
17089TIP3   OH272757   6.009   5.578  11.894  0.1388  0.5276  0.5396
17089TIP3    H172758   5.984   5.620  11.977 -1.9767  0.2053  0.1283
17089TIP3    H272759   5.928   5.539  11.862  1.0113  0.2623 -1.4850
17090TIP3   OH272760   3.683   5.334  17.004  0.0746  0.3575 -0.8826
17090TIP3    H172761   3.605   5.370  16.962 -0.6515 -1.6958 -1.4139
17090TIP3    H272762   3.658   5.327  17.097  0.1274  0.9660 -0.8210
17091TIP3   OH272763   3.317   6.408  12.257 -0.2522  0.3090  0.0962
17091TIP3    H172764   3.228   6.425  12.225 -0.4178  1.7489  1.2150
17091TIP3    H272765   3.304   6.375  12.346  0.3136  0.0776  0.0938
17092TIP3   OH272766   2.215   4.326  16.623  0.1746 -0.1713 -0.1088
17092TIP3    H172767   2.300   4.298  16.589  0.1103  0.8772 -1.1777
17092TIP3    H272768   2.151   4.287  16.563 -0.3659 -3.4081  2.2921
17093TIP3   OH272769   4.413   4.389   4.505  0.0295 -0.1157  0.0870
17093TIP3    H172770   4.384   4.438   4.427  0.1571  1.7987  1.1820
17093TIP3    H272771   4.332   4.372   4.554 -0.0691 -1.4556 -0.4953
17094TIP3   OH272772   6.817   4.609   1.297 -0.4763  0.5208  0.4677
17094TIP3    H172773   6.800   4.597   1.203 -0.3171  2.6256  0.1163
17094TIP3    H272774   6.851   4.698   1.304 -1.8674  0.9713  2.6855
17095TIP3   OH272775   3.004   5.176   5.435 -0.0330 -0.4177 -0.1382
17095TIP3    H172776   2.950   5.255   5.442  0.7692  0.0782  0.6174
17095TIP3    H272777   2.965   5.127   5.363 -1.2395  0.1232  0.1257
17096TIP3   OH272778   3.915   2.083  16.043 -0.6119 -0.1800 -0.2316
17096TIP3    H172779   3.933   1.989  16.043 -1.5565 -0.3755 -1.1495
17096TIP3    H272780   3.961   2.115  15.965 -0.6920  0.0335 -0.1892
17097TIP3   OH272781   3.406   2.530  11.965  0.2978 -0.3418  0.3717
17097TIP3    H172782   3.456   2.608  11.942 -0.1639 -0.4467 -1.1051
17097TIP3    H272783   3.445   2.461  11.911  0.5964 -1.1087  1.5439
17098TIP3   OH272784   6.439   5.629  13.681  0.2330 -0.2441  0.2547
17098TIP3    H172785   6.478   5.542  13.679 -0.2758 -0.4627 -0.2301
17098TIP3    H272786   6.422   5.651  13.590  2.1582  1.1952  0.1758
17099TIP3   OH272787   3.496   3.862   6.140 -0.0866 -0.4695  0.0602
17099TIP3    H172788   3.545   3.800   6.194 -0.3424 -1.6013 -0.9727
17099TIP3    H272789   3.448   3.916   6.203  0.6121 -0.9269  0.9961
17100TIP3   OH272790   3.946   3.149  15.997  0.2236 -0.0126 -0.7161
17100TIP3    H172791   3.965   3.071  16.048 -0.5699  0.2153 -0.0548
17100TIP3    H272792   4.027   3.200  16.000 -0.5664  1.2901  2.6519
17101TIP3   OH272793   0.856   2.297   0.323  0.7605  0.3200  0.6034
17101TIP3    H172794   0.940   2.323   0.359 -1.0193  3.5177  2.9398
17101TIP3    H272795   0.820   2.236   0.388  0.3565  0.7237  0.7624
17102TIP3   OH272796   2.689   6.235   1.001 -0.1623 -0.0131  0.2376
17102TIP3    H172797   2.756   6.266   1.063 -0.3731 -0.8615  0.9067
17102TIP3    H272798   2.723   6.260   0.915  2.0719 -2.1699  0.3525
17103TIP3   OH272799   2.375   1.034  11.914 -0.8050 -0.8149 -0.1057
17103TIP3    H172800   2.443   1.022  11.979  1.1122  1.5023 -1.5245
17103TIP3    H272801   2.313   0.963  11.930  2.5049 -3.8203  0.5182
17104TIP3   OH272802   6.671   4.371  12.708 -0.1359 -0.2300  0.0801
17104TIP3    H172803   6.712   4.349  12.792 -0.1560  0.6846  0.3309
17104TIP3    H272804   6.732   4.430  12.665 -0.4862 -0.0796 -0.2213
17105TIP3   OH272805   6.049   2.571  11.116  0.4716 -0.3842 -0.3724
17105TIP3    H172806   6.135   2.558  11.077  1.4179  0.6552  1.2276
17105TIP3    H272807   6.067   2.610  11.202 -1.5452 -1.1263  0.4664
17106TIP3   OH272808   5.036   6.774  16.672 -0.2579  0.0612 -0.0960
17106TIP3    H172809   5.028   6.850  16.614 -0.7872 -0.8456 -1.2625
17106TIP3    H272810   5.113   6.793  16.726  0.9497  0.4617 -1.8810
17107TIP3   OH272811   0.413   6.067  15.802 -0.2935  0.0266  0.3414
17107TIP3    H172812   0.409   6.050  15.708  2.6124 -1.2198  0.3143
17107TIP3    H272813   0.322   6.067  15.831 -1.2517  0.0707 -2.3903
17108TIP3   OH272814   5.748   4.301  14.880  0.1705 -0.0375  0.9536
17108TIP3    H172815   5.759   4.280  14.787  0.1495 -1.5063  1.2681
17108TIP3    H272816   5.656   4.326  14.888  0.0336 -0.4567  0.6874
17109TIP3   OH272817   2.061   5.872  14.408  0.3252 -0.4300 -0.2496
17109TIP3    H172818   2.107   5.788  14.405  0.5635 -0.3445  0.6360
17109TIP3    H272819   1.991   5.864  14.344  0.4377 -1.2549 -0.2758
17110TIP3   OH272820   3.023   0.528   1.784 -0.4025 -0.0037 -0.6071
17110TIP3    H172821   3.025   0.440   1.821  1.9165 -0.4408 -1.5647
17110TIP3    H272822   2.965   0.577   1.842  1.2410 -1.1953  2.2575
17111TIP3   OH272823   6.059   0.157   4.499  0.1135 -0.0676 -0.7190
17111TIP3    H172824   6.052   0.063   4.486  0.0164 -0.0404 -0.8636
17111TIP3    H272825   6.025   0.172   4.588  0.0452 -0.1578 -0.7301
17112TIP3   OH272826   0.766   6.598  12.997 -0.1078  0.1117  0.2917
17112TIP3    H172827   0.836   6.532  13.001 -0.6021 -0.4581 -0.2438
17112TIP3    H272828   0.688   6.548  12.974 -0.9581  0.5564  2.0644
17113TIP3   OH272829   0.711   0.363   1.602  0.8136 -0.3862 -0.1801
17113TIP3    H172830   0.621   0.381   1.573  0.3544 -0.2301  1.2523
17113TIP3    H272831   0.759   0.443   1.581  0.1734  0.2466  0.6788
17114TIP3   OH272832   3.428   2.502   0.784  0.5179 -0.0287  0.3380
17114TIP3    H172833   3.455   2.555   0.709  0.2136 -0.8406 -0.3791
17114TIP3    H272834   3.429   2.561   0.858  0.6049  0.8630 -0.3593
17115TIP3   OH272835   4.150   5.560  14.259 -0.3871  0.3717  0.1544
17115TIP3    H172836   4.140   5.493  14.326  0.7415  0.8328  0.8304
17115TIP3    H272837   4.133   5.515  14.176  0.9132 -0.9110  0.5420
17116TIP3   OH272838   1.024   2.774   1.043 -0.1776 -0.2272 -0.2518
17116TIP3    H172839   0.976   2.831   0.985 -3.0758  0.3352  2.4209
17116TIP3    H272840   1.016   2.687   1.004  2.0580  0.6217 -2.9820
17117TIP3   OH272841   3.425   2.934   5.316  0.7948  0.0910 -0.2786
17117TIP3    H172842   3.431   3.020   5.274 -1.3460  0.9742  1.0565
17117TIP3    H272843   3.385   2.877   5.249  2.9626 -0.1560 -1.4523
17118TIP3   OH272844   1.801   2.114   0.584 -0.8935 -0.1780 -0.2187
17118TIP3    H172845   1.858   2.054   0.535 -0.4495  1.2414 -1.5129
17118TIP3    H272846   1.862   2.172   0.631 -1.2492  0.9599 -1.1247
17119TIP3   OH272847   6.376   6.580  13.387  0.4612 -0.2931 -0.5532
17119TIP3    H172848   6.304   6.580  13.450  0.9419 -0.5886  0.0052
17119TIP3    H272849   6.449   6.623  13.433 -0.2620  3.0380 -2.1913
17120TIP3   OH272850   1.209   0.286   1.471 -0.2571 -0.5155  0.6199
17120TIP3    H172851   1.114   0.278   1.458 -0.1441 -1.0917  0.1133
17120TIP3    H272852   1.221   0.376   1.503 -1.0255 -0.6076  1.2018
17121TIP3   OH272853   5.432   1.646   4.987  0.1935 -0.2071 -0.2658
17121TIP3    H172854   5.501   1.642   5.053  0.4380  2.3728 -0.2576
17121TIP3    H272855   5.451   1.573   4.927  2.0808 -0.4020  0.5154
17122TIP3   OH272856   3.344   4.336  16.886 -0.3805 -0.3976  0.1737
17122TIP3    H172857   3.257   4.373  16.903  0.0154  0.2780  0.7378
17122TIP3    H272858   3.328   4.242  16.877 -1.3643 -0.1518 -1.0470
17123TIP3   OH272859   6.198   0.683  14.803 -0.7324 -0.1164 -1.0289
17123TIP3    H172860   6.242   0.731  14.733  0.1813  1.0498  0.2968
17123TIP3    H272861   6.231   0.593  14.795 -2.5698 -0.6617 -3.6134
17124TIP3   OH272862   4.148   2.774  15.746 -0.1655 -0.1837 -0.2492
17124TIP3    H172863   4.183   2.837  15.809 -1.2577  0.4135 -0.2211
17124TIP3    H272864   4.158   2.818  15.661  0.1139 -0.4561 -0.3615
17125TIP3   OH272865   5.072   6.703   1.477 -0.3202  0.1677 -0.3156
17125TIP3    H172866   5.011   6.637   1.445 -0.0702 -0.5275  0.5850
17125TIP3    H272867   5.141   6.706   1.409 -0.1378 -0.7880 -0.1962
17126TIP3   OH272868   1.733   4.443   4.772 -1.0998  0.6092 -0.4424
17126TIP3    H172869   1.765   4.391   4.699 -0.9166  0.0227  0.0433
17126TIP3    H272870   1.787   4.522   4.772  0.0047 -0.1177  0.0311
17127TIP3   OH272871   1.900   4.028   4.121 -0.1045 -0.4262  0.2687
17127TIP3    H172872   1.994   4.025   4.103 -0.1292  0.0664  0.0418
17127TIP3    H272873   1.866   3.949   4.080  0.4369 -1.4817  1.7663
17128TIP3   OH272874   4.481   5.714  11.303  0.7468 -0.3167 -0.3501
17128TIP3    H172875   4.414   5.751  11.247  2.1158  0.0931 -1.7848
17128TIP3    H272876   4.490   5.777  11.375 -0.4489 -0.4404 -0.0771
17129TIP3   OH272877   4.008   6.616   3.300  0.9665 -0.2317  0.4145
17129TIP3    H172878   4.046   6.671   3.369 -2.2640 -0.5614  2.6781
17129TIP3    H272879   4.011   6.672   3.222  2.1477  1.2852  1.4711
17130TIP3   OH272880   5.773   0.494   5.875 -0.6666 -0.2844  0.6374
17130TIP3    H172881   5.705   0.448   5.924 -0.0091 -1.1820  0.7296
17130TIP3    H272882   5.790   0.439   5.799 -0.0642 -0.0605  0.6043
17131TIP3   OH272883   4.474   6.220  17.259  0.3886  0.2919 -0.5099
17131TIP3    H172884   4.554   6.173  17.235  0.3805  1.4307 -3.1197
17131TIP3    H272885   4.410   6.151  17.278  1.3860 -0.6770 -0.6066
17132TIP3   OH272886   4.979   6.694   0.137 -0.3812  0.0099 -0.2532
17132TIP3    H172887   4.978   6.787   0.113  0.0987  0.5249  1.6028
17132TIP3    H272888   5.027   6.691   0.220 -0.5657 -1.8785 -0.1792
17133TIP3   OH272889   4.215   6.806  15.204  0.0472 -0.2408  0.2246
17133TIP3    H172890   4.212   6.841  15.294  0.1568 -0.2780  0.2440
17133TIP3    H272891   4.164   6.726  15.207 -1.7465  0.8413 -0.2449
17134TIP3   OH272892   1.596   0.392   4.860  0.3308  0.2678  0.0560
17134TIP3    H172893   1.546   0.326   4.909 -1.4096  1.6781  0.3012
17134TIP3    H272894   1.550   0.399   4.776  0.1430  1.5531  0.2558
17135TIP3   OH272895   0.091   4.230  16.869 -0.0651  0.1298 -0.3742
17135TIP3    H172896   0.179   4.200  16.891 -0.7339 -0.7214  1.3017
17135TIP3    H272897   0.040   4.149  16.861 -1.0881  0.6648  0.5230
17136TIP3   OH272898   5.063   4.000  13.056 -0.0727  0.0199  0.4196
17136TIP3    H172899   5.036   3.981  13.146 -0.0594  0.8325  0.5945
17136TIP3    H272900   5.051   4.094  13.046  1.8262  0.2743  0.2110
17137TIP3   OH272901   2.718   0.334  17.256 -0.6742 -0.0927 -0.0673
17137TIP3    H172902   2.658   0.401  17.223  1.1884  1.1161 -1.2019
17137TIP3    H272903   2.804   0.360  17.222  0.6984 -1.1319  2.3626
17138TIP3   OH272904   0.402   3.986   4.562 -0.0981 -1.1178  0.2020
17138TIP3    H172905   0.435   3.910   4.610  2.2277 -1.0103 -1.0541
17138TIP3    H272906   0.460   4.058   4.588 -2.8080  0.5705  2.0704
17139TIP3   OH272907   5.247   4.229   0.957  0.1479  0.2258  0.2340
17139TIP3    H172908   5.333   4.226   0.999 -0.1805  0.9286  0.9758
17139TIP3    H272909   5.244   4.150   0.902  0.7773 -0.4458  1.1491
17140TIP3   OH272910   1.881   2.926  10.795  0.4878 -0.2703 -0.1350
17140TIP3    H172911   1.892   2.838  10.830 -0.4629  0.1950  1.4266
17140TIP3    H272912   1.808   2.918  10.733  0.3235 -0.5655  0.0921
17141TIP3   OH272913   6.444   6.162  14.255  0.2137 -0.2362 -0.1192
17141TIP3    H172914   6.517   6.144  14.196 -0.3073  1.6019 -1.4360
17141TIP3    H272915   6.373   6.106  14.223 -0.0994  0.8165 -1.4080
17142TIP3   OH272916   5.280   5.864   5.235  0.1049  0.0216 -0.1985
17142TIP3    H172917   5.327   5.781   5.249  0.1300 -0.0491 -0.6802
17142TIP3    H272918   5.245   5.887   5.321  2.0580  0.7159  0.4502
17143TIP3   OH272919   0.406   1.656  13.513 -0.0156  0.1054 -0.2145
17143TIP3    H172920   0.392   1.640  13.420  0.6719  0.9587 -0.4831
17143TIP3    H272921   0.404   1.751  13.522 -0.9596  0.0081  0.8014
17144TIP3   OH272922   6.039   5.070  15.775  0.3561 -0.1393 -1.0137
17144TIP3    H172923   6.047   4.974  15.782  0.9493 -0.0240  0.1952
17144TIP3    H272924   6.127   5.099  15.752  1.0495  0.3360  1.8869
17145TIP3   OH272925   5.324   6.246   6.033  0.8257 -0.0462  0.2703
17145TIP3    H172926   5.297   6.292   6.112 -0.9105  1.5310 -1.1288
17145TIP3    H272927   5.360   6.314   5.976 -0.0703 -0.6951 -1.1450
17146TIP3   OH272928   3.366   3.809   5.149 -0.3465  0.1278 -0.0701
17146TIP3    H172929   3.380   3.806   5.244 -1.1926 -1.0377  0.0256
17146TIP3    H272930   3.414   3.734   5.115 -0.6614  0.1188 -0.4954
17147TIP3   OH272931   5.924   6.456   5.779  0.2796 -0.2196  0.0455
17147TIP3    H172932   5.966   6.543   5.783 -0.9908  0.3766  0.8671
17147TIP3    H272933   5.997   6.396   5.760  1.5615  0.7449  1.6587
17148TIP3   OH272934   5.138   2.075   1.664  0.0850 -0.2585  0.0625
17148TIP3    H172935   5.138   2.005   1.598  0.9134 -1.0388  0.8645
17148TIP3    H272936   5.112   2.032   1.745 -1.0409  0.7198  0.2366
17149TIP3   OH272937   6.505   3.985   2.051  0.6587 -0.6528 -0.8869
17149TIP3    H172938   6.559   3.935   2.113  0.9737  0.9809  0.2276
17149TIP3    H272939   6.428   4.010   2.102  1.9729  2.7283 -0.2496
17150TIP3   OH272940   2.861   1.723  15.663 -0.2705  0.1139  0.3743
17150TIP3    H172941   2.806   1.699  15.737  0.3552  2.7240  1.7907
17150TIP3    H272942   2.942   1.673  15.675 -0.0636  0.7356  1.6385
17151TIP3   OH272943   5.180   6.744  13.646 -0.0745 -0.8461 -0.1181
17151TIP3    H172944   5.272   6.716  13.647  0.4132  0.6726  0.0127
17151TIP3    H272945   5.180   6.828  13.692 -2.0523 -2.2612  2.7469
17152TIP3   OH272946   6.676   4.921   1.646 -0.2081  0.3072 -0.7091
17152TIP3    H172947   6.761   4.879   1.660  0.2231  0.6666 -2.1103
17152TIP3    H272948   6.655   4.903   1.554 -0.5747  2.1347 -1.0193
17153TIP3   OH272949   0.484   4.224  13.044 -0.0011  0.6220  0.0185
17153TIP3    H172950   0.529   4.237  13.127 -1.4624 -0.2827  0.9913
17153TIP3    H272951   0.537   4.158  12.999  0.5208  0.7411  0.4373
17154TIP3   OH272952   2.372   1.484  11.521  0.4253 -0.0875 -0.0214
17154TIP3    H172953   2.384   1.457  11.430  0.1580 -2.0535  0.4808
17154TIP3    H272954   2.385   1.579  11.520 -0.0592  0.0053 -2.1833
17155TIP3   OH272955   6.323   3.583   0.242 -0.1841  0.3885 -0.5909
17155TIP3    H172956   6.243   3.612   0.287 -0.0328 -0.5996  0.3771
17155TIP3    H272957   6.380   3.659   0.242 -1.1253  1.1234 -1.3208
17156TIP3   OH272958   0.382   0.592  16.481  0.1963 -0.3439 -0.0298
17156TIP3    H172959   0.392   0.503  16.513  1.0179 -0.3951 -0.4011
17156TIP3    H272960   0.369   0.645  16.560 -0.2375 -0.7774  0.1934
17157TIP3   OH272961   0.145   1.844  13.717 -0.4219  0.3599  0.4259
17157TIP3    H172962   0.217   1.882  13.666 -1.2345 -0.8602 -1.7402
17157TIP3    H272963   0.189   1.799  13.789  0.8633  1.1403  0.1657
17158TIP3   OH272964   6.569   6.759   1.549 -0.5015  0.1832  0.6341
17158TIP3    H172965   6.623   6.712   1.613 -0.0854 -1.5783 -0.8952
17158TIP3    H272966   6.508   6.810   1.601 -0.3427 -1.3669  2.4284
17159TIP3   OH272967   5.224   0.254   1.610 -0.2892  0.3236  0.4394
17159TIP3    H172968   5.213   0.330   1.667  1.1482  0.6619  0.3069
17159TIP3    H272969   5.165   0.270   1.536 -1.5990  0.2492  1.4410
17160TIP3   OH272970   6.627   6.236  14.452  0.3034  0.1617 -0.0693
17160TIP3    H172971   6.582   6.313  14.486 -0.1014 -0.4087  0.7242
17160TIP3    H272972   6.561   6.189  14.401  0.0035 -0.6342  1.0280
17161TIP3   OH272973   0.099   0.075   0.612 -0.1637  0.1979  0.3832
17161TIP3    H172974   0.111   0.169   0.599 -0.1723  0.0461 -0.7773
17161TIP3    H272975   0.063   0.068   0.701 -1.0547  1.3669  0.1387
17162TIP3   OH272976   2.518   2.384   2.799 -0.3151 -0.3016 -0.1416
17162TIP3    H172977   2.516   2.333   2.718  2.2008 -0.8611  0.0581
17162TIP3    H272978   2.426   2.399   2.821 -1.0679 -1.6092 -2.1720
17163TIP3   OH272979   3.771   3.332  11.261 -0.0632 -0.3793 -0.4428
17163TIP3    H172980   3.714   3.407  11.279  0.2460 -0.5789  1.6130
17163TIP3    H272981   3.710   3.261  11.238 -0.5849 -0.3154  0.6974
17164TIP3   OH272982   5.802   6.286  13.121  0.4683 -0.6767 -0.1498
17164TIP3    H172983   5.892   6.314  13.135  0.2353  0.8515 -1.3856
17164TIP3    H272984   5.751   6.336  13.185  0.0365  2.1067 -2.4423
17165TIP3   OH272985   3.332   1.042  15.135 -0.6330 -0.5460 -0.7268
17165TIP3    H172986   3.266   0.994  15.185 -0.3429 -0.9520 -0.7309
17165TIP3    H272987   3.365   0.979  15.072  2.1794 -1.4573  1.4406
17166TIP3   OH272988   3.041   5.419  10.931 -0.0517 -0.4256 -0.1273
17166TIP3    H172989   3.132   5.447  10.921 -0.0997 -0.2501 -0.0875
17166TIP3    H272990   2.992   5.478  10.874 -0.4744  1.4054  1.9824
17167TIP3   OH272991   5.423   1.011  15.822  0.1683 -0.2619  0.6448
17167TIP3    H172992   5.402   1.048  15.907  1.5178 -0.0427  0.9027
17167TIP3    H272993   5.485   1.074  15.783 -1.1535  0.1379 -0.9059
17168TIP3   OH272994   5.139   0.092  12.040  0.3628 -0.2756 -0.0109
17168TIP3    H172995   5.134   0.188  12.039  1.5288 -0.1773  0.8250
17168TIP3    H272996   5.075   0.066  12.107 -1.5138 -0.2498 -1.7244
17169TIP3   OH272997   1.026   5.497   3.631 -0.2790 -0.3062  0.4873
17169TIP3    H172998   1.092   5.546   3.678 -0.9488  1.8055 -0.6316
17169TIP3    H272999   0.972   5.564   3.589 -2.3243 -1.9718  0.2875
17170TIP3   OH273000   3.829   3.161   6.172 -0.0234  0.1050  0.3716
17170TIP3    H173001   3.849   3.210   6.251  0.1264 -0.0466  0.4281
17170TIP3    H273002   3.789   3.080   6.204  2.4307 -1.1537  0.4246
17171TIP3   OH273003   4.290   5.146  16.028 -0.2752 -0.2794 -0.7135
17171TIP3    H173004   4.341   5.190  15.960  1.3275 -0.0213  0.5866
17171TIP3    H273005   4.276   5.058  15.994 -1.1034  0.3593 -2.1391
17172TIP3   OH273006   2.868   2.491  16.744  0.1990 -0.6156  0.0749
17172TIP3    H173007   2.904   2.574  16.773 -0.1008 -0.0884 -0.9984
17172TIP3    H273008   2.942   2.431  16.744  0.0926 -0.8672  2.5578
17173TIP3   OH273009   3.985   0.790   1.380 -0.5162 -0.5618  0.1605
17173TIP3    H173010   4.045   0.816   1.310 -2.2948 -0.9608 -1.5794
17173TIP3    H273011   4.016   0.838   1.457  0.1648  1.6856 -1.4174
17174TIP3   OH273012   5.335   4.988  12.010 -0.1307  0.5626 -0.3592
17174TIP3    H173013   5.427   4.995  12.034 -0.5201 -1.1277  1.9772
17174TIP3    H273014   5.328   4.904  11.966 -0.8209 -0.1981  1.1435
17175TIP3   OH273015   0.038   1.358  10.751  0.0756  0.5078 -0.1252
17175TIP3    H173016  -0.032   1.417  10.779 -1.3490 -1.1792 -0.0005
17175TIP3    H273017   0.092   1.345  10.830 -0.3783  0.5839  0.1983
17176TIP3   OH273018   0.173   1.283  17.181 -0.0496 -0.3983 -0.1125
17176TIP3    H173019   0.128   1.206  17.216 -1.5123 -0.3248 -1.6998
17176TIP3    H273020   0.259   1.250  17.154  0.6406 -0.7158  2.2109
17177TIP3   OH273021   4.992   5.144  14.962 -0.2011 -0.1141  0.0991
17177TIP3    H173022   4.996   5.238  14.980 -0.8488 -0.1410  0.4324
17177TIP3    H273023   5.021   5.135  14.872  2.1193  0.1585  0.7531
17178TIP3   OH273024   2.355   3.027   2.007  0.3286  0.0441  0.1886
17178TIP3    H173025   2.277   3.078   2.026  0.7190  0.5952  0.3290
17178TIP3    H273026   2.330   2.972   1.933  0.0793  0.8571 -0.3422
17179TIP3   OH273027   1.376   5.097  14.163  0.2711  0.4260  0.5165
17179TIP3    H173028   1.315   5.164  14.132  1.0289  0.1050 -1.8524
17179TIP3    H273029   1.328   5.015  14.154  0.6782  0.2761 -0.3933
17180TIP3   OH273030   6.512   0.136   4.207 -0.2635 -0.4831  0.1371
17180TIP3    H173031   6.429   0.143   4.254 -1.0562 -0.3167 -1.2246
17180TIP3    H273032   6.490   0.088   4.127  0.4106  1.6325 -1.4143
17181TIP3   OH273033   4.781   1.498  15.791 -0.0852 -0.0236 -0.1248
17181TIP3    H173034   4.766   1.450  15.872 -0.8777 -1.1797 -0.9217
17181TIP3    H273035   4.849   1.562  15.813  2.2995 -2.5963  0.5964
17182TIP3   OH273036   6.694   4.428  16.704 -0.3314 -0.2048 -0.1432
17182TIP3    H173037   6.699   4.457  16.612  3.1829 -0.6605 -0.2506
17182TIP3    H273038   6.644   4.347  16.701 -1.7809  0.6844 -1.3528
17183TIP3   OH273039   5.066   0.038   1.698  0.3044 -0.3163 -0.1804
17183TIP3    H173040   5.056  -0.017   1.620 -0.6669 -0.8551  0.3033
17183TIP3    H273041   5.125   0.108   1.670  1.1364 -1.2920 -0.9760
17184TIP3   OH273042   1.811   1.667  14.737  0.5433 -0.3559  0.2108
17184TIP3    H173043   1.733   1.618  14.710 -0.1595  1.0468 -0.3788
17184TIP3    H273044   1.822   1.645  14.830 -0.6258 -0.4721  0.3357
17185TIP3   OH273045   5.878   2.203   3.454  0.2617 -0.4160 -0.1434
17185TIP3    H173046   5.920   2.137   3.510 -0.3353  0.0429  0.8796
17185TIP3    H273047   5.791   2.167   3.438  0.1812 -0.2046 -0.1712
17186TIP3   OH273048   1.057   0.868   1.196  0.1428 -0.3597 -0.3037
17186TIP3    H173049   1.137   0.915   1.219 -0.3701  0.5297 -0.2753
17186TIP3    H273050   1.085   0.801   1.134  0.6427  1.2920 -1.9751
17187TIP3   OH273051   2.235   4.158   4.632 -0.4425 -0.1944 -0.4388
17187TIP3    H173052   2.233   4.196   4.720 -1.6646 -2.5993  0.6684
17187TIP3    H273053   2.158   4.193   4.589  0.2772  1.1675 -0.6720
17188TIP3   OH273054   2.018   3.769  15.682 -0.6533  0.4576 -0.4733
17188TIP3    H173055   2.020   3.853  15.729 -0.5348  0.9413 -1.3361
17188TIP3    H273056   1.944   3.777  15.622 -1.0670 -0.3260 -0.0820
17189TIP3   OH273057   0.891   1.958  13.166  0.8040  0.0116  0.2283
17189TIP3    H173058   0.808   1.966  13.213 -0.1034  2.3948 -1.5674
17189TIP3    H273059   0.866   1.928  13.078  1.9257  0.1544 -0.1584
17190TIP3   OH273060   4.319   0.477   5.902 -0.3944 -0.4270 -0.1884
17190TIP3    H173061   4.315   0.382   5.907 -1.3244 -0.3446  1.8488
17190TIP3    H273062   4.387   0.502   5.965 -1.1063  0.2789  0.3315
17191TIP3   OH273063   5.536   3.335  13.393  1.1404  0.3630 -0.6551
17191TIP3    H173064   5.539   3.252  13.345  1.8208 -1.2252  1.9265
17191TIP3    H273065   5.508   3.310  13.481  2.1762  2.7689  0.4277
17192TIP3   OH273066   1.586   3.280   0.555  0.4876  0.1845  0.4899
17192TIP3    H173067   1.630   3.202   0.588  1.5118 -0.6879 -2.6794
17192TIP3    H273068   1.644   3.315   0.488 -0.7993  2.6635  0.5290
17193TIP3   OH273069   2.589   3.173   0.781 -0.3795 -0.5191  0.1931
17193TIP3    H173070   2.612   3.196   0.691 -0.9193 -1.2956 -0.1510
17193TIP3    H273071   2.563   3.082   0.776 -2.0220 -0.1093  0.8389
17194TIP3   OH273072   3.010   2.005  10.349  0.6079  0.6692 -0.7432
17194TIP3    H173073   2.991   1.928  10.296 -0.5269  0.0043  0.5586
17194TIP3    H273074   3.075   2.054  10.298 -0.5006  0.1452 -2.7765
17195TIP3   OH273075   5.627   6.782   5.484 -0.5376 -0.1833  0.1083
17195TIP3    H173076   5.631   6.877   5.497 -0.6285 -0.4648  2.4481
17195TIP3    H273077   5.714   6.759   5.452 -0.2122  0.5698  0.4334
17196TIP3   OH273078   4.170   1.067   1.328  0.2531 -0.1431  0.0922
17196TIP3    H173079   4.245   1.115   1.293  0.2879 -0.2304  0.0451
17196TIP3    H273080   4.094   1.108   1.288  0.1825  0.8641  1.2187
17197TIP3   OH273081   5.531   6.418   1.839  0.0772 -0.5357 -0.0245
17197TIP3    H173082   5.557   6.510   1.846  1.4397 -0.9623  0.8867
17197TIP3    H273083   5.522   6.403   1.745  1.0750  0.2110 -0.2576
17198TIP3   OH273084   1.255   4.745   0.061 -0.1426 -0.0532 -0.2321
17198TIP3    H173085   1.302   4.680   0.114  0.2523  0.5364  0.1587
17198TIP3    H273086   1.266   4.715  -0.029 -0.1975 -0.6742 -0.0402
17199TIP3   OH273087   1.787   4.139  12.278  0.0307 -0.1206  0.3457
17199TIP3    H173088   1.749   4.224  12.255  0.4259  0.3547  1.3925
17199TIP3    H273089   1.866   4.161  12.328  2.2898 -1.0335 -2.5105
17200TIP3   OH273090   2.199   0.376   6.428 -0.0842 -0.5901 -0.4000
17200TIP3    H173091   2.119   0.419   6.397  0.1326 -1.6054 -2.6097
17200TIP3    H273092   2.168   0.297   6.472 -0.3482 -0.1255  0.2537
17201TIP3   OH273093   0.661   4.558   4.140  0.0570  0.2759  0.2034
17201TIP3    H173094   0.636   4.505   4.065  2.1078  1.6266 -1.5382
17201TIP3    H273095   0.579   4.600   4.168 -1.0713 -1.6619 -0.0567
17202TIP3   OH273096   6.155   2.210   5.898  0.4208  0.3002  0.7191
17202TIP3    H173097   6.094   2.149   5.940 -0.4850  1.3799  1.0325
17202TIP3    H273098   6.240   2.189   5.935  0.0542 -0.4756  1.1406
17203TIP3   OH273099   3.930   6.307  14.770  0.3595  0.6511  0.1656
17203TIP3    H173100   3.977   6.227  14.745  1.0037  1.2021 -0.4285
17203TIP3    H273101   3.839   6.279  14.781  0.5976 -0.1881  0.1037
17204TIP3   OH273102   2.069   1.276   3.253 -0.2514 -0.2091 -0.2561
17204TIP3    H173103   1.984   1.284   3.294 -0.7816  0.6219 -1.4508
17204TIP3    H273104   2.129   1.322   3.312 -0.7945  0.0281  0.1131
17205TIP3   OH273105   1.905   1.339  12.200 -0.2171  0.3954  0.0290
17205TIP3    H173106   1.976   1.305  12.147 -1.1564 -0.9869 -0.4123
17205TIP3    H273107   1.851   1.389  12.139  0.6529  1.9540  0.4843
17206TIP3   OH273108   2.607   6.136   4.356  0.0447  0.6937  0.1080
17206TIP3    H173109   2.626   6.165   4.445 -0.0276  1.2502 -0.0566
17206TIP3    H273110   2.568   6.050   4.367 -1.8601  1.5970  0.7434
17207TIP3   OH273111   3.347   5.044  11.741  0.4722  0.1719  0.3662
17207TIP3    H173112   3.283   5.115  11.749  0.5402  0.2662  0.0847
17207TIP3    H273113   3.425   5.076  11.785  0.2082 -0.0921  1.0472
17208TIP3   OH273114   6.237   6.063  15.156  0.1681 -0.1248  0.4279
17208TIP3    H173115   6.145   6.047  15.136  0.3439 -0.7893  0.1418
17208TIP3    H273116   6.252   6.016  15.238  0.5894 -1.1599 -0.2219
17209TIP3   OH273117   6.143   4.065   0.552  0.0464 -0.7196  0.1266
17209TIP3    H173118   6.130   4.158   0.570  4.8007  0.0972  0.5957
17209TIP3    H273119   6.104   4.020   0.627 -1.3006  0.9024  0.4687
17210TIP3   OH273120   2.652   0.811  17.119  0.2518  0.1964 -0.0712
17210TIP3    H173121   2.686   0.787  17.032 -2.4640  0.6980 -1.3827
17210TIP3    H273122   2.730   0.823  17.173  2.0309 -0.5931 -2.3085
17211TIP3   OH273123   1.687   3.859   4.630 -0.2585 -0.0254  0.2640
17211TIP3    H173124   1.689   3.780   4.577 -0.7129  1.5802 -2.3473
17211TIP3    H273125   1.775   3.896   4.623 -0.1936 -0.0165  1.0290
17212TIP3   OH273126   1.427   2.580  15.144 -0.2741  0.2309 -0.4422
17212TIP3    H173127   1.473   2.508  15.187 -0.2176  1.5117  1.8094
17212TIP3    H273128   1.489   2.614  15.080  0.4897 -0.3930 -0.0440
17213TIP3   OH273129   1.258   4.300  10.294  0.0435  0.1144 -0.1520
17213TIP3    H173130   1.251   4.320  10.388  1.5488 -0.6213  0.1498
17213TIP3    H273131   1.217   4.214  10.285 -0.1416  0.2052 -0.1744
17214TIP3   OH273132   2.548   3.239   4.876  0.2855  0.2572  0.4145
17214TIP3    H173133   2.571   3.146   4.866 -0.2944  0.0233  1.1573
17214TIP3    H273134   2.455   3.238   4.899  0.7059  0.8979  2.3200
17215TIP3   OH273135   3.818   4.418   4.741 -0.0734 -0.0273 -0.2251
17215TIP3    H173136   3.821   4.512   4.758 -2.0714  0.5992 -2.5691
17215TIP3    H273137   3.883   4.404   4.672  0.6857 -0.5047  0.5801
17216TIP3   OH273138   4.550   0.222   6.101 -0.1748  0.5722 -0.7183
17216TIP3    H173139   4.458   0.217   6.074 -0.1166 -0.9350 -0.7681
17216TIP3    H273140   4.595   0.256   6.024 -0.5909  0.4872 -1.0095
17217TIP3   OH273141   5.312   1.744  11.035  0.5823 -0.0022 -0.1071
17217TIP3    H173142   5.386   1.685  11.047  1.3385  0.9952  0.2511
17217TIP3    H273143   5.298   1.784  11.122 -0.0350  0.2164 -0.2961
17218TIP3   OH273144   6.736   5.326   4.648  0.0523  0.0780  0.0553
17218TIP3    H173145   6.775   5.335   4.561 -0.1941  2.2762  0.1010
17218TIP3    H273146   6.791   5.262   4.693  2.3803  1.5232 -0.5714
17219TIP3   OH273147   0.385   1.988   6.216 -0.3855  0.0467 -0.1671
17219TIP3    H173148   0.412   1.928   6.285 -0.5293  0.8016  0.5650
17219TIP3    H273149   0.341   1.933   6.151 -1.8118 -0.4591  1.1757
17220TIP3   OH273150   3.854   1.069   5.194 -0.2451  0.3666 -0.0191
17220TIP3    H173151   3.859   0.996   5.256 -0.1150  0.8994  0.6146
17220TIP3    H273152   3.944   1.097   5.183 -0.4946  2.1593  1.8822
17221TIP3   OH273153   0.230   4.421  11.019 -0.0002 -0.7219  0.4344
17221TIP3    H173154   0.137   4.419  10.998  0.3925 -2.8426 -1.4412
17221TIP3    H273155   0.274   4.416  10.935  1.8820  1.2456  1.2051
17222TIP3   OH273156   2.192   0.297  15.016 -0.6984  0.0591 -0.4975
17222TIP3    H173157   2.279   0.281  14.981 -0.7296 -0.7498 -0.2244
17222TIP3    H273158   2.170   0.218  15.065 -1.2751  0.5577  0.0760
17223TIP3   OH273159   2.340   0.039  12.464  0.5993 -0.4638  0.7599
17223TIP3    H173160   2.298  -0.037  12.424  0.1979 -0.6331  1.4845
17223TIP3    H273161   2.267   0.089  12.502  0.8466  0.3414  0.1982
17224TIP3   OH273162   1.721   0.838   5.607 -0.0117  0.5166  0.0472
17224TIP3    H173163   1.659   0.785   5.658  1.5895  0.3599  1.9571
17224TIP3    H273164   1.795   0.780   5.591 -0.4722  0.5395 -2.6642
17225TIP3   OH273165   4.122   3.321   3.325 -0.4326 -0.1378  0.0055
17225TIP3    H173166   4.209   3.356   3.308 -0.3334 -0.5015 -0.2369
17225TIP3    H273167   4.137   3.242   3.377 -0.5627 -0.6757 -0.7560
17226TIP3   OH273168   0.011   2.332   0.689 -0.2699 -0.3805 -0.3835
17226TIP3    H173169   0.057   2.416   0.678 -1.5399  0.3000 -0.6663
17226TIP3    H273170   0.038   2.302   0.776  0.4583  0.1582 -0.4124
17227TIP3   OH273171   4.852   2.820  13.703  0.2066  0.0245  0.2273
17227TIP3    H173172   4.841   2.763  13.627  2.6958  0.1289 -0.2985
17227TIP3    H273173   4.836   2.908  13.669 -2.4689 -0.1827  0.7713
17228TIP3   OH273174   6.688   3.983   3.916 -0.5606 -0.3233  0.3963
17228TIP3    H173175   6.737   3.930   3.979 -0.7443 -0.7067  0.2205
17228TIP3    H273176   6.743   4.059   3.900  0.9032 -1.6534 -1.2755
17229TIP3   OH273177   5.125   0.791  12.210 -0.2248 -0.0861 -0.1715
17229TIP3    H173178   5.103   0.703  12.239 -1.4062  0.1380 -0.3140
17229TIP3    H273179   5.123   0.786  12.114  0.0035  0.0218 -0.1823
17230TIP3   OH273180   1.210   4.279  12.095 -0.3455  0.2005 -0.0425
17230TIP3    H173181   1.152   4.203  12.096  1.0277 -0.8861  0.4778
17230TIP3    H273182   1.221   4.302  12.187  0.3265  0.1664 -0.1094
17231TIP3   OH273183   0.744   0.579   5.906  0.2390 -0.4558  0.2801
17231TIP3    H173184   0.778   0.506   5.854 -1.3786 -1.2583  0.3125
17231TIP3    H273185   0.773   0.560   5.995  2.2653  0.4706 -0.1149
17232TIP3   OH273186   6.706   4.231  14.242  0.3161  0.4989 -0.1284
17232TIP3    H173187   6.697   4.299  14.176 -0.6150  0.1556 -0.3737
17232TIP3    H273188   6.780   4.178  14.212  0.5488  0.9419 -0.3461
17233TIP3   OH273189   2.571   1.934  16.815 -0.2654  0.9332  0.2968
17233TIP3    H173190   2.555   1.843  16.841 -0.7819  0.8672 -0.2163
17233TIP3    H273191   2.617   1.973  16.889 -0.6000  0.4210  0.7855
17234TIP3   OH273192   3.107   6.254   1.798  0.0555 -0.6609  0.3471
17234TIP3    H173193   3.051   6.329   1.819  1.1902  0.0308  0.9741
17234TIP3    H273194   3.049   6.178   1.803 -1.1066  0.1563 -0.2557
17235TIP3   OH273195   5.625   6.415   4.982 -0.3190 -0.5373  0.5493
17235TIP3    H173196   5.708   6.452   5.011 -0.0798 -0.5639 -0.0804
17235TIP3    H273197   5.650   6.344   4.922 -0.7880 -0.9327  0.8103
17236TIP3   OH273198   4.750   4.681   1.005  0.4786  0.8805  0.6079
17236TIP3    H173199   4.787   4.703   1.090  4.5221 -1.2409 -0.3347
17236TIP3    H273200   4.822   4.696   0.943 -0.8649 -1.6429 -1.7930
17237TIP3   OH273201   2.539   6.349  16.400  0.7407  0.8669  0.6649
17237TIP3    H173202   2.570   6.434  16.432  0.4784  1.3986 -0.4519
17237TIP3    H273203   2.593   6.332  16.323  1.1047 -0.2133  1.1344
17238TIP3   OH273204   2.016   5.892   4.391 -0.2052  0.3596 -0.8942
17238TIP3    H173205   1.974   5.821   4.343 -1.8774  1.8277 -1.7466
17238TIP3    H273206   2.064   5.849   4.461 -0.5963 -1.6357 -1.7879
17239TIP3   OH273207   0.484   6.477  14.449 -0.2363  0.2136 -0.4326
17239TIP3    H173208   0.436   6.475  14.367 -1.2833  0.8317  0.1383
17239TIP3    H273209   0.417   6.496  14.516  0.7918  1.1125  0.3898
17240TIP3   OH273210   1.803   5.551  13.969  0.2756 -0.1720  0.0926
17240TIP3    H173211   1.738   5.480  13.969  2.2093 -2.0225 -0.8723
17240TIP3    H273212   1.758   5.624  13.928 -0.8082 -1.8310 -1.8651
17241TIP3   OH273213   4.486   4.551  17.218 -0.2859 -0.0841 -0.2044
17241TIP3    H173214   4.449   4.590  17.139  0.0638 -0.8295 -0.7539
17241TIP3    H273215   4.581   4.555  17.204 -0.2264 -0.3345  0.1094
17242TIP3   OH273216   5.193   2.347  16.791  0.2779 -0.2224 -0.0107
17242TIP3    H173217   5.250   2.318  16.862  2.4832  1.0861 -1.1518
17242TIP3    H273218   5.161   2.433  16.819  1.8127  0.6659 -0.9138
17243TIP3   OH273219   6.148   0.260   2.981  0.1758  0.3222 -0.0411
17243TIP3    H173220   6.127   0.319   2.909 -0.1530 -0.2742 -0.4349
17243TIP3    H273221   6.195   0.315   3.044 -1.0107  1.2663  0.0583
17244TIP3   OH273222   2.926   6.091   4.612  0.1250 -0.2281  0.4746
17244TIP3    H173223   2.981   6.068   4.687 -1.3658 -1.0034  1.3528
17244TIP3    H273224   2.872   6.014   4.597  0.6032 -0.2289 -1.6394
17245TIP3   OH273225   3.969   4.379   0.366 -0.0231  0.6570  0.0351
17245TIP3    H173226   3.937   4.425   0.288 -1.7993 -2.1339 -1.0350
17245TIP3    H273227   3.890   4.348   0.410  0.9912 -2.0397  0.1801
17246TIP3   OH273228   4.699   2.026   3.168 -0.8532  0.3447  0.2306
17246TIP3    H173229   4.729   2.027   3.259  0.6284  1.9491 -0.2140
17246TIP3    H273230   4.610   2.060   3.172 -1.0337 -0.2061  1.1509
17247TIP3   OH273231   2.485   0.722   0.334  0.1769  0.2924 -0.0774
17247TIP3    H173232   2.426   0.784   0.293 -2.0287 -0.2751  2.0089
17247TIP3    H273233   2.430   0.648   0.358  2.2759 -1.4723 -0.3809
17248TIP3   OH273234   3.991   1.993   1.660 -0.1072 -0.4131 -0.4395
17248TIP3    H173235   3.920   1.952   1.610 -2.0509  0.7188  1.2269
17248TIP3    H273236   3.948   2.027   1.739  1.7736  2.6851 -0.5823
17249TIP3   OH273237   2.868   6.640  15.547 -0.6956 -0.0722 -0.1716
17249TIP3    H173238   2.931   6.574  15.517 -0.9740 -0.3991 -0.0440
17249TIP3    H273239   2.854   6.620  15.639 -1.5718 -0.4826 -0.3875
17250TIP3   OH273240   5.589   4.284  15.903  0.3744 -0.0253  0.3442
17250TIP3    H173241   5.606   4.358  15.844  2.8886 -1.2521 -0.6648
17250TIP3    H273242   5.494   4.273  15.901  0.0859  2.0865 -0.8212
17251TIP3   OH273243   0.776   4.159  16.071  0.0132 -0.1094  0.5172
17251TIP3    H173244   0.734   4.145  16.155  0.5595  2.5366  1.3212
17251TIP3    H273245   0.870   4.166  16.092  0.2605 -0.3693 -0.4465
17252TIP3   OH273246   3.519   5.597  15.795  0.2931  0.0476  0.2538
17252TIP3    H173247   3.551   5.587  15.705  0.1121 -1.0779  0.2993
17252TIP3    H273248   3.598   5.597  15.849  0.4024  0.7275  0.1032
17253TIP3   OH273249   0.075   5.065   2.957 -0.6340 -0.1522 -0.2645
17253TIP3    H173250   0.071   5.116   3.037 -0.7425 -1.3853  0.5472
17253TIP3    H273251   0.150   5.006   2.969  0.1007  0.4587 -1.5862
17254TIP3   OH273252   4.729   5.110   4.393 -0.1534 -0.4460  0.2260
17254TIP3    H173253   4.660   5.153   4.443  0.4207 -0.0262  0.6729
17254TIP3    H273254   4.799   5.175   4.386  0.8812 -1.3984  1.2248
17255TIP3   OH273255   5.700   3.295  11.128 -1.0762 -0.2625 -0.6746
17255TIP3    H173256   5.787   3.295  11.087 -2.1358 -0.4621 -3.0739
17255TIP3    H273257   5.682   3.387  11.147 -0.0178 -0.3034  0.6668
17256TIP3   OH273258   2.323   1.510  12.164  0.0637  0.0315 -0.0714
17256TIP3    H173259   2.361   1.594  12.139  1.8144 -0.0156  2.1488
17256TIP3    H273260   2.250   1.532  12.222  0.8758  0.0542  0.9690
17257TIP3   OH273261   4.603   1.119  12.411 -0.1238 -0.1288 -0.0338
17257TIP3    H173262   4.528   1.060  12.414 -0.7796  0.7084  0.2492
17257TIP3    H273263   4.677   1.063  12.386 -1.0400 -0.7595 -1.4285
17258TIP3   OH273264   4.921   5.603   5.762 -0.1202 -0.2114 -0.0631
17258TIP3    H173265   4.908   5.682   5.814  0.6072  1.5505 -2.4127
17258TIP3    H273266   4.853   5.543   5.793 -1.5852  1.8162  0.8746
17259TIP3   OH273267   2.354   3.007  11.767 -0.0049 -0.1713  0.4285
17259TIP3    H173268   2.287   3.050  11.714  0.9727  1.0024  0.0694
17259TIP3    H273269   2.333   2.914  11.764 -1.7625  0.1899  0.5758
17260TIP3   OH273270   4.360   1.744   2.650  0.1066  0.3503 -0.1410
17260TIP3    H173271   4.389   1.810   2.587  0.8714 -1.0984 -1.3530
17260TIP3    H273272   4.282   1.705   2.610  0.4620 -0.4271 -0.0692
17261TIP3   OH273273   2.845   5.500  16.949 -0.3179 -0.1514 -0.3060
17261TIP3    H173274   2.936   5.517  16.925 -0.5861  0.5985 -0.8518
17261TIP3    H273275   2.810   5.586  16.971 -0.7852 -0.4923  0.3051
17262TIP3   OH273276   5.546   1.157  12.878  0.0124 -0.6292  0.2843
17262TIP3    H173277   5.473   1.138  12.819 -0.1826 -2.9022  1.1782
17262TIP3    H273278   5.584   1.238  12.843 -0.0390 -1.8654 -2.9963
17263TIP3   OH273279   1.322   4.885   3.543 -0.4475  0.4179 -0.3874
17263TIP3    H173280   1.278   4.870   3.627 -1.7758 -0.8354 -1.2531
17263TIP3    H273281   1.414   4.897   3.566 -0.4786 -1.6721  1.1292
17264TIP3   OH273282   0.808   3.775  17.206 -0.8834  0.0182 -0.2322
17264TIP3    H173283   0.841   3.831  17.276  1.5501 -1.9675  0.3933
17264TIP3    H273284   0.749   3.713  17.250  0.8325 -1.3825  0.2156
17265TIP3   OH273285   3.248   1.834   2.973 -0.5581 -0.0124  0.5543
17265TIP3    H173286   3.303   1.757   2.984  0.3034  0.5069  0.0015
17265TIP3    H273287   3.282   1.877   2.894 -1.2890  0.7097  0.6141
17266TIP3   OH273288   4.981   2.617  15.714 -0.0219  0.4725 -0.4353
17266TIP3    H173289   4.960   2.579  15.629 -1.5171  0.8773 -0.2829
17266TIP3    H273290   5.031   2.696  15.694 -0.8325  0.8570 -0.9733
17267TIP3   OH273291   4.676   6.586  12.324  0.3664  0.2942 -0.1046
17267TIP3    H173292   4.618   6.595  12.249 -0.4588 -1.4205  0.2931
17267TIP3    H273293   4.762   6.613  12.291 -0.4658  2.1316 -0.9027
17268TIP3   OH273294   6.684   1.008  12.311  0.0679  0.0240  0.1507
17268TIP3    H173295   6.605   0.966  12.346  0.9082 -1.1614  0.6978
17268TIP3    H273296   6.737   1.029  12.388  0.6069  0.1387 -0.2448
17269TIP3   OH273297   3.024   1.689   3.542  0.2508 -0.3029 -0.2026
17269TIP3    H173298   2.959   1.646   3.598  1.1684 -0.3926  0.8288
17269TIP3    H273299   2.993   1.673   3.452  0.4872 -3.0646  0.1186
17270TIP3   OH273300   4.758   2.265   6.003 -0.3642 -0.2089 -0.4142
17270TIP3    H173301   4.736   2.201   6.070  0.5224 -1.9642 -1.6955
17270TIP3    H273302   4.764   2.348   6.049 -0.7330 -1.1903  1.4847
17271TIP3   OH273303   3.251   2.547   1.344 -0.4926  0.0432  0.5761
17271TIP3    H173304   3.279   2.616   1.404  0.3134 -0.7663  1.1613
17271TIP3    H273305   3.183   2.587   1.290 -0.7348  0.9914  1.5683
17272TIP3   OH273306   0.140   1.133   5.674  0.4539  0.4549  0.5731
17272TIP3    H173307   0.118   1.053   5.723  1.4923  1.8697  3.5900
17272TIP3    H273308   0.145   1.104   5.583  0.6221 -2.8907  1.4931
17273TIP3   OH273309   1.706   4.150  11.917  0.6624 -0.4218  0.4593
17273TIP3    H173310   1.668   4.087  11.856 -0.0091  1.7556 -1.4930
17273TIP3    H273311   1.631   4.188  11.962  0.9618 -0.1375  0.7245
17274TIP3   OH273312   3.947   2.128   4.729 -0.9021 -0.2030  0.4368
17274TIP3    H173313   4.042   2.130   4.740 -0.7413  0.3307 -0.8458
17274TIP3    H273314   3.913   2.102   4.815  0.3668  0.2660  1.1077
17275TIP3   OH273315   5.410   0.785  16.000 -0.7179  0.4373  0.5649
17275TIP3    H173316   5.402   0.853  15.933  1.5651  0.4569  0.2585
17275TIP3    H273317   5.414   0.834  16.082  0.3543  0.6486  0.3921
17276TIP3   OH273318   6.458   4.680  16.082 -0.0721  0.6719  0.4942
17276TIP3    H173319   6.448   4.753  16.020 -1.3534  0.7295  0.7363
17276TIP3    H273320   6.484   4.722  16.164 -0.7339  0.8682  0.6134
17277TIP3   OH273321   0.310   5.914  12.636  0.3773 -0.2266 -0.3467
17277TIP3    H173322   0.336   5.958  12.717  1.0822 -0.0257 -0.6729
17277TIP3    H273323   0.295   5.986  12.574 -0.0392 -0.3866 -0.4399
17278TIP3   OH273324   4.576   5.133   3.646 -0.3755  0.1815 -0.0536
17278TIP3    H173325   4.599   5.189   3.720  0.0177 -0.2347  0.1404
17278TIP3    H273326   4.646   5.068   3.642 -0.2280  0.3819 -0.9838
17279TIP3   OH273327   2.190   4.653   2.011  0.1339 -0.1637 -0.2324
17279TIP3    H173328   2.277   4.681   2.039 -0.4177  0.1763  1.2311
17279TIP3    H273329   2.160   4.723   1.953  0.6153 -0.0193 -0.3115
17280TIP3   OH273330   5.284   1.123  15.311 -0.2742 -0.8606 -0.6302
17280TIP3    H173331   5.307   1.211  15.284  0.1015 -1.0038 -0.7723
17280TIP3    H273332   5.247   1.082  15.233  0.5179 -1.1703 -0.8444
17281TIP3   OH273333   4.262   6.264   5.622  0.0768 -0.6543  0.4123
17281TIP3    H173334   4.186   6.212   5.647  0.4133 -1.3528  0.0132
17281TIP3    H273335   4.306   6.212   5.555  1.2121 -0.5154  1.0213
17282TIP3   OH273336   1.519   6.703  16.859  0.0864 -0.3569  0.0542
17282TIP3    H173337   1.457   6.664  16.797  0.1244 -0.1208 -0.1310
17282TIP3    H273338   1.513   6.647  16.936 -0.9843  0.1459  0.3538
17283TIP3   OH273339   2.116   0.662   4.867  0.2670 -0.1554  0.0817
17283TIP3    H173340   2.070   0.716   4.802 -0.9643 -0.0653  0.9839
17283TIP3    H273341   2.169   0.602   4.815 -0.4588  0.0993 -0.9971
17284TIP3   OH273342   3.674   2.490   6.261 -0.1557 -0.4681 -0.1778
17284TIP3    H173343   3.729   2.534   6.196  0.6725  0.8186  1.3314
17284TIP3    H273344   3.728   2.417   6.292  0.2970  0.1557  0.5316
17285TIP3   OH273345   1.124   4.720  11.839 -0.1955 -0.6825 -0.1338
17285TIP3    H173346   1.199   4.665  11.816  0.5975  0.4338 -0.3161
17285TIP3    H273347   1.128   4.726  11.935 -0.0898 -0.6667 -0.1392
17286TIP3   OH273348   6.135   0.895   3.189  0.0471 -0.0159  0.5414
17286TIP3    H173349   6.136   0.906   3.094  0.6801 -0.6394  0.4660
17286TIP3    H273350   6.078   0.965   3.221  1.8345  1.8176 -0.0941
17287TIP3   OH273351   5.680   2.743  14.409 -0.0033 -0.5823 -0.0804
17287TIP3    H173352   5.667   2.653  14.439  1.0335 -0.8825 -0.5035
17287TIP3    H273353   5.759   2.740  14.356 -0.4292  0.4253 -0.8007
17288TIP3   OH273354   2.306   4.469   1.700  0.0433 -0.1596  0.6010
17288TIP3    H173355   2.304   4.523   1.621  0.3426 -0.5540  0.3159
17288TIP3    H273356   2.394   4.483   1.736  0.3622 -0.9710  0.1548
17289TIP3   OH273357   5.539   4.435   3.671  0.1708  0.7618  0.2737
17289TIP3    H173358   5.559   4.501   3.738  2.0333  0.1304  0.4156
17289TIP3    H273359   5.597   4.362   3.691  1.3767  0.8310 -2.4266
17290TIP3   OH273360   4.194   0.336  16.655  0.2222  0.1276  0.2436
17290TIP3    H173361   4.190   0.415  16.709  1.5840 -0.0269  0.6085
17290TIP3    H273362   4.107   0.329  16.616 -0.3795  0.9732  1.3838
17291TIP3   OH273363   4.185   1.301   3.187 -0.3866 -0.2758 -0.2658
17291TIP3    H173364   4.203   1.235   3.120  2.5182  1.3504 -1.2830
17291TIP3    H273365   4.257   1.290   3.250 -0.8330  0.7970  0.4598
17292TIP3   OH273366   2.202   1.584   0.798  0.3082 -0.1150 -0.8996
17292TIP3    H173367   2.126   1.579   0.856 -0.1510  1.4770 -1.3125
17292TIP3    H273368   2.246   1.665   0.823  1.5500 -0.7028 -1.0839
17293TIP3   OH273369   3.459   5.682  11.633 -0.1341  0.4054 -0.0620
17293TIP3    H173370   3.450   5.598  11.587 -0.5411  0.1663  0.4465
17293TIP3    H273371   3.547   5.681  11.669 -0.2181  0.0889  0.1384
17294TIP3   OH273372   3.620   6.031  11.789 -0.2007  0.0447  0.5596
17294TIP3    H173373   3.565   5.992  11.721  1.3489 -1.4899  0.1238
17294TIP3    H273374   3.584   6.119  11.801  0.7421  1.2843 -3.8132
17295TIP3   OH273375   3.089   3.403  14.651  0.1156 -0.2140 -0.0409
17295TIP3    H173376   3.132   3.478  14.611  1.6928 -1.1117 -0.0817
17295TIP3    H273377   3.071   3.344  14.578 -1.2521  0.1401 -0.0302
17296TIP3   OH273378   4.204   5.446  16.551  0.6222 -0.2409  0.0003
17296TIP3    H173379   4.158   5.473  16.630  0.5787 -0.3879  0.0270
17296TIP3    H273380   4.226   5.527  16.506  0.5977 -0.1595  0.1362
17297TIP3   OH273381   4.090   0.328   1.374  0.0176  1.1653  0.5319
17297TIP3    H173382   4.166   0.365   1.418  0.2548  0.5511  0.6511
17297TIP3    H273383   4.105   0.233   1.376  0.3934  1.1367 -1.4997
17298TIP3   OH273384   4.439   5.035   1.131 -0.4458 -0.0029 -0.1300
17298TIP3    H173385   4.516   4.987   1.162 -1.7241 -1.5443  0.7922
17298TIP3    H273386   4.440   5.024   1.036 -0.6302 -1.8084  0.0441
17299TIP3   OH273387   3.863   0.406  17.107  0.1402  0.0587  0.5176
17299TIP3    H173388   3.804   0.480  17.120 -0.2851 -0.3151  0.7379
17299TIP3    H273389   3.837   0.343  17.174  0.8122 -0.1005  0.6342
17300TIP3   OH273390   1.498   4.356  15.921 -0.3271 -0.6293  0.9673
17300TIP3    H173391   1.533   4.445  15.921 -0.3441 -0.6146  0.0556
17300TIP3    H273392   1.415   4.364  15.968 -1.9942  0.5571 -1.8844
17301TIP3   OH273393   6.619   3.989  16.156 -0.1876  0.3266 -1.1996
17301TIP3    H173394   6.579   3.929  16.093  0.1981 -0.7706 -0.4240
17301TIP3    H273395   6.604   3.948  16.241  2.2500  0.0246 -0.8316
17302TIP3   OH273396   6.683   5.146   2.416  0.5262 -0.0486  0.3921
17302TIP3    H173397   6.631   5.085   2.364  0.3763 -0.0032  0.4912
17302TIP3    H273398   6.774   5.118   2.401  0.4522 -0.3653  0.5246
17303TIP3   OH273399   6.542   0.020  11.844 -0.3669 -0.5214  0.0688
17303TIP3    H173400   6.531  -0.049  11.909  0.1159  1.2858  2.1719
17303TIP3    H273401   6.454   0.058  11.834 -0.5387 -1.1065 -0.7345
17304TIP3   OH273402   3.862   5.855  16.309 -0.1936 -0.2770  0.4412
17304TIP3    H173403   3.885   5.934  16.358  1.1576 -1.6835  2.1969
17304TIP3    H273404   3.808   5.887  16.237  1.0748  2.3650  0.5313
17305TIP3   OH273405   3.088   1.042   4.047 -0.8248 -0.0528 -0.5094
17305TIP3    H173406   3.142   1.021   4.123  1.0910  3.2149 -0.7725
17305TIP3    H273407   3.089   0.963   3.994  0.5284 -1.3505  1.3283
17306TIP3   OH273408   5.358   6.590  12.031  0.4684  0.3369 -0.2635
17306TIP3    H173409   5.271   6.621  12.058  0.2359 -0.3535 -0.1995
17306TIP3    H273410   5.410   6.670  12.022  0.3589  0.6697  1.5617
17307TIP3   OH273411   1.124   5.979  12.896 -0.3104  0.1334  0.5998
17307TIP3    H173412   1.170   5.946  12.818 -1.5353  0.5684 -0.3489
17307TIP3    H273413   1.164   6.065  12.913 -0.6605  0.4506 -0.1325
17308TIP3   OH273414   0.075   1.506  15.669 -0.5289  1.0012  0.2673
17308TIP3    H173415   0.079   1.579  15.607 -2.2874  1.2359  0.3909
17308TIP3    H273416   0.079   1.548  15.755 -0.7034  0.8825  0.3328
17309TIP3   OH273417   2.943   1.906  11.508  0.1000 -0.3096 -0.1527
17309TIP3    H173418   3.018   1.860  11.470 -0.5418 -3.9164  2.3537
17309TIP3    H273419   2.880   1.913  11.437  1.4016 -0.6772 -1.3766
17310TIP3   OH273420   3.607   5.285  12.723 -0.4707 -0.0621  0.3696
17310TIP3    H173421   3.516   5.306  12.742 -0.1589 -0.0185  2.0301
17310TIP3    H273422   3.656   5.324  12.796  1.0853  1.5517 -1.4173
17311TIP3   OH273423   0.997   5.341  12.232  0.5741 -0.0937  0.0996
17311TIP3    H173424   0.937   5.309  12.299 -1.1813  0.3354 -1.1965
17311TIP3    H273425   0.990   5.436  12.237 -1.1036 -0.0404 -1.9132
17312TIP3   OH273426   2.241   5.175  16.104  1.2130 -0.0121  0.4152
17312TIP3    H173427   2.161   5.210  16.065  1.6954  0.2410 -0.3752
17312TIP3    H273428   2.298   5.251  16.113  1.9421 -0.4326 -0.4946
17313TIP3   OH273429   0.966   2.631  16.526  0.1642 -0.1398 -0.1329
17313TIP3    H173430   0.941   2.716  16.489 -2.2840 -0.2059  1.1260
17313TIP3    H273431   0.910   2.568  16.480  0.8223 -0.8649  0.0548
17314TIP3   OH273432   3.682   5.076  13.572  0.3411 -0.8116 -0.6927
17314TIP3    H173433   3.740   5.153  13.576 -0.7190 -0.0259  0.5408
17314TIP3    H273434   3.600   5.109  13.536 -0.5065 -1.0558  0.8967
17315TIP3   OH273435   5.386   5.614   6.268  0.0180 -0.5076  0.0118
17315TIP3    H173436   5.464   5.632   6.215  2.2321 -2.2925  2.3957
17315TIP3    H273437   5.377   5.692   6.324 -1.0238  0.4330 -1.3869
17316TIP3   OH273438   6.778   3.981  16.913 -0.3866  0.1490 -0.8124
17316TIP3    H173439   6.721   4.016  16.981 -0.3542  0.7487 -1.0878
17316TIP3    H273440   6.743   3.894  16.894 -1.4171  0.6405 -1.2246
17317TIP3   OH273441   1.520   6.586  17.112  0.4325 -0.0793  0.5644
17317TIP3    H173442   1.604   6.589  17.157  1.0521 -1.2884 -0.4307
17317TIP3    H273443   1.477   6.507  17.146  0.7622 -0.8132 -0.6242
17318TIP3   OH273444   5.028   0.072  10.287  0.2635 -0.7555 -0.4277
17318TIP3    H173445   4.984  -0.013  10.296 -1.9496  0.4616  1.2364
17318TIP3    H273446   5.022   0.111  10.374  0.2499  1.5304 -1.4041
17319TIP3   OH273447   4.588   0.410   2.790  0.2000 -0.6030 -0.5378
17319TIP3    H173448   4.617   0.441   2.876  1.6241  0.1169 -1.2496
17319TIP3    H273449   4.663   0.362   2.755 -1.1520 -2.9260 -0.4574
17320TIP3   OH273450   3.193   2.413  13.647 -0.2817  0.2418 -0.3223
17320TIP3    H173451   3.228   2.501  13.635 -1.1511  0.5270 -0.8701
17320TIP3    H273452   3.098   2.424  13.645 -0.5140 -1.0281 -3.4259
17321TIP3   OH273453   1.650   3.699   3.776 -0.3582  0.0778 -0.2752
17321TIP3    H173454   1.576   3.701   3.837 -0.6262  0.4524 -0.6097
17321TIP3    H273455   1.647   3.783   3.732  0.6999  0.3840  0.2054
17322TIP3   OH273456   3.995   1.617  13.735 -0.4411  0.7039 -0.3987
17322TIP3    H173457   4.076   1.669  13.742 -0.4836  0.6004  1.2680
17322TIP3    H273458   3.999   1.579  13.647  0.8960  1.3951 -0.6737
17323TIP3   OH273459   6.341   2.206  10.755  0.5403 -0.3926 -0.3750
17323TIP3    H173460   6.367   2.297  10.743  1.6876 -0.6019  0.4072
17323TIP3    H273461   6.386   2.159  10.685  0.5927 -0.4738 -0.2867
17324TIP3   OH273462   0.955   4.507  13.458 -0.0021  0.1352  0.1637
17324TIP3    H173463   1.050   4.501  13.464  0.0529 -0.5327 -1.0818
17324TIP3    H273464   0.939   4.544  13.370 -0.8927  0.2976  0.3836
17325TIP3   OH273465   0.140   1.853  16.754  0.3840 -0.0656 -0.6872
17325TIP3    H173466   0.225   1.895  16.736  0.7404 -0.3435  0.2873
17325TIP3    H273467   0.160   1.788  16.821 -0.3301 -1.2124 -1.5714
17326TIP3   OH273468   5.583   0.496   3.383  0.4235 -0.1181  0.0418
17326TIP3    H173469   5.637   0.420   3.407  0.2312  0.6534  3.3499
17326TIP3    H273470   5.493   0.464   3.390  0.3599  0.1760  0.6061
17327TIP3   OH273471   2.265   1.598   3.511  0.8274  0.0499 -0.0966
17327TIP3    H173472   2.288   1.662   3.578  1.5262  1.0204 -1.2113
17327TIP3    H273473   2.346   1.549   3.495  0.1884 -1.4908  1.0762
17328TIP3   OH273474   2.231   6.173  17.204  0.3780 -0.3974  0.2021
17328TIP3    H173475   2.224   6.126  17.121 -0.2902 -1.8731  1.0584
17328TIP3    H273476   2.308   6.136  17.246  2.2205  2.0756 -0.7524
17329TIP3   OH273477   5.570   4.783   5.260 -0.0484  0.0499  0.4375
17329TIP3    H173478   5.620   4.784   5.341  1.9914  1.6569 -0.7291
17329TIP3    H273479   5.608   4.711   5.209  1.5588  1.5406 -0.6250
17330TIP3   OH273480   5.198   4.362  16.551 -0.3258  0.0951 -0.3900
17330TIP3    H173481   5.265   4.396  16.491 -0.7144 -0.9089 -1.4257
17330TIP3    H273482   5.199   4.424  16.624  0.9267  0.7448 -0.9112
17331TIP3   OH273483   5.062   0.731  14.638 -0.0450 -0.1962 -0.0104
17331TIP3    H173484   5.074   0.637  14.652  1.4307 -0.2319 -1.2370
17331TIP3    H273485   5.146   0.770  14.664  0.5181  0.3976 -2.4894
17332TIP3   OH273486   0.443   3.532  16.215  0.8567 -0.3981  0.1181
17332TIP3    H173487   0.457   3.570  16.128 -0.9996  1.3446  0.4977
17332TIP3    H273488   0.524   3.548  16.262 -0.2590  4.8844  0.7841
17333TIP3   OH273489   2.189   1.248  12.981 -0.4131  0.3515  0.0054
17333TIP3    H173490   2.216   1.331  12.941  0.2629  0.8144  1.3630
17333TIP3    H273491   2.114   1.271  13.036 -0.4853 -0.0231  0.0648
17334TIP3   OH273492   3.638   2.998   5.086 -0.1518 -0.2370  0.5075
17334TIP3    H173493   3.561   2.972   5.137 -0.5818  1.2888  0.6996
17334TIP3    H273494   3.712   2.962   5.135 -0.7091 -1.1729  0.6801
17335TIP3   OH273495   1.068   6.327   3.715  0.0064 -0.2742  0.4207
17335TIP3    H173496   1.103   6.381   3.643  0.7682 -1.7069 -0.3360
17335TIP3    H273497   1.127   6.251   3.718 -2.4539 -2.3365 -0.2669
17336TIP3   OH273498   4.649   0.432   2.371  0.3658 -0.2887 -0.4328
17336TIP3    H173499   4.696   0.365   2.422  0.9544 -0.3806 -1.0786
17336TIP3    H273500   4.647   0.508   2.428 -0.6666 -0.9669  0.4825
17337TIP3   OH273501   4.132   5.653   0.087  0.4453 -0.0731  0.4896
17337TIP3    H173502   4.123   5.744   0.117  0.3652  0.0100  0.2173
17337TIP3    H273503   4.221   5.628   0.113 -0.2907 -0.6885  2.6284
17338TIP3   OH273504   5.772   2.845   2.477 -0.2887  0.2064 -0.1840
17338TIP3    H173505   5.749   2.752   2.478  2.0384 -0.4282  1.6648
17338TIP3    H273506   5.855   2.849   2.428 -1.1795  1.6062 -1.7075
17339TIP3   OH273507   2.063   2.419   0.859 -0.1728  0.2140 -0.3439
17339TIP3    H173508   1.993   2.411   0.924  0.7517 -1.7440  0.4732
17339TIP3    H273509   2.054   2.341   0.804  1.3139 -0.0498 -0.2550
17340TIP3   OH273510   3.088   3.899  14.376 -0.6468 -0.1775  0.1329
17340TIP3    H173511   3.119   3.851  14.300 -0.4217  0.7259 -0.3668
17340TIP3    H273512   3.036   3.970  14.339 -0.5681  0.2462  0.8208
17341TIP3   OH273513   3.914   6.132  16.354 -0.1021 -0.3680  0.4285
17341TIP3    H173514   3.830   6.175  16.336  0.4377  0.0380 -1.2507
17341TIP3    H273515   3.969   6.154  16.279  0.9416 -2.1329  0.6250
17342TIP3   OH273516   3.580   4.223  14.293 -0.9422  0.1412 -0.5041
17342TIP3    H173517   3.569   4.139  14.250  2.1413  0.0505 -1.3223
17342TIP3    H273518   3.552   4.208  14.384  0.9199 -2.2524 -0.2408
17343TIP3   OH273519   3.110   6.394  15.032  0.3793  0.4089 -0.0107
17343TIP3    H173520   3.098   6.486  15.008  1.1179  0.6041  0.3408
17343TIP3    H273521   3.028   6.352  15.007  0.7389  0.7832 -1.9349
17344TIP3   OH273522   2.165   3.304   5.463 -0.2206 -0.6599  0.4806
17344TIP3    H173523   2.247   3.274   5.426  0.4288  1.2946  0.2292
17344TIP3    H273524   2.117   3.343   5.389 -0.7465 -0.5177  0.8855
17345TIP3   OH273525   1.984   2.984   3.354 -0.6267  0.1796 -0.5198
17345TIP3    H173526   2.049   3.028   3.409 -0.4252 -1.0770  0.3096
17345TIP3    H273527   2.035   2.926   3.298 -1.0090 -0.9838  0.2942
17346TIP3   OH273528   2.136   2.294   5.792 -0.0696  0.0586  0.0526
17346TIP3    H173529   2.048   2.327   5.813 -0.5675 -0.5414 -1.0433
17346TIP3    H273530   2.135   2.203   5.821  0.6668  0.4203  1.2976
17347TIP3   OH273531   0.153   4.134  12.278 -0.6014  0.9525 -0.6704
17347TIP3    H173532   0.174   4.171  12.192  1.2996  1.1477 -0.1825
17347TIP3    H273533   0.235   4.091  12.305 -1.2452  0.6767  0.9345
17348TIP3   OH273534   0.442   3.778   0.196  0.6474 -0.0483  0.1091
17348TIP3    H173535   0.414   3.868   0.214  0.8669  0.2587 -1.0162
17348TIP3    H273536   0.365   3.725   0.215 -0.6274  0.7228 -2.4164
17349TIP3   OH273537   6.758   3.021   1.232 -0.3219  0.0418  0.0515
17349TIP3    H173538   6.746   2.936   1.191 -1.2291 -0.2179  0.8265
17349TIP3    H273539   6.849   3.044   1.214 -0.3822 -0.5676 -1.1259
17350TIP3   OH273540   4.275   0.293  12.053 -0.3936  0.4205  0.5282
17350TIP3    H173541   4.258   0.384  12.031  0.0097  0.4026  0.1288
17350TIP3    H273542   4.190   0.249  12.040 -0.6490  0.7783  0.9637
17351TIP3   OH273543   1.332   6.037   0.850 -0.2183 -0.1216  0.5352
17351TIP3    H173544   1.411   6.070   0.807 -0.1638 -1.5059 -0.5291
17351TIP3    H273545   1.332   6.078   0.936  1.7936 -0.2413  0.6407
17352TIP3   OH273546   0.233   0.635  15.076 -0.3156  0.2482  0.1488
17352TIP3    H173547   0.211   0.714  15.126  0.1929  0.1194  0.5795
17352TIP3    H273548   0.256   0.667  14.989  2.9448  0.9220  1.1472
17353TIP3   OH273549   3.877   4.956  14.847 -0.8045 -0.6243 -0.1793
17353TIP3    H173550   3.786   4.928  14.841 -0.7165 -0.8558 -0.4553
17353TIP3    H273551   3.908   4.956  14.757 -0.5815 -0.3716 -0.1028
17354TIP3   OH273552   4.048   6.161  17.109  0.5627  0.6380  0.7138
17354TIP3    H173553   3.958   6.138  17.131  0.5572 -1.2532 -0.9888
17354TIP3    H273554   4.065   6.241  17.159 -2.1455  1.2421  0.8357
17355TIP3   OH273555   2.622   0.260   3.023 -0.0460 -0.0173 -0.0842
17355TIP3    H173556   2.599   0.179   2.978 -0.0109  0.7171 -1.4731
17355TIP3    H273557   2.715   0.250   3.044 -0.3626 -0.8947  1.0319
17356TIP3   OH273558   0.586   3.357   4.188 -0.2839  0.1566  0.2886
17356TIP3    H173559   0.564   3.266   4.211  2.2562 -1.0745 -1.5500
17356TIP3    H273560   0.561   3.408   4.265  0.7129 -2.5113  2.5776
17357TIP3   OH273561   0.786   1.354  11.526 -0.8128  0.0415 -0.1306
17357TIP3    H173562   0.840   1.427  11.556 -0.6040 -0.4938  0.8423
17357TIP3    H273563   0.816   1.279  11.577 -1.2314 -0.6647 -0.8960
17358TIP3   OH273564   3.116   1.595  17.269 -0.3195  0.3074 -0.3574
17358TIP3    H173565   3.100   1.553  17.354  0.3890 -3.0220 -1.7263
17358TIP3    H273566   3.211   1.606  17.264 -0.3689  0.6326 -0.6655
17359TIP3   OH273567   4.081   6.058  13.553 -0.3326 -0.3660 -0.4064
17359TIP3    H173568   4.038   6.063  13.638 -1.2998  1.2385 -0.9459
17359TIP3    H273569   4.098   5.965  13.540 -2.2433 -0.8938  0.5359
17360TIP3   OH273570   6.227   2.427  13.377  0.1534 -0.2368 -0.2376
17360TIP3    H173571   6.230   2.493  13.307  1.0105  0.6068  0.5726
17360TIP3    H273572   6.162   2.460  13.439 -0.2088 -0.7161 -0.3514
17361TIP3   OH273573   2.577   0.031   1.939  0.1613  0.1482 -0.7421
17361TIP3    H173574   2.584   0.106   1.880  3.6365 -0.1607 -0.9153
17361TIP3    H273575   2.591   0.068   2.027 -1.9654  0.1597 -0.3436
17362TIP3   OH273576   6.665   4.780   3.834  0.4844  0.0909 -0.3291
17362TIP3    H173577   6.630   4.710   3.780  1.3287  0.1169 -0.9400
17362TIP3    H273578   6.749   4.802   3.792  2.2356 -1.3214  2.1556
17363TIP3   OH273579   3.419   4.382  13.097  0.5382  0.2761 -0.1367
17363TIP3    H173580   3.343   4.334  13.062  1.7694 -0.0901 -2.4884
17363TIP3    H273581   3.440   4.446  13.029  1.6600  1.1436  0.9899
17364TIP3   OH273582   2.905   3.477   3.912 -0.0639  0.2888  0.1706
17364TIP3    H173583   2.983   3.530   3.892  0.8079 -0.8244  0.5448
17364TIP3    H273584   2.889   3.494   4.005 -0.6703  1.0066 -0.0523
17365TIP3   OH273585   0.554   1.350   5.453  0.9813 -0.5797  0.5277
17365TIP3    H173586   0.495   1.365   5.526 -1.1186  1.7047 -1.4299
17365TIP3    H273587   0.620   1.418   5.461  0.6008 -0.1630  0.2101
17366TIP3   OH273588   6.794   5.186   4.279 -0.3904  0.3114  0.7274
17366TIP3    H173589   6.796   5.099   4.318 -1.7934 -0.2279 -0.3130
17366TIP3    H273590   6.843   5.241   4.340  1.4420 -1.3752  0.8878
17367TIP3   OH273591   0.235   4.714  10.386  0.2967 -0.2370 -0.0541
17367TIP3    H173592   0.253   4.635  10.437  1.9046 -0.2986 -0.6442
17367TIP3    H273593   0.254   4.689  10.295  0.8822  0.8141 -0.2452
17368TIP3   OH273594   5.298   0.005  12.708 -0.4008  0.3879  0.5053
17368TIP3    H173595   5.303  -0.029  12.619  1.3629 -0.1182  0.7428
17368TIP3    H273596   5.304  -0.072  12.764 -1.0071  0.7354  1.0577
17369TIP3   OH273597   5.136   4.096  14.658 -0.2171 -0.6474 -0.1946
17369TIP3    H173598   5.093   4.015  14.685  1.1406 -1.2677  0.2144
17369TIP3    H273599   5.080   4.132  14.589 -0.7049 -2.0804 -0.5703
17370TIP3   OH273600   2.946   5.968   5.600  0.5899  0.2745 -0.6854
17370TIP3    H173601   2.897   5.919   5.534  0.1618  0.1747 -0.2918
17370TIP3    H273602   3.038   5.947   5.581  0.4885  0.4133 -1.3825
17371TIP3   OH273603   4.599   1.457  11.235  0.1010 -0.4356  0.2737
17371TIP3    H173604   4.586   1.513  11.158 -1.8763  0.0398  0.9137
17371TIP3    H273605   4.693   1.437  11.234  0.6598  1.9629 -0.6008
17372TIP3   OH273606   6.308   3.788   4.894 -0.4406 -0.0547  0.4836
17372TIP3    H173607   6.313   3.824   4.806 -1.2902 -0.0915  0.4162
17372TIP3    H273608   6.250   3.712   4.886  1.6036 -1.7153  0.5377
17373TIP3   OH273609   0.309   1.391  16.414 -0.5952  0.7933 -0.2876
17373TIP3    H173610   0.293   1.426  16.326  0.7786  0.1925 -0.8142
17373TIP3    H273611   0.307   1.296  16.402  2.1829  0.6451 -0.2610
17374TIP3   OH273612   0.954   0.647   2.213  0.2376 -0.1566 -0.2201
17374TIP3    H173613   0.877   0.596   2.237  0.0305 -0.2445 -1.0472
17374TIP3    H273614   0.950   0.653   2.117  1.4186 -0.4301 -0.3054
17375TIP3   OH273615   4.399   6.240  16.122 -0.3690 -0.1845 -0.5264
17375TIP3    H173616   4.460   6.168  16.108 -0.4930 -0.6013  0.8580
17375TIP3    H273617   4.455   6.317  16.135 -0.2309 -0.0504 -1.8002
17376TIP3   OH273618   2.127   0.259   2.832 -0.2612  0.1347  0.1199
17376TIP3    H173619   2.059   0.277   2.897 -0.6296 -2.3546  0.4987
17376TIP3    H273620   2.146   0.166   2.842  0.9648  0.0799 -2.1351
17377TIP3   OH273621   3.666   1.263   2.072  0.2789  0.3592 -0.0794
17377TIP3    H173622   3.600   1.313   2.023 -2.0488 -2.6947 -0.3854
17377TIP3    H273623   3.622   1.238   2.153  1.3053 -1.1535  0.0550
17378TIP3   OH273624   4.608   2.807   3.966  0.3558 -0.3120 -0.1982
17378TIP3    H173625   4.687   2.753   3.966  0.2278 -0.5860  1.9580
17378TIP3    H273626   4.629   2.880   4.025 -1.6576 -1.5866  2.3242
17379TIP3   OH273627   1.908   6.408   2.780  0.7152 -0.0786 -0.2176
17379TIP3    H173628   1.962   6.383   2.705  1.5552  1.6299 -0.2526
17379TIP3    H273629   1.820   6.380   2.758  0.3871  2.6899 -3.1380
17380TIP3   OH273630   2.347   3.987  12.247  0.6137 -0.1142  0.4422
17380TIP3    H173631   2.329   3.994  12.341  1.4931 -0.1571  0.6188
17380TIP3    H273632   2.441   4.001  12.239  1.0066 -2.6077 -0.1515
17381TIP3   OH273633   5.459   3.488   0.584  0.3563 -0.3109  0.1580
17381TIP3    H173634   5.479   3.424   0.653  1.9146 -0.6949 -0.6214
17381TIP3    H273635   5.366   3.507   0.597  0.3183 -1.2670  1.6209
17382TIP3   OH273636   1.896   1.875   3.332  0.1891  0.5892 -0.0827
17382TIP3    H173637   1.956   1.943   3.300 -1.4071  1.9594 -0.2800
17382TIP3    H273638   1.818   1.885   3.278 -0.1129 -1.4044 -0.0702
17383TIP3   OH273639   0.011   2.661   6.768 -0.1703 -0.0606 -0.5081
17383TIP3    H173640  -0.085   2.659   6.769 -0.2676 -1.1118 -2.9575
17383TIP3    H273641   0.033   2.753   6.754 -0.8308  0.1810  0.0253
17384TIP3   OH273642   3.573   1.268  12.712 -0.1760 -0.6267  0.0790
17384TIP3    H173643   3.639   1.335  12.731  0.5475 -2.0970  3.5083
17384TIP3    H273644   3.489   1.310  12.733  0.2183 -0.5495  1.5924
17385TIP3   OH273645   2.382   0.796  16.292  0.1323  0.1314  0.1339
17385TIP3    H173646   2.371   0.703  16.309 -0.8973  0.2088 -0.0186
17385TIP3    H273647   2.321   0.839  16.353  1.1689  0.7541  0.7685
17386TIP3   OH273648   1.830   4.474   5.220 -0.1403  0.3565  0.1333
17386TIP3    H173649   1.770   4.426   5.163 -1.4035  0.7000  1.1068
17386TIP3    H273650   1.891   4.517   5.160 -1.5008  0.8181 -0.9815
17387TIP3   OH273651   5.641   2.008   3.068 -0.7634 -0.2175  0.0493
17387TIP3    H173652   5.685   2.083   3.108  0.6978  0.3845 -2.4377
17387TIP3    H273653   5.707   1.939   3.068 -1.6191 -1.0596  0.9994
17388TIP3   OH273654   3.130   3.100  11.376  0.0978  0.3270  0.1675
17388TIP3    H173655   3.111   3.040  11.304 -2.2038  0.8916  0.2371
17388TIP3    H273656   3.049   3.103  11.426  0.4974  2.6868  0.7590
17389TIP3   OH273657   3.594   0.322   0.737  0.3641  0.1284  0.2691
17389TIP3    H173658   3.684   0.301   0.761  0.2539 -0.6099  0.0471
17389TIP3    H273659   3.540   0.270   0.797  0.0946 -0.7011 -0.6663
17390TIP3   OH273660   2.486   6.566   3.766  0.4250  0.8242 -1.1126
17390TIP3    H173661   2.400   6.605   3.783  0.3006  0.0961  0.0506
17390TIP3    H273662   2.548   6.627   3.804  0.1898 -0.3990  1.4064
17391TIP3   OH273663   1.459   2.023   0.863  0.4201 -0.8680 -0.6066
17391TIP3    H173664   1.519   1.977   0.805  0.2473 -0.6443 -0.9688
17391TIP3    H273665   1.484   2.115   0.856 -0.6881 -0.6070 -1.6757
17392TIP3   OH273666   1.110   3.565  13.485  0.4982  0.5499 -0.3570
17392TIP3    H173667   1.101   3.638  13.547  2.9866  1.1746 -0.6306
17392TIP3    H273668   1.131   3.490  13.541 -3.7310 -0.5447  0.1186
17393TIP3   OH273669   4.569   0.503   5.247  0.2291 -0.4015 -0.1565
17393TIP3    H173670   4.573   0.569   5.316 -0.1279  0.1063 -0.6091
17393TIP3    H273671   4.475   0.487   5.235  0.3272 -2.1305  1.0007
17394TIP3   OH273672   6.781   4.995   4.777  0.0291  0.0770 -0.1889
17394TIP3    H173673   6.854   5.012   4.836 -0.8236  1.1370  0.5886
17394TIP3    H273674   6.713   4.957   4.833 -0.2343 -0.3829 -0.8023
17395TIP3   OH273675   2.643   3.216  16.089 -0.2309 -0.0892 -0.2140
17395TIP3    H173676   2.728   3.220  16.134  0.6382 -2.1409 -1.5294
17395TIP3    H273677   2.608   3.130  16.112 -2.3679  0.9802  0.8652
17396TIP3   OH273678   4.009   4.344   4.546 -0.6418  0.0356 -0.3819
17396TIP3    H173679   4.044   4.341   4.457 -0.2690  0.3995 -0.2532
17396TIP3    H273680   4.049   4.270   4.591 -0.2640  0.2732 -0.3199
17397TIP3   OH273681   4.628   0.863   1.569  0.0707 -0.3121 -0.6048
17397TIP3    H173682   4.573   0.918   1.513 -2.4044 -2.9272 -0.9709
17397TIP3    H273683   4.584   0.862   1.654  1.5288  0.2816  0.2004
17398TIP3   OH273684   6.785   5.965  16.967  0.2748 -0.3678 -0.7661
17398TIP3    H173685   6.792   6.042  17.024  0.0975 -0.3155 -0.8120
17398TIP3    H273686   6.802   5.891  17.024 -0.1245 -0.3293 -0.5947
17399TIP3   OH273687   1.137   6.132  15.209  0.1360  0.1541 -0.1982
17399TIP3    H173688   1.178   6.190  15.146  0.3456  1.5192  1.1348
17399TIP3    H273689   1.206   6.070  15.233  0.0062 -0.4835 -1.3752
17400TIP3   OH273690   3.308   6.220   2.196  0.2211  0.2691  0.4171
17400TIP3    H173691   3.373   6.185   2.256  1.5710  1.6512 -0.1562
17400TIP3    H273692   3.300   6.153   2.128  0.8829 -0.0304  0.6215
17401TIP3   OH273693   6.200   0.137  15.622  0.2188  0.5338 -0.1664
17401TIP3    H173694   6.285   0.181  15.611  1.0975 -0.5098  1.9588
17401TIP3    H273695   6.220   0.044  15.618 -0.9008  0.2735 -0.0637
17402TIP3   OH273696   2.759   5.266  11.496  0.3661  0.3483  0.3199
17402TIP3    H173697   2.705   5.230  11.426  0.0958  0.0509  0.6734
17402TIP3    H273698   2.847   5.271  11.459  0.2451  0.0969 -0.0040
17403TIP3   OH273699   0.829   6.182   3.278 -0.5673 -0.5451  0.1157
17403TIP3    H173700   0.887   6.121   3.324  0.5058  0.1418 -0.2730
17403TIP3    H273701   0.848   6.267   3.317 -0.6639 -0.1741 -0.6288
17404TIP3   OH273702   0.347   1.587   1.683  0.5337  0.2732 -0.2155
17404TIP3    H173703   0.362   1.531   1.759  0.2328 -0.4098 -0.6466
17404TIP3    H273704   0.252   1.592   1.676  0.3923 -2.5876 -2.5696
17405TIP3   OH273705   2.193   6.166  15.975 -0.1886 -0.0004  0.6002
17405TIP3    H173706   2.159   6.236  15.919  0.7782 -1.0648 -1.3859
17405TIP3    H273707   2.157   6.085  15.938  0.2872 -0.7427  1.6826
17406TIP3   OH273708   6.460   2.394   0.606 -0.4802  0.0299  0.0471
17406TIP3    H173709   6.512   2.421   0.682  2.1728  1.5719 -2.1699
17406TIP3    H273710   6.524   2.355   0.546 -2.3162 -0.2296 -1.8395
17407TIP3   OH273711   5.044   3.685   3.218  0.0743 -0.5278  0.0440
17407TIP3    H173712   5.139   3.671   3.217 -0.0523 -1.4154 -0.1902
17407TIP3    H273713   5.034   3.778   3.198  0.8657 -0.6043 -0.7937
17408TIP3   OH273714   3.186   3.063  14.555  0.2118 -0.3132  0.2669
17408TIP3    H173715   3.150   3.120  14.486  1.0400  0.0358  0.1187
17408TIP3    H273716   3.113   3.006  14.579  0.3813 -1.6676 -2.1620
17409TIP3   OH273717   0.705   4.873  15.793  0.3876  0.6033  0.6007
17409TIP3    H173718   0.712   4.779  15.811 -0.0611  0.2928 -0.7065
17409TIP3    H273719   0.637   4.904  15.852 -1.0379 -0.3649 -0.4482
17410TIP3   OH273720   5.326   1.425  15.539  0.0526  0.3606 -0.5821
17410TIP3    H173721   5.413   1.464  15.551  0.9357 -1.6126 -0.1303
17410TIP3    H273722   5.321   1.357  15.606 -2.0705  0.7556 -0.2884
17411TIP3   OH273723   0.676   3.732   3.328  0.0075  0.5810  0.5820
17411TIP3    H173724   0.673   3.651   3.277  0.0659  1.4340 -0.8305
17411TIP3    H273725   0.586   3.763   3.330 -0.0030  0.5342  1.0552
17412TIP3   OH273726   6.405   5.153  16.915  0.2969  0.0074  0.6736
17412TIP3    H173727   6.495   5.128  16.893 -0.0618 -0.6508 -0.1206
17412TIP3    H273728   6.358   5.146  16.832  0.1021  3.1450  0.4021
17413TIP3   OH273729   2.438   1.625   4.822  0.0253  0.1078 -0.2068
17413TIP3    H173730   2.407   1.702   4.870 -1.9530  0.9438 -2.5594
17413TIP3    H273731   2.442   1.655   4.731  2.0469 -1.8056 -0.8278
17414TIP3   OH273732   2.486   3.343   3.459  0.0592  0.4187 -0.6120
17414TIP3    H173733   2.391   3.347   3.451 -0.0870 -0.2361  0.6144
17414TIP3    H273734   2.513   3.434   3.469 -0.6959  0.4722  1.4022
17415TIP3   OH273735   6.325   1.521   4.591 -0.7568  0.1676  0.5828
17415TIP3    H173736   6.282   1.604   4.609  1.1118  1.2978  0.1318
17415TIP3    H273737   6.409   1.546   4.551  1.1864 -1.8208  3.1310
17416TIP3   OH273738   0.075   3.085   0.154  0.0482  0.0996 -0.5673
17416TIP3    H173739   0.013   3.013   0.140 -0.5659  0.6313 -0.6736
17416TIP3    H273740   0.145   3.047   0.206 -0.5491 -0.4290 -0.1319
17417TIP3   OH273741   2.788   0.810   1.528  0.4125  0.2097 -0.1406
17417TIP3    H173742   2.834   0.726   1.517 -0.6678 -0.4717  0.4039
17417TIP3    H273743   2.844   0.861   1.586  0.3392 -0.7201  0.7605
17418TIP3   OH273744   6.306   3.174  10.582 -0.0843 -0.1443 -0.1378
17418TIP3    H173745   6.332   3.246  10.639 -2.2209  0.5764  0.0219
17418TIP3    H273746   6.387   3.144  10.542  0.9494  1.9990  0.2093
17419TIP3   OH273747   6.795   0.619   1.383  0.5455 -0.2600  0.0487
17419TIP3    H173748   6.849   0.553   1.341 -0.8084 -0.5640 -1.3030
17419TIP3    H273749   6.741   0.569   1.445 -0.2008 -0.4018 -0.6923
17420TIP3   OH273750   6.063   4.786  14.103 -0.3616  0.1968  0.4700
17420TIP3    H173751   5.975   4.799  14.139 -0.1441  0.3899  0.9498
17420TIP3    H273752   6.084   4.695  14.122 -0.9520 -0.2170 -0.7753
17421TIP3   OH273753   3.007   4.432  11.531  0.1882 -0.0916 -0.9329
17421TIP3    H173754   2.917   4.451  11.560 -0.1394 -1.0766 -1.2545
17421TIP3    H273755   3.001   4.427  11.436  0.0109 -2.7146 -0.8533
17422TIP3   OH273756   2.424   4.782   5.680  0.2240 -0.4805  0.6667
17422TIP3    H173757   2.423   4.686   5.678  0.6393 -0.5202 -2.0299
17422TIP3    H273758   2.472   4.804   5.759  0.0843 -2.4941  1.3714
17423TIP3   OH273759   2.820   4.554   3.893  0.1318 -0.0329 -0.3727
17423TIP3    H173760   2.846   4.469   3.858 -1.0902 -1.1759  1.3243
17423TIP3    H273761   2.726   4.545   3.910  0.2602  1.1552  1.1906
17424TIP3   OH273762   0.875   5.877   2.924  0.1979 -0.0106  0.6304
17424TIP3    H173763   0.926   5.849   2.847 -0.1531 -0.4699  0.5644
17424TIP3    H273764   0.879   5.972   2.921  1.1427 -0.0353  0.6776
17425TIP3   OH273765   4.759   6.448   5.296 -0.2749  0.2966 -0.2460
17425TIP3    H173766   4.761   6.407   5.383  0.3177 -1.0344 -0.8740
17425TIP3    H273767   4.758   6.542   5.315 -1.8628  0.0451  1.2231
17426TIP3   OH273768   1.923   4.632  13.965 -0.2403 -0.1057  0.4221
17426TIP3    H173769   1.978   4.592  14.032 -0.0867 -2.2117 -0.8657
17426TIP3    H273770   1.854   4.568  13.949 -1.2275  1.0928 -0.2681
17427TIP3   OH273771   5.323   3.314  12.410 -0.2346 -0.6497  0.0501
17427TIP3    H173772   5.251   3.267  12.451 -0.2524 -1.2921 -0.6743
17427TIP3    H273773   5.401   3.262  12.432 -0.4245 -1.9164 -1.9482
17428TIP3   OH273774   2.105   5.199   3.955 -0.3240 -0.2255  0.3553
17428TIP3    H173775   2.029   5.205   3.898 -0.0991 -0.4466  0.0301
17428TIP3    H273776   2.071   5.215   4.043 -0.7213 -0.2001  0.1964
17429TIP3   OH273777   4.440   1.526   2.948  0.2751  0.0959 -0.1655
17429TIP3    H173778   4.426   1.609   2.993  1.2246  0.2305 -0.0929
17429TIP3    H273779   4.489   1.473   3.011  0.7485 -0.0704 -0.6686
17430TIP3   OH273780   4.539   0.190  14.899 -0.0301 -0.0769  0.5926
17430TIP3    H173781   4.551   0.114  14.842  0.5099 -0.3939  1.1145
17430TIP3    H273782   4.456   0.175  14.943  0.1960 -0.4861  0.8790
17431TIP3   OH273783   3.719   0.197   0.497 -0.3844  0.2001 -1.0764
17431TIP3    H173784   3.750   0.125   0.552  0.5879 -0.3001 -2.2317
17431TIP3    H273785   3.657   0.245   0.552  0.0004 -0.7096  0.1859
17432TIP3   OH273786   0.627   1.992  12.355 -0.0204 -0.3202 -0.3735
17432TIP3    H173787   0.706   2.017  12.306 -0.4997  1.6498 -0.2329
17432TIP3    H273788   0.580   2.074  12.368 -0.7815 -1.0342  1.8863
17433TIP3   OH273789   2.527   4.329  13.780  0.1719  0.4588  0.3989
17433TIP3    H173790   2.606   4.335  13.834  1.1599 -0.4745 -0.9132
17433TIP3    H273791   2.541   4.253  13.724 -1.4180  0.6170 -0.2643
17434TIP3   OH273792   2.799   5.956  12.841 -0.2568 -0.0891  0.1433
17434TIP3    H173793   2.773   6.044  12.813  0.4330  0.1282  0.1733
17434TIP3    H273794   2.888   5.946  12.809  0.2208 -0.1900  1.4405
17435TIP3   OH273795   5.543   3.725   2.155  0.1690  0.3503  0.0449
17435TIP3    H173796   5.493   3.806   2.154 -0.2918  0.1060 -2.6303
17435TIP3    H273797   5.617   3.742   2.096  0.9282 -0.7020  0.6537
17436TIP3   OH273798   5.873   4.164   4.265  0.2816  0.5038  0.2946
17436TIP3    H173799   5.879   4.075   4.298 -1.3176 -0.0913 -0.8869
17436TIP3    H273800   5.963   4.197   4.269  0.6540 -0.5735  2.2272
17437TIP3   OH273801   3.798   6.447   3.090  0.3611 -0.5253  0.0659
17437TIP3    H173802   3.842   6.532   3.081  0.2939 -0.4305  0.6088
17437TIP3    H273803   3.867   6.383   3.074  0.7820 -0.3812  1.2097
17438TIP3   OH273804   3.203   3.054  13.888  0.5613  0.0778  0.2798
17438TIP3    H173805   3.137   3.049  13.956  0.5639  2.7750  0.5645
17438TIP3    H273806   3.212   3.147  13.869  1.6708 -0.4615 -2.3349
17439TIP3   OH273807   4.593   3.603  16.117 -0.3400 -0.4920  0.2816
17439TIP3    H173808   4.526   3.541  16.144 -0.3537 -1.1521 -1.1438
17439TIP3    H273809   4.661   3.597  16.184 -0.2269 -2.2561  0.0436
17440TIP3   OH273810   2.011   3.815   4.836 -0.0560 -0.9620  0.4103
17440TIP3    H173811   1.927   3.837   4.877  0.3748  0.5141  0.5816
17440TIP3    H273812   2.016   3.872   4.759  1.3093 -0.0877  1.0933
17441TIP3   OH273813   5.767   6.692   4.868  0.3010  0.5194  0.0838
17441TIP3    H173814   5.773   6.636   4.791  3.3602  1.2469 -0.3183
17441TIP3    H273815   5.785   6.633   4.941 -0.2655  0.2892  0.0466
17442TIP3   OH273816   6.417   5.257  11.290  0.1798  0.2053 -0.3727
17442TIP3    H173817   6.459   5.239  11.375 -1.0000 -1.5244 -0.0892
17442TIP3    H273818   6.327   5.281  11.313 -0.3506 -0.9796 -1.1344
17443TIP3   OH273819   2.002   1.145   3.004  0.5867 -0.2104 -0.0732
17443TIP3    H173820   2.062   1.158   3.078  0.4957 -1.0923  0.1613
17443TIP3    H273821   2.033   1.206   2.937 -0.1211  1.5937  1.1562
17444TIP3   OH273822   0.305   6.071   1.791  0.4222  0.7300  0.1455
17444TIP3    H173823   0.262   6.056   1.707  0.2959  1.5345  0.0580
17444TIP3    H273824   0.399   6.064   1.771  0.3818  0.4695  0.0364
17445TIP3   OH273825   5.084   3.382   6.211 -0.5498 -0.1991 -0.4564
17445TIP3    H173826   5.091   3.455   6.272 -1.9415 -0.6347  0.2575
17445TIP3    H273827   5.136   3.312   6.250 -0.3348 -0.0297 -0.4434
17446TIP3   OH273828   6.344   5.078   0.610 -0.1133  0.1334  0.6062
17446TIP3    H173829   6.313   5.030   0.532 -0.8328 -0.6789  1.3714
17446TIP3    H273830   6.327   5.170   0.590  0.0255 -0.0313 -0.3324
17447TIP3   OH273831   5.544   5.918   3.902  0.0102 -0.1784  0.3667
17447TIP3    H173832   5.564   5.993   3.957 -0.3072 -0.0236  0.2688
17447TIP3    H273833   5.575   5.842   3.952  0.4352  0.0239  0.4143
17448TIP3   OH273834   5.684   6.742   4.450 -0.3205  0.0672 -0.2190
17448TIP3    H173835   5.625   6.715   4.520 -1.2628 -0.5214 -1.2156
17448TIP3    H273836   5.635   6.808   4.401 -0.7585 -1.4008 -1.8746
17449TIP3   OH273837   2.292   1.973  14.259  0.3800  0.1553 -0.5142
17449TIP3    H173838   2.331   1.935  14.338  0.9218 -1.3660 -1.4728
17449TIP3    H273839   2.366   1.994  14.203 -0.0483 -0.2068 -1.2358
17450TIP3   OH273840   4.282   2.766  11.862 -0.1236 -0.1049  0.4239
17450TIP3    H173841   4.373   2.741  11.875  0.3157  0.6960 -0.9289
17450TIP3    H273842   4.241   2.754  11.948  1.2777 -0.3508  1.0814
17451TIP3   OH273843   6.403   2.658   1.604 -0.4239 -0.1229  0.1694
17451TIP3    H173844   6.397   2.730   1.541 -1.7307 -0.0642  0.3365
17451TIP3    H273845   6.384   2.579   1.553 -2.6265  0.0290  0.6395
17452TIP3   OH273846   4.966   3.195  14.132  0.4649 -0.3284  0.6268
17452TIP3    H173847   4.932   3.135  14.065  4.2588 -0.2809 -1.6114
17452TIP3    H273848   4.929   3.280  14.108 -1.1182 -0.8986  0.9014
17453TIP3   OH273849   4.180   0.645  15.550  0.4455 -0.4556  0.8879
17453TIP3    H173850   4.246   0.579  15.530  0.6241  0.0218 -0.1703
17453TIP3    H273851   4.182   0.705  15.475  0.0581  0.5650  1.6671
17454TIP3   OH273852   6.417   4.786   1.596  0.5552  0.3284  0.2714
17454TIP3    H173853   6.492   4.768   1.540  0.1279 -0.4743 -0.0658
17454TIP3    H273854   6.433   4.734   1.675  0.3402  0.1199  0.1801
17455TIP3   OH273855   5.779   4.205  14.278 -0.3340 -0.8010  0.8687
17455TIP3    H173856   5.706   4.158  14.320 -0.8281  0.0741  1.0230
17455TIP3    H273857   5.743   4.292  14.259  0.1171 -0.9393 -0.7093
17456TIP3   OH273858   5.257   5.887   3.898 -0.1532 -0.2599 -0.0799
17456TIP3    H173859   5.331   5.842   3.857 -1.0235 -2.4004  0.5669
17456TIP3    H273860   5.282   5.894   3.990  0.3294  1.4218 -0.3099
17457TIP3   OH273861   4.341   5.411   4.836  0.2503 -0.0859  0.5006
17457TIP3    H173862   4.337   5.486   4.894  0.0026  0.5482 -0.3207
17457TIP3    H273863   4.358   5.336   4.894  1.0566  0.6646  1.2617
17458TIP3   OH273864   3.938   4.236   2.853 -0.3897  0.1685 -0.4906
17458TIP3    H173865   3.957   4.329   2.863  1.0887 -0.2512  0.9454
17458TIP3    H273866   3.846   4.234   2.825 -1.1499  2.0074  1.5323
17459TIP3   OH273867   5.480   3.267  14.392  0.1346 -0.1011 -0.3440
17459TIP3    H173868   5.538   3.342  14.380 -2.1214  1.6722 -0.7128
17459TIP3    H273869   5.431   3.287  14.472 -0.5837 -1.1319 -0.5065
17460TIP3   OH273870   5.395   2.844   6.410 -0.4091  0.1364  0.0937
17460TIP3    H173871   5.340   2.916   6.442  0.3373  1.8050 -2.1302
17460TIP3    H273872   5.470   2.844   6.469 -1.4588 -0.3626  1.4896
17461TIP3   OH273873   5.688   6.604  11.899  0.2089  0.5612 -0.3678
17461TIP3    H173874   5.735   6.609  11.982 -0.0657  1.6579 -0.2574
17461TIP3    H273875   5.725   6.527  11.855  0.1259 -0.2328  0.8919
17462TIP3   OH273876   0.238   3.664  15.696  0.3716 -0.0097  0.3107
17462TIP3    H173877   0.316   3.617  15.724 -0.5639 -0.0471  3.0662
17462TIP3    H273878   0.184   3.597  15.653  1.5159 -0.1167 -1.0358
17463TIP3   OH273879   4.896   5.881   1.799 -0.6512  0.2290  0.0367
17463TIP3    H173880   4.883   5.873   1.705 -0.4181  0.9408 -0.0600
17463TIP3    H273881   4.809   5.871   1.836 -0.5114 -2.1720 -0.0727
17464TIP3   OH273882   1.408   0.102   1.667 -0.0702 -0.0832 -0.7347
17464TIP3    H173883   1.412   0.186   1.621  0.5207 -0.2311 -0.9617
17464TIP3    H273884   1.455   0.041   1.610  1.3508 -0.1004  0.3994
17465TIP3   OH273885   2.165   5.150  12.336 -0.3126 -0.0552 -0.0004
17465TIP3    H173886   2.078   5.123  12.307 -0.3074  0.2836 -0.3470
17465TIP3    H273887   2.170   5.243  12.312  0.7894 -0.4767 -1.5855
17466TIP3   OH273888   6.560   3.198   1.225 -0.6080 -0.3016  0.3260
17466TIP3    H173889   6.525   3.156   1.304  1.2257 -0.2160  1.2314
17466TIP3    H273890   6.635   3.145   1.201  0.9718  1.6236  0.7115
17467TIP3   OH273891   0.492   4.986  15.940 -0.1107 -0.6903 -0.0360
17467TIP3    H173892   0.435   5.017  15.870 -1.0318 -1.1400  0.4997
17467TIP3    H273893   0.518   5.065  15.987  0.2070 -0.4258 -0.6432
17468TIP3   OH273894   6.065   4.394  11.939 -0.6760  0.5971 -0.2601
17468TIP3    H173895   5.978   4.362  11.916  0.1034 -0.9074 -1.3371
17468TIP3    H273896   6.125   4.335  11.893  0.9203  1.5082  0.5519
17469TIP3   OH273897   2.421   1.976  11.329 -0.6601 -0.0638 -0.2265
17469TIP3    H173898   2.413   2.045  11.263  0.5923 -0.6462 -1.0254
17469TIP3    H273899   2.339   1.926  11.322 -1.3018  0.9389 -0.0761
17470TIP3   OH273900   6.030   1.310   0.490  0.6834 -0.3834  0.3103
17470TIP3    H173901   6.072   1.287   0.407 -0.0689 -0.9195  0.0711
17470TIP3    H273902   6.074   1.391   0.518  0.3423  0.2975 -1.0526
17471TIP3   OH273903   1.453   3.441  16.134 -0.0768  0.3805 -0.1424
17471TIP3    H173904   1.527   3.394  16.171 -0.4265  0.4537  0.6797
17471TIP3    H273905   1.399   3.373  16.093 -0.1887  0.1618  0.3611
17472TIP3   OH273906   5.425   0.829   4.302 -0.5411 -0.0090 -0.1921
17472TIP3    H173907   5.396   0.758   4.245  0.9311  1.0700 -2.3871
17472TIP3    H273908   5.400   0.800   4.390  0.1615 -3.3316 -0.9557
17473TIP3   OH273909   2.164   4.208   1.096  0.3838  0.1451 -0.0660
17473TIP3    H173910   2.147   4.289   1.145 -0.3437  0.9124 -1.4942
17473TIP3    H273911   2.172   4.238   1.005  0.9484 -1.3023 -0.5059
17474TIP3   OH273912   2.969   4.318   2.620 -0.1189 -0.0356  0.5085
17474TIP3    H173913   2.922   4.369   2.686 -1.8589 -0.6976 -0.1798
17474TIP3    H273914   2.999   4.383   2.556 -2.6655  0.2016 -0.5792
17475TIP3   OH273915   0.306   6.188   2.279  0.2720 -0.3914 -0.4370
17475TIP3    H173916   0.234   6.126   2.289 -2.0777  2.3718  1.4652
17475TIP3    H273917   0.331   6.211   2.368  2.9512 -0.5607 -1.0699
17476TIP3   OH273918   4.997   4.877  10.931  0.3555 -0.0475  0.7436
17476TIP3    H173919   4.974   4.789  10.960 -0.2530 -0.2822 -0.3866
17476TIP3    H273920   4.928   4.933  10.966 -0.1243 -0.2620  0.1678
17477TIP3   OH273921   2.415   3.758   5.641 -0.1034  0.3876 -0.3511
17477TIP3    H173922   2.350   3.698   5.678  0.3416 -0.7517 -1.3517
17477TIP3    H273923   2.387   3.845   5.670 -2.0633 -0.0616 -0.7644
17478TIP3   OH273924   4.887   6.469  11.618 -0.0390 -0.1817 -0.1592
17478TIP3    H173925   4.904   6.485  11.525  0.1533  2.4120  0.2456
17478TIP3    H273926   4.972   6.442  11.653 -0.1562 -1.3664 -0.7413
17479TIP3   OH273927   5.733   3.454  12.229  0.3105  0.1343  0.3517
17479TIP3    H173928   5.676   3.478  12.302  1.9544  0.5990  1.5375
17479TIP3    H273929   5.742   3.534  12.178  0.7363  0.3574  0.7671
17480TIP3   OH273930   2.257   1.122  14.732  0.3668 -0.1214 -0.2188
17480TIP3    H173931   2.201   1.181  14.683 -0.5555 -0.1507  0.7506
17480TIP3    H273932   2.202   1.092  14.805  1.5727 -0.3238  0.6407
17481TIP3   OH273933   3.669   0.492  16.930 -0.3572  0.2543  0.1153
17481TIP3    H173934   3.692   0.413  16.879  0.4551  0.2833  0.4136
17481TIP3    H273935   3.578   0.510  16.907  0.6314  1.7178 -3.3226
17482TIP3   OH273936   2.239   5.946   0.184 -0.3134 -0.1362  0.0215
17482TIP3    H173937   2.248   5.852   0.200 -2.0338 -0.5573 -1.1918
17482TIP3    H273938   2.280   5.960   0.099 -0.7473  0.0483 -0.1620
17483TIP3   OH273939   4.278   0.648   5.372  0.4815 -0.2485 -0.3382
17483TIP3    H173940   4.248   0.631   5.461  0.4598 -1.5400 -0.5835
17483TIP3    H273941   4.373   0.640   5.377  0.4461 -0.7685 -0.5283
17484TIP3   OH273942   6.791   1.683   0.920  0.2018  0.4469 -0.0274
17484TIP3    H173943   6.738   1.763   0.922 -2.0238 -0.8996 -1.2700
17484TIP3    H273944   6.837   1.688   0.836 -0.3051  0.2262 -0.3243
17485TIP3   OH273945   2.785   5.773  16.902 -0.0715 -0.3857  0.3232
17485TIP3    H173946   2.725   5.844  16.926  1.8763  1.9646 -1.2592
17485TIP3    H273947   2.775   5.764  16.807  1.4182 -0.4864  0.1458
17486TIP3   OH273948   3.243   3.536  11.198  0.2741 -0.6887 -0.1589
17486TIP3    H173949   3.287   3.476  11.137 -1.3416  0.2216 -2.3246
17486TIP3    H273950   3.252   3.622  11.158  0.2133  0.1636  1.5601
17487TIP3   OH273951   4.865   0.186   0.054  0.4035  0.0011  0.1837
17487TIP3    H173952   4.867   0.171  -0.041  0.9001  1.7042 -0.1135
17487TIP3    H273953   4.955   0.211   0.076 -0.1338  1.5997  0.7182
17488TIP3   OH273954   3.423   5.865   6.205  0.3371 -0.6795 -0.1113
17488TIP3    H173955   3.353   5.809   6.239 -0.0918  1.0235  2.0628
17488TIP3    H273956   3.392   5.954   6.221  1.7054  0.1926 -1.9337
17489TIP3   OH273957   3.281   3.780   2.674  0.8035  0.2834 -0.2545
17489TIP3    H173958   3.234   3.856   2.639  2.1588  1.6639  0.7908
17489TIP3    H273959   3.212   3.714   2.689 -0.7645  2.0404  0.7709
17490TIP3   OH273960   4.095   2.302   4.542  0.7618  0.0795  0.2488
17490TIP3    H173961   4.166   2.240   4.530  0.5845 -0.3601  1.3716
17490TIP3    H273962   4.063   2.286   4.631 -1.0019 -0.0159 -0.3528
17491TIP3   OH273963   1.314   1.166   4.060 -0.4768  0.0519  0.5512
17491TIP3    H173964   1.229   1.179   4.017 -1.1910 -0.7297  1.6594
17491TIP3    H273965   1.369   1.125   3.993 -1.5643 -1.1661  0.3660
17492TIP3   OH273966   0.693   0.763   0.308  0.3815 -0.2393 -0.0062
17492TIP3    H173967   0.598   0.757   0.304  0.2214  2.0922 -1.4534
17492TIP3    H273968   0.714   0.756   0.402 -1.1091 -1.5941  0.2505
17493TIP3   OH273969   2.092   5.816   2.145 -0.3275  0.4084 -0.5826
17493TIP3    H173970   2.071   5.842   2.055 -2.1113  0.2187 -0.2691
17493TIP3    H273971   2.064   5.891   2.198 -0.0912  0.1682 -0.1181
17494TIP3   OH273972   5.652   1.511  15.891 -0.2363 -0.5906 -0.0883
17494TIP3    H173973   5.681   1.463  15.813 -0.2687 -2.4567  0.9777
17494TIP3    H273974   5.704   1.474  15.963  0.4222  1.7108  0.6839
17495TIP3   OH273975   3.122   0.588  16.170  0.2133 -0.0738 -0.1240
17495TIP3    H173976   3.163   0.527  16.231 -1.2333  0.9491  1.9897
17495TIP3    H273977   3.031   0.558  16.164 -0.2687  1.2631  0.1915
17496TIP3   OH273978   4.905   1.274   2.315  0.2249  0.0399 -0.5796
17496TIP3    H173979   4.891   1.363   2.347  0.4827  0.0130 -0.3835
17496TIP3    H273980   4.996   1.275   2.283  1.1307 -0.8251  1.7440
17497TIP3   OH273981   6.728   1.057   0.925 -0.2759  0.6060  0.3455
17497TIP3    H173982   6.667   1.066   0.851  0.1632  0.9672  0.0211
17497TIP3    H273983   6.713   0.968   0.958  1.0391 -0.3899 -1.5470
17498TIP3   OH273984   6.595   5.393   6.562  0.1696 -0.2621  0.2693
17498TIP3    H173985   6.660   5.356   6.622 -0.3105 -1.6850 -0.0439
17498TIP3    H273986   6.647   5.449   6.503  1.1824 -1.5779 -0.1442
17499TIP3   OH273987   4.552   1.847  12.575 -0.0447  0.2535 -0.5613
17499TIP3    H173988   4.629   1.889  12.615  0.7363 -1.7209  0.1009
17499TIP3    H273989   4.495   1.921  12.553  0.8115  1.6377  1.4525
17500TIP3   OH273990   2.183   3.860   4.176 -0.7233 -0.3510  0.0602
17500TIP3    H173991   2.204   3.856   4.082 -0.0448 -1.4861  0.2434
17500TIP3    H273992   2.264   3.891   4.217 -0.8555 -0.3479  0.3192
17501TIP3   OH273993   5.764   3.676  11.760  0.4934 -0.4754  0.0501
17501TIP3    H173994   5.819   3.747  11.729 -0.4668  0.0971 -0.3897
17501TIP3    H273995   5.681   3.688  11.714  0.6727 -2.5754 -0.9463
17502TIP3   OH273996   1.779   5.610   5.796  0.1858 -0.4296  0.5037
17502TIP3    H173997   1.688   5.632   5.773 -0.4018 -3.3764 -0.4065
17502TIP3    H273998   1.826   5.613   5.712  0.3785 -1.1430  0.5781
17503TIP3   OH273999   3.357   1.758   4.470 -0.3704  0.3406  0.2512
17503TIP3    H174000   3.367   1.669   4.436  2.3221  0.8673 -0.5874
17503TIP3    H274001   3.427   1.766   4.535 -0.2490  2.0153 -0.0565
17504TIP3   OH274002   1.261   4.229   5.885 -0.2668  0.0383 -0.6747
17504TIP3    H174003   1.211   4.196   5.810 -0.3478 -0.0025 -0.6044
17504TIP3    H274004   1.305   4.151   5.920  0.0684  0.1255 -0.9050
17505TIP3   OH274005   3.721   4.656  16.065  0.0635  0.1744  0.1015
17505TIP3    H174006   3.746   4.605  15.988 -1.4753  1.4079 -1.3097
17505TIP3    H274007   3.702   4.590  16.132  1.1892 -0.9491 -0.6281
17506TIP3   OH274008   5.613   2.463  14.407  0.2190  0.1781 -0.3903
17506TIP3    H174009   5.527   2.421  14.401  0.4617 -0.4585  0.5121
17506TIP3    H274010   5.630   2.494  14.318 -1.0360  0.5067 -0.5323
17507TIP3   OH274011   0.344   3.609   1.890  0.0365  0.6746  0.2134
17507TIP3    H174012   0.304   3.522   1.895 -0.1011  0.6667 -0.8287
17507TIP3    H274013   0.323   3.649   1.974 -0.0970 -0.2138  0.6215
17508TIP3   OH274014   6.457   0.535   1.217  0.6424  0.2097  0.9258
17508TIP3    H174015   6.475   0.454   1.266 -0.9529 -0.9167 -0.2401
17508TIP3    H274016   6.538   0.553   1.170  0.8819 -1.0309  0.8138
17509TIP3   OH274017   5.932   2.264   4.447  0.1444  0.1295  0.2415
17509TIP3    H174018   5.904   2.325   4.379  0.1540  2.0538  1.8595
17509TIP3    H274019   5.855   2.211   4.466  0.1863 -0.5304 -1.3404
17510TIP3   OH274020   6.553   2.138  11.061 -0.1016 -0.3733  0.2714
17510TIP3    H174021   6.597   2.072  11.114 -0.9780 -0.6316  0.6887
17510TIP3    H274022   6.471   2.097  11.034  0.2532 -0.1836 -1.1665
17511TIP3   OH274023   0.235   4.283   5.707  0.1099 -0.0754  0.3731
17511TIP3    H174024   0.177   4.359   5.692 -1.8072 -1.3973  0.6956
17511TIP3    H274025   0.321   4.322   5.723 -0.2942  1.9196 -1.7893
17512TIP3   OH274026   2.189   2.692  14.387 -0.2878  0.7515 -0.6424
17512TIP3    H174027   2.276   2.695  14.428 -0.5546  0.3975 -0.0453
17512TIP3    H274028   2.173   2.599  14.371 -0.5908  0.8096 -0.6791
17513TIP3   OH274029   3.039   2.749  14.746 -1.0611  0.3104  0.5205
17513TIP3    H174030   3.030   2.698  14.665 -4.0966 -1.7528  1.9610
17513TIP3    H274031   2.997   2.833  14.726 -0.3746  0.4391 -0.4641
17514TIP3   OH274032   0.046   1.482  13.748 -0.1526  0.4164 -0.4969
17514TIP3    H174033   0.055   1.392  13.779  1.8712  0.3916 -1.0026
17514TIP3    H274034  -0.048   1.495  13.738 -0.4453 -2.1337 -1.8370
17515TIP3   OH274035   5.852   2.363   5.885  0.1040  0.3206  0.3779
17515TIP3    H174036   5.820   2.305   5.954  0.4175 -0.1399  0.1413
17515TIP3    H274037   5.773   2.403   5.850 -0.2178 -0.6664 -0.0733
17516TIP3   OH274038   1.504   0.843   1.772 -0.4292 -0.1659 -0.3076
17516TIP3    H174039   1.521   0.751   1.756 -0.5257 -0.3024  0.3469
17516TIP3    H274040   1.588   0.887   1.757 -0.5762 -0.2390 -1.4394
17517TIP3   OH274041   4.661   0.325  11.165  0.3205 -0.1805 -0.1015
17517TIP3    H174042   4.675   0.279  11.248 -1.4927  2.3501  1.7449
17517TIP3    H274043   4.732   0.389  11.162  0.5425 -0.4499 -0.6692
17518TIP3   OH274044   2.558   0.376  10.859  0.0026 -0.4233 -0.0645
17518TIP3    H174045   2.502   0.368  10.782  0.8554  0.2647 -0.7798
17518TIP3    H274046   2.623   0.442  10.835  0.5179 -0.4700  1.1108
17519TIP3   OH274047   0.316   5.182  14.099  0.0016  0.4463  0.8623
17519TIP3    H174048   0.363   5.108  14.060 -0.3150  0.5986  0.1713
17519TIP3    H274049   0.226   5.150  14.110 -0.3684  1.0006 -0.3025
17520TIP3   OH274050   4.157   1.385  13.891 -0.0098  0.1857 -0.2898
17520TIP3    H174051   4.097   1.447  13.935  0.9648  1.7970 -1.1302
17520TIP3    H274052   4.229   1.375  13.953  0.1814  0.4915 -0.4585
17521TIP3   OH274053   2.406   4.575  11.315 -0.6690 -0.7424 -0.2091
17521TIP3    H174054   2.475   4.587  11.250 -0.9936 -0.1560 -0.4581
17521TIP3    H274055   2.369   4.489  11.296  1.4294 -2.0640  1.3181
17522TIP3   OH274056   3.962   5.606   5.507 -0.4743  0.4571 -0.0402
17522TIP3    H174057   3.965   5.674   5.439  1.8700  1.3439  0.8421
17522TIP3    H274058   3.983   5.652   5.588 -0.0154 -1.1322  0.7754
17523TIP3   OH274059   0.519   2.254   3.049 -0.3072 -0.1936  0.8209
17523TIP3    H174060   0.496   2.163   3.070 -0.9507 -0.0108  0.9196
17523TIP3    H274061   0.584   2.246   2.979 -1.4218 -0.7173 -0.2032
17524TIP3   OH274062   0.291   5.354   4.019 -0.0293 -0.0517  0.3417
17524TIP3    H174063   0.373   5.367   3.971 -0.8635  1.4446 -0.7728
17524TIP3    H274064   0.248   5.282   3.972  0.4149 -0.5133  0.6300
17525TIP3   OH274065   2.107   0.117  12.573  0.7370  0.4012  0.3904
17525TIP3    H174066   2.053   0.047  12.536  0.2335  0.5666  0.8107
17525TIP3    H274067   2.075   0.128  12.662  0.0741  1.9061 -0.0027
17526TIP3   OH274068   2.301   4.971   3.219  0.3384  0.4562 -0.2170
17526TIP3    H174069   2.364   4.905   3.191 -1.0116 -0.7115 -0.5685
17526TIP3    H274070   2.340   5.054   3.191  1.1341 -0.3354 -1.5432
17527TIP3   OH274071   0.914   6.193  13.876 -0.1562 -0.0242  0.9205
17527TIP3    H174072   0.833   6.225  13.917  0.7841  0.3731  2.5756
17527TIP3    H274073   0.970   6.270  13.872  0.1349 -0.2896 -0.2388
17528TIP3   OH274074   5.698   4.220   3.709  0.5387 -0.3462 -0.0804
17528TIP3    H174075   5.724   4.203   3.799 -0.0796 -1.0068 -0.0165
17528TIP3    H274076   5.769   4.183   3.656 -0.1570 -1.9972  0.0955
17529TIP3   OH274077   6.266   5.418   5.461 -0.2438 -0.0765  0.3183
17529TIP3    H174078   6.357   5.444   5.471  0.4326 -1.7789 -0.9569
17529TIP3    H274079   6.217   5.483   5.511  1.5793  1.4426  0.2345
17530TIP3   OH274080   5.838   3.728   4.658 -0.2972  0.6309 -0.2960
17530TIP3    H174081   5.854   3.818   4.628 -0.4209  0.7940  0.1275
17530TIP3    H274082   5.762   3.699   4.607 -1.1192  1.2534  0.5377
17531TIP3   OH274083   3.407   0.289  11.546 -0.0654  0.7942 -0.0911
17531TIP3    H174084   3.479   0.295  11.483 -0.6196 -0.8491 -0.9252
17531TIP3    H274085   3.328   0.280  11.492 -0.5188 -0.9386  0.8140
17532TIP3   OH274086   3.943   2.227  12.728 -0.4117 -0.4636  0.1299
17532TIP3    H174087   4.014   2.215  12.790  0.2745 -0.8799 -0.7159
17532TIP3    H274088   3.879   2.160  12.752  0.3884 -1.4276 -0.3403
17533TIP3   OH274089   3.716   4.957   2.831  0.2698  0.7433  0.0923
17533TIP3    H174090   3.743   4.869   2.807  0.4382  1.0600 -0.9735
17533TIP3    H274091   3.650   4.981   2.766  0.5070  1.5360  0.1204
17534TIP3   OH274092   0.304   4.873   1.882 -0.3588 -0.0791  0.4090
17534TIP3    H174093   0.334   4.950   1.931  0.3710 -0.7733  1.0688
17534TIP3    H274094   0.362   4.802   1.910  0.0203 -0.5319 -1.3593
17535TIP3   OH274095   4.575   4.752  14.409  0.0633 -0.1017 -0.5077
17535TIP3    H174096   4.634   4.718  14.342  0.9399  2.0697 -0.9297
17535TIP3    H274097   4.541   4.674  14.453  3.0356 -1.4646 -0.4085
17536TIP3   OH274098   0.223   1.694   3.624 -0.1105  0.0860 -0.2130
17536TIP3    H174099   0.316   1.711   3.641  0.4569 -2.7185 -0.1382
17536TIP3    H274100   0.178   1.727   3.702  0.5794  2.6400 -0.7761
17537TIP3   OH274101   6.011   6.464   2.990  0.2737 -0.1733 -0.4837
17537TIP3    H174102   5.938   6.402   2.995  1.1485 -1.4455 -2.4362
17537TIP3    H274103   6.009   6.497   2.900  1.0145  1.1858 -0.0404
17538TIP3   OH274104   2.926   0.852   3.690 -0.1739  0.1647  0.4744
17538TIP3    H174105   3.009   0.848   3.642 -0.2282 -1.8279  0.4766
17538TIP3    H274106   2.928   0.938   3.733  1.4356  0.5676 -0.3166
17539TIP3   OH274107   5.416   1.735  15.309  0.1127  0.1215 -0.2018
17539TIP3    H174108   5.324   1.720  15.288  0.0579 -2.4075  1.4395
17539TIP3    H274109   5.414   1.791  15.387 -0.4170 -3.6387  2.7992
17540TIP3   OH274110   5.890   2.080   0.232  0.7154  0.2014 -0.3277
17540TIP3    H174111   5.833   2.098   0.157  0.2693  2.3434  0.4662
17540TIP3    H274112   5.943   2.159   0.241  2.9106 -1.2085 -0.2074
17541TIP3   OH274113   4.920   1.422   2.706 -0.1340  0.0723 -0.5165
17541TIP3    H174114   4.979   1.360   2.663  0.0213  0.5280 -0.9784
17541TIP3    H274115   4.874   1.371   2.772 -1.1072 -0.8819 -1.8961
17542TIP3   OH274116   5.810   0.009  12.634 -0.5461  0.5168  0.1305
17542TIP3    H174117   5.879  -0.053  12.611 -0.9789 -0.8827  2.2543
17542TIP3    H274118   5.846   0.095  12.612  2.1017 -0.1119  1.5916
17543TIP3   OH274119   6.764   5.463   5.084 -0.0294  0.4017  0.9363
17543TIP3    H174120   6.741   5.535   5.143  0.0362  0.4970  0.8462
17543TIP3    H274121   6.680   5.432   5.050 -0.0741  0.2796  1.1590
17544TIP3   OH274122   3.995   1.980   2.787 -0.0396 -0.1930  0.6331
17544TIP3    H174123   3.941   1.911   2.749  1.3635 -0.8333 -0.2600
17544TIP3    H274124   4.067   1.934   2.830  0.4296  0.6780  0.8066
17545TIP3   OH274125   3.225   6.585   2.613  0.2110  0.2563 -0.3151
17545TIP3    H174126   3.253   6.636   2.537  0.6595  0.2563 -0.1521
17545TIP3    H274127   3.245   6.640   2.689 -0.4198  0.3376 -0.2064
17546TIP3   OH274128   2.045   1.544  14.485  0.0440  0.0905 -0.2682
17546TIP3    H174129   2.102   1.596  14.542  0.5744  0.1558 -0.8456
17546TIP3    H274130   1.985   1.608  14.446 -0.2667  0.0572  0.1600
17547TIP3   OH274131   5.815   6.278  11.061 -0.2635  0.5350  0.4262
17547TIP3    H174132   5.843   6.350  11.118 -2.6833  1.3691  0.6596
17547TIP3    H274133   5.852   6.300  10.975 -1.0253  2.1474  0.4779
17548TIP3   OH274134   5.575   5.513  14.997 -0.3775 -0.7988  0.2584
17548TIP3    H174135   5.503   5.535  15.056 -1.4456 -2.7864 -0.2047
17548TIP3    H274136   5.546   5.545  14.912 -0.4867 -1.1066  0.1759
17549TIP3   OH274137   2.685   6.121  12.588  0.6889 -0.0039 -0.1262
17549TIP3    H174138   2.630   6.093  12.515  0.5963 -0.9415  0.2934
17549TIP3    H274139   2.775   6.107  12.556  0.6493 -0.3987 -0.0728
17550TIP3   OH274140   0.953   0.447  13.606  0.0345 -0.4492 -0.2412
17550TIP3    H174141   1.013   0.487  13.670  1.7130 -4.0716  0.7162
17550TIP3    H274142   1.009   0.392  13.552 -1.8148  0.1108 -2.9188
17551TIP3   OH274143   0.477   4.109  15.561 -0.0846 -0.3305 -0.6391
17551TIP3    H174144   0.523   4.049  15.621 -2.6914 -2.1986 -0.3596
17551TIP3    H274145   0.440   4.176  15.619  0.1789 -0.2404 -0.5723
17552TIP3   OH274146   4.780   1.867   5.041  0.4298  0.6280 -0.1829
17552TIP3    H174147   4.867   1.858   5.081 -0.4798 -2.1644  1.4435
17552TIP3    H274148   4.793   1.844   4.949  1.5420  1.1491 -0.1709
17553TIP3   OH274149   1.028   1.942   4.019 -0.2500 -0.2416 -0.2749
17553TIP3    H174150   1.048   1.993   4.098  1.7244 -0.6346 -0.4590
17553TIP3    H274151   1.046   1.851   4.044  0.7675 -0.3325 -1.2620
17554TIP3   OH274152   4.316   0.073  13.296  0.8369  0.0193  0.9435
17554TIP3    H174153   4.387   0.015  13.325 -0.3290 -0.7786  2.3527
17554TIP3    H274154   4.281   0.030  13.218  2.3978  0.8697 -0.2914
17555TIP3   OH274155   4.960   6.454  16.559 -0.7001 -0.8517  0.2189
17555TIP3    H174156   4.917   6.397  16.624 -0.6164 -1.1663 -0.0003
17555TIP3    H274157   4.990   6.394  16.491  1.1151 -0.7791  0.9233
17556TIP3   OH274158   2.067   0.107   4.192 -0.1776 -0.0083 -0.4209
17556TIP3    H174159   2.094   0.133   4.280  0.7432 -0.2571 -0.6133
17556TIP3    H274160   2.047   0.014   4.199  3.9093 -1.1581 -1.2504
17557TIP3   OH274161   6.818   5.963  12.342 -0.4602  0.2755 -0.3001
17557TIP3    H174162   6.910   5.987  12.344 -0.1348 -0.8073 -1.2898
17557TIP3    H274163   6.775   6.029  12.397  1.1141 -0.1929  1.6044
17558TIP3   OH274164   3.231   5.060  16.194 -0.1127 -0.0023 -0.0394
17558TIP3    H174165   3.318   5.061  16.233 -0.6831 -1.1909  1.3766
17558TIP3    H274166   3.247   5.060  16.100  1.4134  0.0105  0.1956
17559TIP3   OH274167   1.719   3.030   3.659  0.1786 -0.0517 -0.1824
17559TIP3    H174168   1.630   3.064   3.666  0.0847  0.1143 -1.8007
17559TIP3    H274169   1.717   2.971   3.584  1.0653 -1.3318  0.7405
17560TIP3   OH274170   3.831   1.461   2.220 -0.3854  0.0709  0.2508
17560TIP3    H174171   3.779   1.407   2.160  1.3790 -0.3515 -0.9831
17560TIP3    H274172   3.786   1.545   2.223 -1.8126 -0.6623  0.2303
17561TIP3   OH274173   4.261   6.035  16.325  0.1392  0.1908 -0.9015
17561TIP3    H174174   4.245   6.006  16.415  0.8003 -0.4072 -0.9701
17561TIP3    H274175   4.246   6.129  16.327  0.1755  0.1861 -0.1612
17562TIP3   OH274176   4.871   1.993   6.589 -0.6294 -0.1154  0.1916
17562TIP3    H174177   4.834   2.072   6.630 -1.7771 -0.2693 -0.5001
17562TIP3    H274178   4.802   1.963   6.529  0.0903 -1.2237 -0.1036
17563TIP3   OH274179   1.356   2.470   1.898  0.2538  0.1709  0.4535
17563TIP3    H174180   1.420   2.480   1.827  0.0076  1.9904  0.4260
17563TIP3    H274181   1.314   2.386   1.881  0.1057  0.6170 -1.6688
17564TIP3   OH274182   1.856   3.377  12.824  0.2676  0.0175 -0.3987
17564TIP3    H174183   1.850   3.292  12.779 -2.2402  0.5710 -1.3041
17564TIP3    H274184   1.863   3.354  12.917  1.9667 -1.1529 -0.7687
17565TIP3   OH274185   4.625   5.015   4.120 -0.3371 -0.1743 -0.2216
17565TIP3    H174186   4.529   5.016   4.110 -0.4000  0.7345  0.3302
17565TIP3    H274187   4.640   5.054   4.206  0.4765 -1.7874  0.3850
17566TIP3   OH274188   2.108   6.699   1.493 -0.6419 -0.3460 -0.0066
17566TIP3    H174189   2.188   6.664   1.453 -0.8971  1.9187 -2.9085
17566TIP3    H274190   2.135   6.729   1.579  1.2745 -1.0357 -0.3160
17567TIP3   OH274191   3.616   5.907   0.622 -0.3583  0.8310 -0.0644
17567TIP3    H174192   3.542   5.893   0.564 -0.6202  1.0538  0.2138
17567TIP3    H274193   3.646   5.996   0.600 -1.4625  1.5671  1.2463
17568TIP3   OH274194   0.334   0.345  16.599 -0.2610  0.0490  0.3273
17568TIP3    H174195   0.345   0.263  16.551  0.3860  0.8663 -0.9848
17568TIP3    H274196   0.405   0.345  16.663  1.7472  0.9600 -1.7561
17569TIP3   OH274197   1.404   3.621  12.760 -0.0837 -0.2744 -0.3703
17569TIP3    H174198   1.482   3.677  12.760  0.2094 -0.6406  0.8570
17569TIP3    H274199   1.403   3.581  12.673  1.1676 -0.3496 -0.3684
17570TIP3   OH274200   3.148   5.293   1.327  0.2206 -0.3882  0.1498
17570TIP3    H174201   3.204   5.216   1.318 -1.1995 -1.6443  1.4869
17570TIP3    H274202   3.115   5.309   1.238  1.0842 -0.8725 -0.2665
17571TIP3   OH274203   4.353   4.469  14.981 -0.0804  0.8383  0.0943
17571TIP3    H174204   4.325   4.480  15.072  0.5997  1.9213  0.1841
17571TIP3    H274205   4.404   4.547  14.961  2.6994 -0.8876 -0.1343
17572TIP3   OH274206   1.806   2.550   0.150 -0.2580 -0.1549  0.6308
17572TIP3    H174207   1.898   2.528   0.163  0.0338  0.0720 -0.8546
17572TIP3    H274208   1.768   2.472   0.110 -0.5653 -0.0081  0.6331
17573TIP3   OH274209   0.108   2.637  11.997 -0.2520  0.2142 -0.2423
17573TIP3    H174210   0.195   2.636  12.037 -0.1764 -0.3890 -0.4071
17573TIP3    H274211   0.059   2.702  12.047 -0.6971 -1.6770  1.9702
17574TIP3   OH274212   6.608   2.996   0.779  0.6474 -0.0555  0.3442
17574TIP3    H174213   6.666   2.935   0.826  1.6899 -0.8982 -1.8909
17574TIP3    H274214   6.565   2.941   0.713  2.5323  1.7290 -2.5786
17575TIP3   OH274215   1.743   2.364  13.251 -0.9297  0.0263 -0.1389
17575TIP3    H174216   1.704   2.279  13.273  0.1441 -0.4654 -0.1015
17575TIP3    H274217   1.813   2.376  13.315 -0.2157  0.3341 -0.9587
17576TIP3   OH274218   5.495   4.630   4.717  0.5000  0.6849  0.4924
17576TIP3    H174219   5.545   4.550   4.705 -2.8525 -1.3141 -2.5725
17576TIP3    H274220   5.516   4.683   4.640 -0.4945  0.6937  0.2030
17577TIP3   OH274221   4.553   5.306  12.892  0.4757  0.4509  0.3446
17577TIP3    H174222   4.603   5.346  12.821  2.4005 -1.2725  0.6175
17577TIP3    H274223   4.469   5.282  12.853  0.3379  2.1850 -0.5039
17578TIP3   OH274224   6.682   4.711   4.128 -0.6621  0.4998  0.0553
17578TIP3    H174225   6.601   4.671   4.160 -0.5546  1.5455  1.8038
17578TIP3    H274226   6.664   4.730   4.036 -2.0712 -0.1191  0.1701
17579TIP3   OH274227   4.820   4.120  12.490  0.3096  0.0649 -0.5000
17579TIP3    H174228   4.902   4.087  12.454  2.0568  2.0265  1.3625
17579TIP3    H274229   4.842   4.207  12.523 -1.9197 -0.2482  2.1908
17580TIP3   OH274230   3.360   4.226  11.870  0.4692  0.2224 -0.1050
17580TIP3    H174231   3.395   4.315  11.867 -0.8945  0.8260  0.7211
17580TIP3    H274232   3.298   4.222  11.797 -0.6557  0.5255  0.7920
17581TIP3   OH274233   5.102   5.718   5.096  0.0140 -0.4244 -0.0664
17581TIP3    H174234   5.167   5.780   5.129  0.0150  0.7249 -2.0790
17581TIP3    H274235   5.020   5.742   5.139  0.5742 -0.8521  1.2716
17582TIP3   OH274236   5.005   3.805  16.075  0.0234  0.1964  0.1685
17582TIP3    H174237   5.090   3.831  16.111  0.0636 -0.6888  0.7394
17582TIP3    H274238   4.943   3.870  16.109  0.3766  0.4974  0.2375
17583TIP3   OH274239   6.439   2.916  12.096  0.9069  0.2752 -0.6598
17583TIP3    H174240   6.531   2.941  12.088  1.0033 -0.5851 -2.8138
17583TIP3    H274241   6.418   2.874  12.013 -1.8879  1.9169 -0.9300
17584TIP3   OH274242   2.877   5.154   4.538 -0.1827 -0.3073 -1.0322
17584TIP3    H174243   2.863   5.244   4.507 -2.1167 -0.2896 -0.2008
17584TIP3    H274244   2.791   5.123   4.564  0.2656 -2.7843 -2.2067
17585TIP3   OH274245   3.098   5.327  14.326 -0.2530  0.0193 -0.5729
17585TIP3    H174246   3.121   5.247  14.374 -0.5594  0.8843  1.1003
17585TIP3    H274247   3.176   5.348  14.275  0.4382 -0.4633  0.2537
17586TIP3   OH274248   4.133   0.000  16.099 -0.5435  0.5015  0.3640
17586TIP3    H174249   4.097   0.079  16.059  0.2030  0.6242 -0.0624
17586TIP3    H274250   4.217   0.028  16.136  0.0367 -0.2392 -0.3737
17587TIP3   OH274251   3.414   3.177  12.436  0.1479  0.3676  0.0062
17587TIP3    H174252   3.498   3.183  12.483  1.0131  0.9384 -1.5191
17587TIP3    H274253   3.348   3.190  12.504  1.2961  0.1231  1.2273
17588TIP3   OH274254   1.627   4.909  10.903 -0.0322 -0.3069  0.4142
17588TIP3    H174255   1.672   4.828  10.879  0.1366 -0.3982  1.0223
17588TIP3    H274256   1.693   4.977  10.891 -0.7413  0.0524 -2.0825
17589TIP3   OH274257   0.898   6.586  14.606 -0.3698  0.2218 -0.1015
17589TIP3    H174258   0.901   6.550  14.518  1.0999 -0.9218  0.3725
17589TIP3    H274259   0.912   6.510  14.663  0.6854  1.2338  1.0305
17590TIP3   OH274260   4.797   6.116  14.708 -0.4865  0.6169 -0.0191
17590TIP3    H174261   4.796   6.060  14.631  0.5123  0.0748  0.3473
17590TIP3    H274262   4.727   6.180  14.692 -2.9713 -1.8175  0.3882
17591TIP3   OH274263   2.616   1.087   0.146 -0.0233  0.1351  0.2123
17591TIP3    H174264   2.704   1.106   0.111 -0.0984 -0.7976 -0.5292
17591TIP3    H274265   2.621   1.112   0.238  1.0940 -0.1048  0.2320
17592TIP3   OH274266   4.179   0.082   1.516  0.0850  0.1814 -0.4933
17592TIP3    H174267   4.181   0.075   1.612  1.0759 -0.2348 -0.5328
17592TIP3    H274268   4.268   0.059   1.488 -0.2702  0.0042 -1.5344
17593TIP3   OH274269   1.566   4.543  13.184 -0.7934 -0.3458 -0.9723
17593TIP3    H174270   1.568   4.558  13.279 -0.8582  1.2840 -1.1970
17593TIP3    H274271   1.483   4.499  13.169 -2.8888  3.1250 -0.6837
17594TIP3   OH274272   4.221   4.771  12.901  0.3645  0.6474  0.0614
17594TIP3    H174273   4.194   4.732  12.818  1.3363  0.6434 -0.2652
17594TIP3    H274274   4.316   4.772  12.897  0.3977  2.2426  0.4341
17595TIP3   OH274275   0.810   2.596   4.242 -0.2110  0.5605  0.1569
17595TIP3    H174276   0.866   2.649   4.297 -0.8897  1.2000  0.2403
17595TIP3    H274277   0.854   2.596   4.156 -0.6400  1.9917 -0.0884
17596TIP3   OH274278   5.017   6.393  15.874 -0.0263 -1.0580 -0.1718
17596TIP3    H174279   5.044   6.302  15.887 -0.1613 -0.6823  3.7633
17596TIP3    H274280   4.922   6.388  15.860 -0.5268 -1.4611  2.8616
17597TIP3   OH274281   5.718   3.599  11.450 -0.1263  0.6422  0.0654
17597TIP3    H174282   5.678   3.639  11.528  1.8104  0.3655  1.2656
17597TIP3    H274283   5.796   3.652  11.434 -0.4668  0.6768 -1.7307
17598TIP3   OH274284   2.821   3.817  17.099 -0.0247  0.2932  0.3333
17598TIP3    H174285   2.778   3.754  17.156  1.6543 -0.3878  0.8986
17598TIP3    H274286   2.756   3.837  17.032 -1.1339 -0.8320  1.0353
17599TIP3   OH274287   6.673   0.299   1.724  0.2648 -0.1094 -0.2988
17599TIP3    H174288   6.748   0.348   1.757  0.2912 -1.9818  2.8639
17599TIP3    H274289   6.698   0.207   1.735 -2.1529 -0.7938  0.0679
17600TIP3   OH274290   5.331   5.671   0.021  0.2397  0.8144  1.0525
17600TIP3    H174291   5.248   5.630  -0.003  0.6863 -1.4966  2.9884
17600TIP3    H274292   5.391   5.650  -0.050  0.0585 -0.7207  1.3244
17601TIP3   OH274293   4.266   0.895  11.712 -0.1968  0.1509  0.3948
17601TIP3    H174294   4.317   0.915  11.633  0.8961 -1.8818  0.5355
17601TIP3    H274295   4.239   0.804  11.702 -1.0276  0.1978  1.8499
17602TIP3   OH274296   1.736   4.751  13.691  0.4810 -0.1745  0.2470
17602TIP3    H174297   1.699   4.838  13.705  0.8069  0.0282 -0.1387
17602TIP3    H274298   1.676   4.709  13.630  0.5299 -0.0864  0.1386
17603TIP3   OH274299   1.132   3.370  15.619 -0.1766  0.3631  0.1032
17603TIP3    H174300   1.153   3.402  15.531 -1.4952 -0.5732 -0.5921
17603TIP3    H274301   1.063   3.428  15.650 -0.1519  0.3082  0.2589
17604TIP3   OH274302   4.604   6.575  14.971 -0.3163 -0.0341 -0.0833
17604TIP3    H174303   4.588   6.481  14.982  2.0438 -0.2996  1.9641
17604TIP3    H274304   4.600   6.611  15.059 -0.3789  1.6443 -0.7445
17605TIP3   OH274305   2.912   5.491  12.996  0.2106  0.0167  0.3657
17605TIP3    H174306   2.881   5.515  13.083  1.4094  1.2068  0.5042
17605TIP3    H274307   2.858   5.543  12.937  0.4764  0.4493  0.4966
17606TIP3   OH274308   3.429   0.578  17.052 -0.2612 -0.0735 -0.3315
17606TIP3    H174309   3.337   0.576  17.078 -0.1111 -1.2816  0.1671
17606TIP3    H274310   3.467   0.501  17.094  1.2628  1.0951  0.5074
17607TIP3   OH274311   1.301   4.145   2.029 -0.0260  0.8928 -0.1675
17607TIP3    H174312   1.228   4.092   2.061 -0.5315  0.7949 -1.4379
17607TIP3    H274313   1.287   4.231   2.069  0.6871  0.1698  1.7473
17608TIP3   OH274314   1.384   4.916   6.120 -0.2523 -0.4110 -0.0073
17608TIP3    H174315   1.399   4.829   6.084  1.2047  0.2641 -1.1269
17608TIP3    H274316   1.305   4.947   6.076 -0.5593 -1.0005  0.1170
17609TIP3   OH274317   2.216   1.677  16.362 -0.2156 -0.5579 -0.0149
17609TIP3    H174318   2.187   1.587  16.345 -0.8471 -0.7980  2.0596
17609TIP3    H274319   2.256   1.673  16.449  2.3445  0.6310 -1.0346
17610TIP3   OH274320   4.586   0.473   4.975  0.0292  0.1939 -0.1877
17610TIP3    H174321   4.594   0.506   5.064  0.2131 -1.0422  0.2661
17610TIP3    H274322   4.497   0.496   4.949 -0.4349 -0.4699  0.7563
17611TIP3   OH274323   2.597   4.112   0.974 -0.1043 -0.3351 -0.7036
17611TIP3    H174324   2.666   4.160   0.930 -1.3051  0.3798 -1.8954
17611TIP3    H274325   2.617   4.020   0.958  1.1029 -0.1829 -0.1409
17612TIP3   OH274326   1.928   1.056  12.302 -0.0638  0.4811  0.4369
17612TIP3    H174327   2.012   1.100  12.300 -0.0311  0.4115  0.2721
17612TIP3    H274328   1.865   1.122  12.274  0.0990  0.1700 -0.6920
17613TIP3   OH274329   0.285   5.122  11.418 -0.4080  0.5254  0.6963
17613TIP3    H174330   0.261   5.182  11.348  2.1809 -1.4823 -2.1277
17613TIP3    H274331   0.216   5.055  11.418  0.0470  0.0400 -0.6200
17614TIP3   OH274332   3.638   5.964  11.211  0.4539  0.2753 -0.3112
17614TIP3    H174333   3.670   6.014  11.286 -0.5870  1.2568 -0.4990
17614TIP3    H274334   3.709   5.969  11.147  0.9488  0.2619  0.2216
17615TIP3   OH274335   3.073   3.839   3.445  0.1712 -0.6435 -0.4631
17615TIP3    H174336   3.134   3.901   3.485  0.0519 -0.2024 -0.9622
17615TIP3    H274337   2.987   3.880   3.454 -0.0398 -1.1667  0.0480
17616TIP3   OH274338   6.821   2.569  15.933  0.1416 -0.5445 -0.2110
17616TIP3    H174339   6.863   2.505  15.875  2.5642 -0.8045  1.6757
17616TIP3    H274340   6.849   2.654  15.899  0.1933 -0.6270 -0.3761
17617TIP3   OH274341   5.033   3.009  16.555  0.3780 -0.2630  0.1256
17617TIP3    H174342   5.090   2.953  16.503  0.5865  0.6126 -0.6071
17617TIP3    H274343   5.017   3.086  16.500  0.1728  0.4432  1.1319
17618TIP3   OH274344   3.575   2.484  15.749  0.1182 -0.3397 -0.0080
17618TIP3    H174345   3.554   2.467  15.657 -0.3510 -1.3064  0.2692
17618TIP3    H274346   3.653   2.540  15.746 -0.8495  1.0085 -1.0153
17619TIP3   OH274347   1.972   1.748  12.021  0.4092  0.1002 -0.3926
17619TIP3    H174348   2.058   1.775  11.991  0.8092 -1.2669 -0.5174
17619TIP3    H274349   1.968   1.654  12.004 -0.3572 -0.2298  1.3682
17620TIP3   OH274350   3.342   0.184   1.477 -0.1058  0.3250 -0.1030
17620TIP3    H174351   3.278   0.183   1.406  0.7653 -1.6036 -0.9372
17620TIP3    H274352   3.290   0.199   1.556 -1.5935 -1.0158 -0.7721
17621TIP3   OH274353   5.616   0.007   2.718  0.6034  0.2179 -0.2070
17621TIP3    H174354   5.622   0.040   2.628  0.1280 -0.8131 -0.6218
17621TIP3    H274355   5.627  -0.087   2.711 -1.5501 -0.1608  0.5533
17622TIP3   OH274356   2.819   0.142   4.071  0.4143  0.3248  0.1962
17622TIP3    H174357   2.871   0.137   4.151  0.8798  1.3984 -0.0267
17622TIP3    H274358   2.743   0.086   4.088  1.0737 -0.3627  0.9486
17623TIP3   OH274359   3.942   1.894   0.678 -0.3342  0.6461 -0.2463
17623TIP3    H174360   3.929   1.987   0.698  0.0900  0.3066  1.7701
17623TIP3    H274361   4.031   1.875   0.706 -0.7681 -0.6039  0.3656
17624TIP3   OH274362   1.961   1.445  14.837  0.1424  0.4996  0.1700
17624TIP3    H174363   1.929   1.430  14.926  1.6683 -1.9729  0.4055
17624TIP3    H274364   1.902   1.394  14.782  1.6091 -1.4420  0.2828
17625TIP3   OH274365   3.370   2.019   4.211 -0.4059  0.6416  0.7834
17625TIP3    H174366   3.362   1.931   4.173 -0.7378  0.6997  0.7203
17625TIP3    H274367   3.418   2.005   4.293 -0.4297  0.4058  0.7594
17626TIP3   OH274368   0.516   2.400  11.540 -0.2056 -0.2254 -0.2126
17626TIP3    H174369   0.610   2.379  11.538 -0.5033 -1.6097 -1.2988
17626TIP3    H274370   0.479   2.336  11.601 -0.3484  0.8962  0.9219
17627TIP3   OH274371   5.597   0.818  15.527 -0.2263  0.0892  0.3765
17627TIP3    H174372   5.567   0.906  15.504  1.3114  0.0559 -2.0542
17627TIP3    H274373   5.527   0.783  15.582 -2.5947  1.5485 -1.5046
17628TIP3   OH274374   0.374   1.502   5.615  0.1018 -0.3773  0.4883
17628TIP3    H174375   0.360   1.465   5.702 -0.7190 -0.1055  0.4800
17628TIP3    H274376   0.420   1.585   5.632 -1.0602  0.2306  0.7606
17629TIP3   OH274377   4.110   3.585   1.080  0.1012  0.3246 -0.2959
17629TIP3    H174378   4.026   3.604   1.037 -0.7256  0.0504  1.1552
17629TIP3    H274379   4.124   3.660   1.138  1.4601  0.9381 -1.3524
17630TIP3   OH274380   4.028   6.736  13.625 -0.2179  0.4331  0.1148
17630TIP3    H174381   3.979   6.811  13.590 -1.7655 -0.3179  0.5777
17630TIP3    H274382   3.998   6.729  13.716 -0.0418 -0.7034  0.0929
17631TIP3   OH274383   5.918   5.205  15.116 -0.1957  0.3662  0.0503
17631TIP3    H174384   5.909   5.120  15.073  0.6634  0.4122 -0.2402
17631TIP3    H274385   5.832   5.221  15.156  0.0579 -1.3013  1.3343
17632TIP3   OH274386   2.964   5.516   5.710 -0.2973 -0.0675  0.5770
17632TIP3    H174387   2.902   5.508   5.638 -1.4423  0.8950  1.4212
17632TIP3    H274388   2.947   5.603   5.747  2.4299  0.7923  0.0536
17633TIP3   OH274389   6.490   3.089   1.479  0.8645 -0.2300 -0.2691
17633TIP3    H174390   6.435   3.138   1.541  2.8070  2.7713 -0.6906
17633TIP3    H274391   6.553   3.043   1.534  1.9197  1.5706  0.0988
17634TIP3   OH274392   2.309   0.502   4.736 -0.1335 -0.3510  0.3075
17634TIP3    H174393   2.366   0.491   4.813  1.6900  0.7362 -0.8180
17634TIP3    H274394   2.329   0.427   4.680 -1.0712 -0.8570  0.6271
17635TIP3   OH274395   2.789   4.910  13.680 -0.4222  0.1555  0.2261
17635TIP3    H174396   2.773   4.836  13.739  2.4036 -1.0531 -0.3672
17635TIP3    H274397   2.802   4.984  13.738 -4.1392  0.5528  0.8166
17636TIP3   OH274398   4.715   6.083   5.514  0.5428  0.2690  0.0352
17636TIP3    H174399   4.738   6.100   5.423  0.8801 -0.2411  0.0272
17636TIP3    H274400   4.684   5.993   5.515 -2.5502  1.2061 -0.1760
17637TIP3   OH274401   5.688   1.201  16.923 -0.1242  0.2265  0.2361
17637TIP3    H174402   5.708   1.108  16.927 -0.7238  0.0756 -0.1197
17637TIP3    H274403   5.747   1.236  16.855 -0.4030 -0.0361 -0.1456
17638TIP3   OH274404   5.953   2.162   2.081  0.0378 -0.3818  0.1033
17638TIP3    H174405   6.011   2.104   2.131 -1.0545 -0.0772  1.7892
17638TIP3    H274406   5.996   2.170   1.996  1.3389 -1.9073  0.5548
17639TIP3   OH274407   2.260   6.706  17.233 -0.2771 -0.0724 -0.2468
17639TIP3    H174408   2.336   6.727  17.178 -0.2357 -0.8743 -0.5120
17639TIP3    H274409   2.243   6.613  17.216 -1.4126  0.1327 -0.3040
17640TIP3   OH274410   3.477   2.210   4.507 -0.0351 -0.4288  0.3877
17640TIP3    H174411   3.405   2.266   4.477  0.2584 -1.3134 -2.1662
17640TIP3    H274412   3.554   2.267   4.508 -0.4102  0.0799  1.4011
17641TIP3   OH274413   0.465   3.824  11.599 -0.0046 -0.4264 -0.5035
17641TIP3    H174414   0.477   3.795  11.689  0.4727  1.8032  0.2060
17641TIP3    H274415   0.553   3.841  11.567 -0.2816  1.0353 -0.5628
17642TIP3   OH274416   3.038   4.274   1.768 -0.5271 -0.3078 -0.1540
17642TIP3    H174417   2.987   4.223   1.831 -1.8132  1.0786 -0.0158
17642TIP3    H274418   3.039   4.220   1.689 -1.3526 -0.8178  0.1667
17643TIP3   OH274419   5.643   3.804  16.303 -0.9662  0.1222 -0.6448
17643TIP3    H174420   5.709   3.838  16.363 -1.6217  1.1767 -0.4900
17643TIP3    H274421   5.572   3.869  16.306 -0.9840  0.2619 -2.6196
17644TIP3   OH274422   2.938   3.956   1.418  0.1485 -0.3520  0.2212
17644TIP3    H174423   2.979   4.005   1.346  0.8867  0.8892  1.4392
17644TIP3    H274424   2.947   3.864   1.392 -2.1545  0.0592 -2.6006
17645TIP3   OH274425   0.109   2.269   0.968 -0.1596  0.1584 -0.0468
17645TIP3    H174426   0.103   2.357   1.004  2.9197  0.9793 -1.2503
17645TIP3    H274427   0.087   2.212   1.041  1.9674  1.8576  2.0669
17646TIP3   OH274428   1.068   3.646   3.728 -0.4075  0.3095  0.5465
17646TIP3    H174429   1.093   3.646   3.820  0.4956 -3.4013  0.4587
17646TIP3    H274430   0.980   3.608   3.726 -0.3473  0.1833 -0.1226
17647TIP3   OH274431   3.270   5.863  11.733  0.1408 -0.1133 -0.3752
17647TIP3    H174432   3.226   5.889  11.652 -0.0673  0.4787 -0.0740
17647TIP3    H274433   3.350   5.818  11.703  0.1132  0.1845 -0.9085
17648TIP3   OH274434   5.631   5.463   3.178  0.5366 -0.4158  0.0248
17648TIP3    H174435   5.562   5.473   3.112 -0.6187  1.2524  1.3935
17648TIP3    H274436   5.711   5.453   3.127 -0.0205  2.7258 -1.7492
17649TIP3   OH274437   3.885   5.024   0.046  0.2513 -0.3934  0.4755
17649TIP3    H174438   3.958   5.086   0.041  0.4940 -0.6192  1.1257
17649TIP3    H274439   3.814   5.076   0.084  0.1916 -0.2831  0.2165
17650TIP3   OH274440   1.841   0.557   1.422  0.1801  0.3169 -0.0520
17650TIP3    H174441   1.868   0.648   1.411  0.3106  0.4008  0.9006
17650TIP3    H274442   1.746   0.560   1.411  0.2252  0.5111 -0.3963
17651TIP3   OH274443   2.550   1.358  16.996  0.3530  0.7500  0.5652
17651TIP3    H174444   2.564   1.267  17.024  1.5058  0.3364 -1.1899
17651TIP3    H274445   2.626   1.377  16.941 -1.0568  1.9835 -1.0071
17652TIP3   OH274446   1.053   0.875  17.084 -0.8229  0.1196  0.1209
17652TIP3    H174447   1.124   0.914  17.033  0.4735  0.4009  2.0358
17652TIP3    H274448   1.019   0.805  17.029  1.1347 -0.1906 -0.7694
17653TIP3   OH274449   1.142   0.899  16.641 -0.0643  0.5843  0.5293
17653TIP3    H174450   1.109   0.901  16.551 -0.3572 -2.3859  0.4424
17653TIP3    H274451   1.109   0.816  16.676  3.9917 -0.7855  1.7103
17654TIP3   OH274452   0.042   5.956  15.356  0.2478  0.5228 -0.2256
17654TIP3    H174453   0.051   5.863  15.336  2.3893  0.8139 -0.8895
17654TIP3    H274454   0.093   6.001  15.288 -0.0538  2.1184  0.5472
17655TIP3   OH274455   3.745   5.614   4.837  0.1800 -0.3082 -0.3043
17655TIP3    H174456   3.704   5.629   4.752  0.3993 -0.7213 -0.4866
17655TIP3    H274457   3.820   5.558   4.818  1.2148  0.9543 -0.0550
17656TIP3   OH274458   3.710   1.764   0.622 -0.1539 -0.0594  0.8129
17656TIP3    H174459   3.788   1.820   0.623 -1.1693  1.4540 -0.5535
17656TIP3    H274460   3.688   1.753   0.715  0.3150  1.4894  1.1366
17657TIP3   OH274461   2.736   1.425  15.095 -0.1415 -0.0590 -0.0530
17657TIP3    H174462   2.710   1.360  15.160 -1.1587  1.4225  1.0837
17657TIP3    H274463   2.702   1.390  15.012 -2.6271  0.0004  0.8421
17658TIP3   OH274464   6.411   1.679  15.020 -0.0780  0.1033 -0.1571
17658TIP3    H174465   6.489   1.722  14.986 -1.1264  1.1579 -1.2968
17658TIP3    H274466   6.345   1.691  14.952 -1.2509 -0.7518  0.7875
17659TIP3   OH274467   4.272   6.157   3.331  0.1592  0.5431  0.3949
17659TIP3    H174468   4.292   6.092   3.263  2.3172  0.0962  1.3598
17659TIP3    H274469   4.251   6.236   3.282 -2.4638 -0.7820 -0.8139
17660TIP3   OH274470   2.483   3.210  12.398 -0.0154 -0.5049 -0.6520
17660TIP3    H174471   2.480   3.266  12.475  1.9160  0.7478 -1.4185
17660TIP3    H274472   2.457   3.268  12.326 -0.8721 -1.4018 -1.0838
17661TIP3   OH274473   3.954   4.164  14.863 -0.1843 -0.3830 -0.4985
17661TIP3    H174474   3.970   4.204  14.949  0.1345  0.7118 -1.0509
17661TIP3    H274475   3.994   4.077  14.870  0.1918 -0.1568  0.3321
17662TIP3   OH274476   2.094   0.142  16.348  0.2706 -0.2015 -0.8005
17662TIP3    H174477   2.011   0.189  16.352  0.3343 -0.0301 -1.3978
17662TIP3    H274478   2.130   0.164  16.262  2.1004  1.6770  0.3530
17663TIP3   OH274479   5.264   0.818  14.818 -0.0089  0.3019  0.2525
17663TIP3    H174480   5.315   0.782  14.890 -0.5080 -1.1891 -0.0980
17663TIP3    H274481   5.317   0.889  14.783  0.5188  0.6429  1.6786
17664TIP3   OH274482   1.097   0.480  15.158 -0.2457 -0.5211 -0.5395
17664TIP3    H174483   1.142   0.403  15.124 -0.0129 -0.1153 -1.1643
17664TIP3    H274484   1.008   0.472  15.124 -0.7233 -1.3985  0.8122
17665TIP3   OH274485   2.483   6.206   1.264  0.2585 -0.1868  0.0983
17665TIP3    H174486   2.497   6.236   1.174  0.9002 -1.7440 -0.3531
17665TIP3    H274487   2.566   6.224   1.308  0.8640 -1.7459 -0.3343
17666TIP3   OH274488   2.204   6.102  14.277  0.0582  0.1453  0.1271
17666TIP3    H174489   2.123   6.061  14.250 -0.8297  1.9948 -0.1707
17666TIP3    H274490   2.248   6.036  14.331 -2.2477 -0.4325  1.4079
17667TIP3   OH274491   6.501   0.915  10.861 -0.6411 -0.1632  0.0575
17667TIP3    H174492   6.408   0.890  10.869 -0.1978 -1.6099  1.5024
17667TIP3    H274493   6.547   0.848  10.913  1.2936  0.0289 -1.3244
17668TIP3   OH274494   0.235   1.105   2.262  0.3052  0.4824 -0.2675
17668TIP3    H174495   0.238   1.033   2.326 -2.4664  1.4423  1.1209
17668TIP3    H274496   0.319   1.150   2.272  0.2459  0.1708  2.2848
17669TIP3   OH274497   0.787   2.456  14.070  0.2065 -0.3337 -0.0904
17669TIP3    H174498   0.691   2.466  14.066  0.2495 -0.2660 -1.6692
17669TIP3    H274499   0.805   2.433  14.161 -1.1727  1.0446  0.5802
17670TIP3   OH274500   5.117   6.496  14.647 -0.1670 -0.1362  0.1241
17670TIP3    H174501   5.107   6.489  14.742  2.3357  0.4035  0.4928
17670TIP3    H274502   5.116   6.405  14.616  0.5016 -0.4043  0.8632
17671TIP3   OH274503   6.622   2.964   5.618 -0.0490 -0.5630  0.8118
17671TIP3    H174504   6.545   2.906   5.624 -1.2999  0.7995 -1.0372
17671TIP3    H274505   6.634   2.995   5.708 -3.8442  1.7519  0.7740
17672TIP3   OH274506   1.358   3.428   0.665  0.4820 -0.6527  0.5442
17672TIP3    H174507   1.437   3.394   0.624  1.6270  1.2277  1.0679
17672TIP3    H274508   1.387   3.465   0.748 -1.2858 -1.5835  1.6474
17673TIP3   OH274509   5.414   3.082  13.044 -0.5739  0.3855 -0.2990
17673TIP3    H174510   5.370   3.131  13.114 -0.3316 -2.1682  1.8447
17673TIP3    H274511   5.507   3.096  13.060 -0.2209 -3.7456  3.1021
17674TIP3   OH274512   0.321   2.990   1.668  0.3292 -0.2330 -0.1412
17674TIP3    H174513   0.311   2.976   1.762  0.2536  0.9719  0.0516
17674TIP3    H274514   0.382   2.923   1.640  1.6928  0.4339  1.0975
17675TIP3   OH274515   2.733   1.586   2.368  0.2367  0.1269 -0.1841
17675TIP3    H174516   2.733   1.534   2.287 -0.5098  0.2884 -0.2973
17675TIP3    H274517   2.706   1.673   2.339  0.7500  0.3873  0.1218
17676TIP3   OH274518   6.772   4.973  16.018  0.0706  0.3602 -0.5520
17676TIP3    H174519   6.693   4.993  16.069  0.5368 -0.2687  0.4343
17676TIP3    H274520   6.774   5.040  15.950 -0.1291  1.7286  0.7469
17677TIP3   OH274521   5.605   3.859  15.801 -0.0091  0.6059 -0.4227
17677TIP3    H174522   5.652   3.809  15.733 -2.4935 -1.4016 -0.8322
17677TIP3    H274523   5.661   3.851  15.878 -0.2494 -3.1005 -0.4194
17678TIP3   OH274524   0.998   0.965   6.296 -0.7922  0.5234  0.0111
17678TIP3    H174525   0.905   0.980   6.281 -1.0277  1.4308  2.0719
17678TIP3    H274526   1.014   0.996   6.385  1.5204  0.5007 -0.3234
17679TIP3   OH274527   2.314   0.873  12.286 -0.5106 -0.0555 -0.0259
17679TIP3    H174528   2.248   0.856  12.354 -1.3615  1.0429 -0.5490
17679TIP3    H274529   2.370   0.942  12.324  1.0332 -1.7070  0.8436
17680TIP3   OH274530   5.986   1.447   5.492 -0.0731  0.0085  0.0034
17680TIP3    H174531   5.997   1.488   5.407 -1.1491 -0.6725 -0.4830
17680TIP3    H274532   6.039   1.500   5.552 -1.4130  2.1153 -0.5948
17681TIP3   OH274533   6.404   6.821  13.766 -0.1099 -0.0359  0.1622
17681TIP3    H174534   6.409   6.884  13.838 -0.3871 -0.4077  0.5147
17681TIP3    H274535   6.440   6.740  13.803 -0.3496 -0.2583 -0.0840
17682TIP3   OH274536   1.377   1.617  17.219  0.2267  0.5343 -0.1497
17682TIP3    H174537   1.428   1.690  17.254 -0.3774  0.6540  0.5388
17682TIP3    H274538   1.395   1.617  17.125 -0.8376  2.4701 -0.4135
17683TIP3   OH274539   4.957   5.713   4.309 -0.1155 -0.3452 -0.1262
17683TIP3    H174540   4.957   5.795   4.358 -0.2766 -1.2720  1.5363
17683TIP3    H274541   4.879   5.667   4.340 -1.2901 -0.2491 -2.6793
17684TIP3   OH274542   3.955   4.889   4.594 -0.0001 -0.0441 -0.1379
17684TIP3    H174543   3.902   4.932   4.527 -1.2460 -3.5128 -1.6034
17684TIP3    H274544   3.913   4.913   4.677 -0.9094  1.0712 -0.8905
17685TIP3   OH274545   6.607   5.246  11.058 -0.0109 -0.4664  0.1268
17685TIP3    H174546   6.641   5.156  11.057  1.2718 -0.0414  1.2305
17685TIP3    H274547   6.528   5.241  11.111  1.8940 -0.4651  3.2647
17686TIP3   OH274548   4.234   5.227   2.724 -0.0307 -0.6167 -0.1991
17686TIP3    H174549   4.144   5.231   2.691  0.1401 -0.7351 -0.6900
17686TIP3    H274550   4.225   5.204   2.816 -0.5489  0.3860  0.0082
17687TIP3   OH274551   4.827   2.373  11.506 -0.9537  0.3303  0.2277
17687TIP3    H174552   4.825   2.366  11.602 -1.7364 -1.2413  0.1266
17687TIP3    H274553   4.886   2.447  11.489 -1.1261  0.9081  1.9250
17688TIP3   OH274554   4.555   4.535  10.898  0.0747 -0.0584  0.4012
17688TIP3    H174555   4.486   4.531  10.964 -0.1033  0.1591  0.2289
17688TIP3    H274556   4.634   4.555  10.948 -0.0193 -0.1227  0.5781
17689TIP3   OH274557   2.798   0.515  13.307 -0.2313 -0.2353  0.0306
17689TIP3    H174558   2.751   0.432  13.301 -2.2250  0.5988  2.2927
17689TIP3    H274559   2.741   0.571  13.360  1.0048  2.6156 -1.3809
17690TIP3   OH274560   5.956   3.753  11.347  0.0106  0.0893  0.5380
17690TIP3    H174561   5.982   3.706  11.426  0.3962  3.4425  2.5697
17690TIP3    H274562   5.913   3.832  11.379 -2.7238  0.1364 -2.6721
17691TIP3   OH274563   5.949   5.206  15.992  0.0164 -0.0676  0.2982
17691TIP3    H174564   5.968   5.164  15.908 -0.8980 -1.7068  0.8697
17691TIP3    H274565   5.868   5.256  15.976  0.0346 -0.0891  0.1305
17692TIP3   OH274566   5.527   2.491   1.357 -0.1689 -0.1122 -0.0638
17692TIP3    H174567   5.556   2.528   1.441  0.5555  1.0315 -0.7816
17692TIP3    H274568   5.607   2.453   1.319 -0.4776 -0.5542 -0.2788
17693TIP3   OH274569   1.604   6.387   0.891 -0.0550  0.2777 -0.2050
17693TIP3    H174570   1.584   6.320   0.826  0.8860  0.9696 -1.2518
17693TIP3    H274571   1.697   6.374   0.910 -0.3362  0.0388  1.0808
17694TIP3   OH274572   5.057   0.221   3.189 -0.6917 -0.2905 -0.1499
17694TIP3    H174573   4.971   0.198   3.225 -0.2882  0.1908  1.2076
17694TIP3    H274574   5.109   0.141   3.197 -0.4953 -0.0882  0.7410
17695TIP3   OH274575   1.607   5.519   6.130  0.0890 -0.2700  0.1597
17695TIP3    H174576   1.697   5.532   6.160 -0.3983  0.0463  1.6063
17695TIP3    H274577   1.568   5.461   6.196 -0.6210 -0.8217 -0.7328
17696TIP3   OH274578   5.675   2.472   4.187 -0.4303  0.1668 -0.0725
17696TIP3    H174579   5.659   2.378   4.179  0.0701  0.0661  0.0927
17696TIP3    H274580   5.611   2.501   4.253  1.5040 -0.6450  2.3066
17697TIP3   OH274581   2.024   4.805   1.344 -0.5039  0.5060  0.1208
17697TIP3    H174582   2.021   4.821   1.439  0.3186  1.4532  0.0125
17697TIP3    H274583   1.946   4.753   1.326  1.0250 -2.7059  1.8448
17698TIP3   OH274584   5.610   0.303  11.517 -0.3743 -0.0119 -0.3750
17698TIP3    H174585   5.660   0.261  11.448  0.5689 -2.0264  1.4023
17698TIP3    H274586   5.662   0.380  11.541 -0.3934  0.3497 -1.4315
17699TIP3   OH274587   6.328   2.008   2.670  0.0735  0.5115 -0.1766
17699TIP3    H174588   6.368   1.934   2.624 -0.7067  0.3254 -0.5610
17699TIP3    H274589   6.302   2.069   2.600 -0.3221  0.6263  0.0678
17700TIP3   OH274590   2.832   1.905  11.137  0.1812 -0.3287  0.0048
17700TIP3    H174591   2.802   1.821  11.103 -1.2601  0.6590 -1.3164
17700TIP3    H274592   2.762   1.931  11.198  0.1833  0.2920 -0.2528
17701TIP3   OH274593   2.714   1.958   1.523 -0.2878  0.2989  0.2605
17701TIP3    H174594   2.707   1.996   1.610  0.0297 -0.9894  0.8720
17701TIP3    H274595   2.645   1.891   1.521 -1.9734  1.9417 -1.3891
17702TIP3   OH274596   5.978   3.460  14.107  0.0810 -0.6995 -1.0818
17702TIP3    H174597   5.913   3.516  14.150  0.9161 -1.8217  1.9711
17702TIP3    H274598   5.944   3.371  14.120  1.7146 -1.2346 -0.2381
17703TIP3   OH274599   5.399   1.228   0.832  0.2867  0.4079 -0.2659
17703TIP3    H174600   5.473   1.221   0.771 -0.0923 -0.3717 -0.6484
17703TIP3    H274601   5.335   1.165   0.799 -0.6739  1.2895 -0.1062
17704TIP3   OH274602   1.088   1.047   3.150 -0.0436  0.3962 -0.5014
17704TIP3    H174603   1.042   1.130   3.149  1.0020  0.9977 -0.8214
17704TIP3    H274604   1.164   1.061   3.206  1.1454  0.2589 -1.9905
17705TIP3   OH274605   2.069   3.206   5.923  0.3776  0.0923 -0.4705
17705TIP3    H174606   2.098   3.140   5.860 -0.9677 -0.4376 -0.5701
17705TIP3    H274607   2.106   3.178   6.006 -1.6002 -1.8740 -0.1431
17706TIP3   OH274608   3.110   3.725  10.739  0.1589 -0.0435  0.3694
17706TIP3    H174609   3.104   3.698  10.648 -1.3023 -1.0681  0.7263
17706TIP3    H274610   3.052   3.664  10.786 -1.0933  1.9747  1.6151
17707TIP3   OH274611   5.125   4.386   6.192 -0.1234  0.1073 -1.4161
17707TIP3    H174612   5.142   4.315   6.130  2.1941  0.2351 -1.0053
17707TIP3    H274613   5.208   4.397   6.239 -1.5177  0.6201  1.1008
17708TIP3   OH274614   2.838   0.594   1.197  0.6576 -0.3916  0.4716
17708TIP3    H174615   2.805   0.547   1.273  1.1413 -3.0454 -0.8426
17708TIP3    H274616   2.835   0.530   1.126  2.7107  1.1370 -1.1292
17709TIP3   OH274617   0.259   1.691  12.123 -0.3755  0.3107  0.8258
17709TIP3    H174618   0.206   1.675  12.201 -2.0989  0.5322 -0.2539
17709TIP3    H274619   0.286   1.782  12.130 -1.3977  0.6368  0.6831
17710TIP3   OH274620   2.208   4.036   0.433  0.1728 -0.0009 -0.4448
17710TIP3    H174621   2.176   4.126   0.431 -2.4411 -0.8433 -1.6759
17710TIP3    H274622   2.161   3.996   0.507  3.1072  0.1407  1.6518
17711TIP3   OH274623   5.950   5.280   0.726  0.0001  0.6263  0.5536
17711TIP3    H174624   5.861   5.279   0.690 -0.3106  3.1842  1.0601
17711TIP3    H274625   5.995   5.347   0.675  1.5711 -0.3583  0.5741
17712TIP3   OH274626   4.079   0.714  16.807  0.3242 -0.0274 -0.1827
17712TIP3    H174627   4.167   0.699  16.772  0.6859  0.5841  0.4394
17712TIP3    H274628   4.022   0.717  16.730  0.5318 -2.3457 -0.4857
17713TIP3   OH274629   6.612   5.756  13.843 -0.1166  0.2518  0.1376
17713TIP3    H174630   6.686   5.804  13.805  0.1566 -0.8402 -0.7504
17713TIP3    H274631   6.565   5.721  13.767 -0.8482 -0.0967  0.7415
17714TIP3   OH274632   4.564   2.644   6.187 -0.0303 -0.2385  0.0416
17714TIP3    H174633   4.640   2.683   6.143  0.0866  0.9018  1.1981
17714TIP3    H274634   4.508   2.613   6.116  1.9647 -2.0486 -0.8312
17715TIP3   OH274635   1.545   5.275   2.696  0.0343  0.3598 -0.0316
17715TIP3    H174636   1.508   5.261   2.783 -0.3701  1.7246  0.0345
17715TIP3    H274637   1.483   5.234   2.636  0.2592 -0.4855  0.3043
17716TIP3   OH274638   0.377   1.277  13.240 -0.1766 -0.0103 -0.5595
17716TIP3    H174639   0.431   1.207  13.202 -1.3791 -1.7629  0.8060
17716TIP3    H274640   0.398   1.276  13.333 -2.0625 -0.3182 -0.0926
17717TIP3   OH274641   0.621   5.254   5.168 -0.2892 -0.0316 -0.0770
17717TIP3    H174642   0.563   5.282   5.097  0.2286  1.0424 -0.0886
17717TIP3    H274643   0.589   5.301   5.245  1.5587  1.9012 -0.4118
17718TIP3   OH274644   3.585   0.812   1.957 -0.4168 -0.2730  0.3591
17718TIP3    H174645   3.654   0.824   2.023  0.3136 -0.6089 -0.3357
17718TIP3    H274646   3.627   0.832   1.874 -1.5270  0.8431  0.0428
17719TIP3   OH274647   0.982   4.569   4.329 -0.5224  0.5015  0.2336
17719TIP3    H174648   0.998   4.492   4.274 -1.3436  1.4340 -1.4080
17719TIP3    H274649   0.957   4.638   4.267 -0.2704  1.9767  1.6889
17720TIP3   OH274650   5.365   5.550   1.413 -0.0412 -0.0688 -0.4803
17720TIP3    H174651   5.339   5.607   1.341  1.4440  0.1961 -0.8411
17720TIP3    H274652   5.441   5.501   1.380  1.7090  1.1961  1.3456
17721TIP3   OH274653   3.563   2.420   1.173 -0.6777 -0.0418 -0.5042
17721TIP3    H174654   3.628   2.439   1.241  0.9417  0.4458 -2.1157
17721TIP3    H274655   3.555   2.325   1.174 -0.4803 -0.0598  0.1920
17722TIP3   OH274656   5.495   2.835   0.185 -0.2909 -0.5443  0.6575
17722TIP3    H174657   5.475   2.899   0.253 -1.0272 -0.4447  0.3604
17722TIP3    H274658   5.409   2.807   0.153  0.0425 -0.7767 -0.0545
17723TIP3   OH274659   0.286   2.295   5.350  0.3273  0.3494  0.8521
17723TIP3    H174660   0.352   2.363   5.339 -0.4971  1.0743  0.2303
17723TIP3    H274661   0.212   2.324   5.296 -0.1583 -0.8900  0.8163
17724TIP3   OH274662   3.759   6.804  15.394 -0.1363 -0.1653  0.1736
17724TIP3    H174663   3.706   6.821  15.472 -2.3827 -0.8147 -1.1305
17724TIP3    H274664   3.758   6.886  15.345  0.4929 -0.0352  0.3684
17725TIP3   OH274665   0.073   3.815  10.944  0.0962  0.1886  0.0662
17725TIP3    H174666   0.003   3.876  10.969 -0.1920 -0.4856  0.9636
17725TIP3    H274667   0.070   3.812  10.849 -1.2819 -0.0277  0.0976
17726TIP3   OH274668   2.079   3.031  11.680  0.1908  0.1457  0.1737
17726TIP3    H174669   2.070   2.944  11.718  1.6204 -0.2069 -0.2340
17726TIP3    H274670   1.994   3.048  11.640 -0.0090 -1.2174 -0.0477
17727TIP3   OH274671   5.367   0.083   0.236 -0.2690 -0.1078  0.0241
17727TIP3    H174672   5.438   0.143   0.213 -0.9908  0.4136 -0.9716
17727TIP3    H274673   5.351   0.034   0.156 -3.3272  2.2266 -1.0221
17728TIP3   OH274674   3.126   4.507   0.518  0.0172  0.0570 -0.1496
17728TIP3    H174675   3.146   4.450   0.444  1.7350 -0.5829  0.7577
17728TIP3    H274676   3.204   4.503   0.574 -0.2970  2.3572  0.5540
17729TIP3   OH274677   5.303   2.034  16.151  0.1448 -0.1698  0.7649
17729TIP3    H174678   5.398   2.048  16.147  0.4949 -2.0699  1.0972
17729TIP3    H274679   5.265   2.118  16.128  1.9147  0.6546  0.6692
17730TIP3   OH274680   1.875   0.254   3.647  0.1475 -0.0805 -0.2241
17730TIP3    H174681   1.860   0.259   3.742 -0.6215  1.7098 -0.3957
17730TIP3    H274682   1.851   0.165   3.624  0.4049 -0.5656  1.2834
17731TIP3   OH274683   4.639   0.914   5.100  0.0087 -0.2414 -0.3117
17731TIP3    H174684   4.665   0.924   5.009  0.5949 -1.2786 -0.2674
17731TIP3    H274685   4.680   0.833   5.129  0.6686  0.5780  1.1838
17732TIP3   OH274686   5.069   3.668   5.298  0.1073 -0.0033 -0.4482
17732TIP3    H174687   5.100   3.738   5.356  0.7996 -2.2975  2.2013
17732TIP3    H274688   5.115   3.682   5.216  1.0841  1.9975  0.3749
17733TIP3   OH274689   0.217   0.059   4.774 -0.0017 -0.2217 -0.6168
17733TIP3    H174690   0.150   0.114   4.734 -0.8449 -0.6300  0.1822
17733TIP3    H274691   0.277   0.037   4.702 -1.3203 -0.7306 -1.5887
17734TIP3   OH274692   0.294   6.109  15.521  0.2281 -0.0798 -0.2932
17734TIP3    H174693   0.269   6.148  15.438  1.6055 -0.2029 -0.7938
17734TIP3    H274694   0.220   6.126  15.579 -1.1319 -0.7433 -1.7632
17735TIP3   OH274695   5.935   3.654  13.559 -0.1086  0.1224  0.2439
17735TIP3    H174696   6.003   3.607  13.609 -0.0099  0.2805  0.2578
17735TIP3    H274697   5.946   3.746  13.585 -1.5244 -0.0677  1.6781
17736TIP3   OH274698   1.351   0.601  12.511  0.0434  0.1690 -0.4773
17736TIP3    H174699   1.430   0.548  12.518 -0.3939 -0.6785 -1.5793
17736TIP3    H274700   1.303   0.562  12.437 -0.6810  1.5957 -0.7876
17737TIP3   OH274701   3.128   1.533  14.911  0.5850 -0.1409 -0.7763
17737TIP3    H174702   3.085   1.508  14.993  0.6481 -0.6505 -0.8985
17737TIP3    H274703   3.071   1.600  14.874  0.6219  0.1918 -0.2526
17738TIP3   OH274704   4.523   5.530  13.772  0.5171 -0.2360  0.1870
17738TIP3    H174705   4.541   5.436  13.764  1.3545 -0.0388 -0.3618
17738TIP3    H274706   4.545   5.551  13.863  1.3671 -0.3675  0.0210
17739TIP3   OH274707   6.505   3.419   4.106  0.1324  0.3279  0.0506
17739TIP3    H174708   6.472   3.458   4.187 -1.4435  1.1149 -0.9226
17739TIP3    H274709   6.584   3.468   4.086  0.6108  0.0354  1.1703
17740TIP3   OH274710   1.902   2.898   1.471 -0.3853 -0.0855  0.3306
17740TIP3    H174711   1.809   2.907   1.448 -0.5872  0.3453  1.2766
17740TIP3    H274712   1.948   2.952   1.406 -0.7864 -0.3122 -0.1540
17741TIP3   OH274713   0.327   5.700  15.495 -0.3497  0.3892  0.4245
17741TIP3    H174714   0.330   5.633  15.563 -0.9697 -0.0944 -0.0176
17741TIP3    H274715   0.406   5.684  15.444 -1.6956 -1.6563 -1.1923
17742TIP3   OH274716   2.035   4.264   0.821 -0.1009  0.7977 -0.2240
17742TIP3    H174717   2.080   4.184   0.794 -0.7351  1.4663 -3.8608
17742TIP3    H274718   2.100   4.333   0.809 -0.6883  1.2388 -0.9421
17743TIP3   OH274719   2.409   0.725   2.836  0.2470 -0.5131  0.3307
17743TIP3    H174720   2.343   0.783   2.875  0.6485  0.1277  0.0686
17743TIP3    H274721   2.471   0.784   2.794  0.4857 -1.1497 -0.2269
17744TIP3   OH274722   4.155   3.818  14.098 -0.4924 -0.1022  0.3264
17744TIP3    H174723   4.106   3.736  14.109  1.8423 -1.6190  0.1462
17744TIP3    H274724   4.101   3.884  14.141 -2.2137 -1.8151  0.9533
17745TIP3   OH274725   3.075   5.768   5.172  0.1143  0.5817 -0.1269
17745TIP3    H174726   3.056   5.851   5.217  0.9902  1.0081 -0.5227
17745TIP3    H274727   3.017   5.768   5.096 -1.0659  0.0574  0.7441
17746TIP3   OH274728   1.954   3.572  11.919 -0.2402 -0.9767 -0.1009
17746TIP3    H174729   1.919   3.610  12.000 -0.3431 -1.6922  0.1984
17746TIP3    H274730   1.878   3.559  11.863 -0.1860 -0.6107 -0.2638
17747TIP3   OH274731   6.167   4.003   0.014 -0.0692  0.2074  0.4697
17747TIP3    H174732   6.135   4.017   0.103 -0.4927 -0.4989  0.4340
17747TIP3    H274733   6.251   3.959   0.025  0.3673  1.0293  0.5356
17748TIP3   OH274734   5.332   0.174  17.204 -0.1926  0.3615  0.5872
17748TIP3    H174735   5.404   0.234  17.221  0.2802 -0.1783  0.5119
17748TIP3    H274736   5.364   0.117  17.134 -1.3210  1.1910 -0.6466
17749TIP3   OH274737   2.339   5.705   0.255 -0.1566 -0.1965  0.6276
17749TIP3    H174738   2.431   5.729   0.263 -0.3412  0.0706  2.3296
17749TIP3    H274739   2.331   5.621   0.299 -0.8167  0.0327  0.9662
17750TIP3   OH274740   3.931   0.521   2.617  0.3701 -0.4170  0.3830
17750TIP3    H174741   3.908   0.436   2.580 -1.1511 -0.0054  0.3206
17750TIP3    H274742   4.027   0.525   2.611  0.4050 -1.8041 -0.2884
17751TIP3   OH274743   4.312   6.322  14.580 -0.5714  0.2733  0.4866
17751TIP3    H174744   4.226   6.280  14.571 -1.8713  2.4295  1.9308
17751TIP3    H274745   4.343   6.333  14.490 -1.0240 -1.9768  0.0028
17752TIP3   OH274746   0.109   4.741   4.601 -0.5617  1.0674  0.2022
17752TIP3    H174747   0.124   4.813   4.663  0.5003  0.7948  0.2808
17752TIP3    H274748   0.195   4.700   4.592 -1.5821 -1.7416  2.0645
17753TIP3   OH274749   0.039   4.961  16.348 -0.4312  0.1983  0.4829
17753TIP3    H174750  -0.025   4.906  16.303  2.1064 -0.4186 -2.8191
17753TIP3    H274751   0.099   4.900  16.390  0.4939  0.5116 -0.3304
17754TIP3   OH274752   0.705   1.493   4.688 -0.5507 -0.3213 -0.6695
17754TIP3    H174753   0.756   1.574   4.689  0.1840 -0.7796 -0.5143
17754TIP3    H274754   0.640   1.507   4.619 -1.2616  0.8930  0.2049
17755TIP3   OH274755   2.760   4.015   0.693 -0.3649 -0.0583  0.0716
17755TIP3    H174756   2.681   3.975   0.656 -0.9623  0.7850  0.4177
17755TIP3    H274757   2.792   3.951   0.756 -0.4513 -0.6528 -0.4797
17756TIP3   OH274758   5.345   5.965   4.140 -0.3753 -0.0662  0.3281
17756TIP3    H174759   5.273   5.932   4.193 -2.4803  1.6883 -1.2454
17756TIP3    H274760   5.339   6.060   4.146  3.8041  0.2876  2.5605
17757TIP3   OH274761   3.725   6.320  13.764  0.3856 -0.3997  0.9799
17757TIP3    H174762   3.766   6.241  13.727  1.7811  0.4680  0.5939
17757TIP3    H274763   3.640   6.325  13.720  0.1406 -1.8517  1.2470
17758TIP3   OH274764   0.338   3.171   2.914 -0.2913  0.2691 -0.1916
17758TIP3    H174765   0.326   3.198   2.823 -1.7847 -1.5851 -0.6240
17758TIP3    H274766   0.253   3.186   2.955 -0.1772 -0.6151  0.3980
17759TIP3   OH274767   5.134   3.829   3.486 -0.4611 -0.1723 -0.1184
17759TIP3    H174768   5.176   3.827   3.399 -2.1780  1.7450 -1.0700
17759TIP3    H274769   5.175   3.756   3.533  1.0830 -0.8193 -2.2630
17760TIP3   OH274770   3.160   2.921   3.156 -0.2178 -0.3860  0.4437
17760TIP3    H174771   3.215   2.902   3.080  0.5993 -0.9686  1.1555
17760TIP3    H274772   3.203   2.996   3.198 -0.9579  0.2698  0.0644
17761TIP3   OH274773   3.457   3.005  14.478  0.4758 -0.2423 -0.1833
17761TIP3    H174774   3.377   3.054  14.496  0.2949  0.1868 -2.0338
17761TIP3    H274775   3.440   2.918  14.514 -1.0735 -0.3490 -1.1043
17762TIP3   OH274776   5.516   2.002   1.034 -0.0000  0.1612  0.4688
17762TIP3    H174777   5.471   2.019   1.117 -1.5628 -1.2983 -0.0298
17762TIP3    H274778   5.518   2.087   0.990  1.5045  1.1324  2.2414
17763TIP3   OH274779   2.102   4.280   2.793  0.3136  0.5347  0.1591
17763TIP3    H174780   2.147   4.200   2.765 -0.4683  0.4153 -0.8255
17763TIP3    H274781   2.172   4.344   2.806  0.8106  0.2127 -0.8514
17764TIP3   OH274782   6.272   5.674   0.635 -0.3689 -0.4617 -0.1037
17764TIP3    H174783   6.242   5.598   0.586  0.3382 -0.6023 -0.3327
17764TIP3    H274784   6.332   5.719   0.576 -0.1508 -0.1779  0.3260
17765TIP3   OH274785   0.991   3.611   3.266 -0.0157  0.7044  0.4248
17765TIP3    H174786   1.060   3.665   3.227  0.1728  1.0092  1.1681
17765TIP3    H274787   0.930   3.594   3.194  0.6635  0.7057 -0.1566
17766TIP3   OH274788   4.289   2.347   3.488 -0.0474 -0.1863  0.0239
17766TIP3    H174789   4.280   2.252   3.483  0.9157 -0.3547  0.9571
17766TIP3    H274790   4.299   2.365   3.582  0.5262  0.7481 -0.1968
17767TIP3   OH274791   6.283   6.780  13.227 -0.6049 -0.5444 -0.2196
17767TIP3    H174792   6.234   6.711  13.183 -0.5985 -1.3754  1.0157
17767TIP3    H274793   6.349   6.733  13.278 -1.4824  0.2450  1.7536
17768TIP3   OH274794   4.572   0.191  13.629 -0.4814 -0.4925  0.1804
17768TIP3    H174795   4.482   0.161  13.617 -0.6990 -0.5256  1.7242
17768TIP3    H274796   4.571   0.235  13.714  0.9481 -0.4191  0.1752
17769TIP3   OH274797   0.754   2.649   6.324  0.0447 -1.0390 -0.6898
17769TIP3    H174798   0.753   2.554   6.309 -0.2571 -1.2972  0.7648
17769TIP3    H274799   0.700   2.684   6.253 -0.6629 -2.0566 -0.6857
17770TIP3   OH274800   2.130   2.411  14.400 -0.3381  0.6747 -0.0613
17770TIP3    H174801   2.110   2.349  14.470 -0.0010  0.6459  0.0110
17770TIP3    H274802   2.219   2.390  14.373  0.9743  2.9746  1.9931
17771TIP3   OH274803   5.946   5.682  12.135  0.0021 -0.0147 -0.0251
17771TIP3    H174804   6.002   5.692  12.212 -0.8574  1.4206  0.4617
17771TIP3    H274805   5.947   5.768  12.094  0.2750 -0.7072 -1.5301
17772TIP3   OH274806   3.177   3.017  15.142  0.3843  0.1931  0.5649
17772TIP3    H174807   3.174   2.926  15.112  1.5735  0.5724 -0.8031
17772TIP3    H274808   3.219   3.012  15.228 -2.4046 -0.8237  2.0265
17773TIP3   OH274809   3.215   0.817  16.582  1.0446  0.3483 -0.5353
17773TIP3    H174810   3.255   0.890  16.536 -0.4325  1.7834  0.3281
17773TIP3    H274811   3.122   0.824  16.562  1.0614 -2.8676 -2.4784
17774TIP3   OH274812   3.815   1.893  14.826  0.1412  0.0574  0.5223
17774TIP3    H174813   3.747   1.939  14.875 -1.2924  0.0485 -1.3205
17774TIP3    H274814   3.883   1.874  14.890 -1.6830 -0.1237  2.5050
17775TIP3   OH274815   0.694   6.028   4.422 -0.6921 -0.6490 -0.1285
17775TIP3    H174816   0.697   5.945   4.469 -1.6768 -0.2697  0.6557
17775TIP3    H274817   0.601   6.053   4.425 -0.6250 -0.1666 -1.5106
17776TIP3   OH274818   5.564   2.775   2.858 -0.2344  0.3244 -0.1269
17776TIP3    H174819   5.636   2.831   2.829  0.6307 -0.8169 -0.2248
17776TIP3    H274820   5.606   2.705   2.908 -1.2820 -0.3391 -0.1451
17777TIP3   OH274821   2.381   2.028   2.220 -0.7750 -0.1165  0.2656
17777TIP3    H174822   2.344   2.110   2.186 -0.1703 -0.0209 -0.1843
17777TIP3    H274823   2.442   2.056   2.288 -0.2804 -0.1649 -0.1532
17778TIP3   OH274824   2.645   4.686  15.873  0.3518 -0.2978  0.4465
17778TIP3    H174825   2.680   4.774  15.890  2.1409 -1.1948  1.6375
17778TIP3    H274826   2.631   4.684  15.778  2.9315  0.3781 -0.0202
17779TIP3   OH274827   1.085   6.411  14.193  0.0159  0.2507 -0.5629
17779TIP3    H174828   1.095   6.449  14.280  0.3467 -1.8358  0.3737
17779TIP3    H274829   0.994   6.428  14.169 -0.3836 -0.0995  0.6720
17780TIP3   OH274830   1.328   3.967  11.326 -0.9572 -0.3698 -0.0348
17780TIP3    H174831   1.367   4.007  11.403 -1.3858 -0.9564  0.4902
17780TIP3    H274832   1.402   3.954  11.266 -1.1524  4.0597 -1.5951
17781TIP3   OH274833   0.294   2.240  12.402  0.8334  0.1073 -0.1680
17781TIP3    H174834   0.267   2.286  12.481 -0.4730 -1.5395  0.4246
17781TIP3    H274835   0.220   2.182  12.381  1.7056 -0.5096 -1.7958
17782TIP3   OH274836   1.953   5.894   3.041  0.6531  0.1953 -0.0556
17782TIP3    H174837   2.008   5.845   2.980  0.7791  1.1598 -0.7317
17782TIP3    H274838   2.014   5.932   3.104  0.8057  1.4353 -0.9256
17783TIP3   OH274839   2.533   2.040   0.687  0.0772  0.4316  0.0570
17783TIP3    H174840   2.493   1.965   0.643  1.0903 -0.2252  0.2034
17783TIP3    H274841   2.465   2.107   0.688 -0.9000 -0.5334  0.0440
17784TIP3   OH274842   1.415   3.969   3.869  0.5439 -0.6398  0.9030
17784TIP3    H174843   1.477   4.028   3.912 -2.6359  1.0428  3.5777
17784TIP3    H274844   1.426   3.885   3.913  1.8186 -0.7865  0.3527
17785TIP3   OH274845   4.760   0.085  16.383 -0.0492  0.1569  0.4073
17785TIP3    H174846   4.766   0.065  16.290 -0.6771  0.6099  0.2644
17785TIP3    H274847   4.783   0.003  16.427 -1.9397 -0.7070 -0.1482
17786TIP3   OH274848   5.514   2.839   6.176 -0.0772 -0.2329 -0.2493
17786TIP3    H174849   5.600   2.826   6.217  0.7029 -1.2855 -2.0806
17786TIP3    H274850   5.452   2.833   6.248  1.1865 -2.4378  0.7633
17787TIP3   OH274851   3.948   2.178  11.976  0.5880 -0.2588 -0.0939
17787TIP3    H174852   3.985   2.266  11.977 -1.0077  0.4960 -1.5382
17787TIP3    H274853   3.899   2.171  12.058  0.0526  0.5297 -0.3357
17788TIP3   OH274854   4.983   0.464   3.539  0.3544 -0.0633 -0.3722
17788TIP3    H174855   5.027   0.549   3.543 -1.2206  0.7686  0.2867
17788TIP3    H274856   5.028   0.410   3.604  1.7324  0.0703 -1.1913
17789TIP3   OH274857   0.178   2.764   2.286  0.0902  0.3420 -0.1143
17789TIP3    H174858   0.177   2.691   2.348 -1.7854  1.1201  0.8662
17789TIP3    H274859   0.142   2.727   2.205  0.9835 -0.2694 -0.2491
17790TIP3   OH274860   2.451   6.052  15.300 -0.6634 -0.2437  0.4589
17790TIP3    H174861   2.435   6.059  15.394 -1.6858 -1.6011  0.4153
17790TIP3    H274862   2.404   6.126  15.262 -0.9216 -0.1543  0.9429
17791TIP3   OH274863   1.643   2.140   5.868 -0.0931 -0.9446 -0.9649
17791TIP3    H174864   1.643   2.050   5.900  0.2920 -1.0375 -1.2263
17791TIP3    H274865   1.557   2.150   5.827 -0.1540 -1.1787 -0.8987
17792TIP3   OH274866   0.978   1.789  12.795 -0.3672  0.0813 -0.5371
17792TIP3    H174867   0.904   1.793  12.857 -1.1610  0.4193 -1.4815
17792TIP3    H274868   0.936   1.784  12.709  0.7094  1.2714 -1.1569
17793TIP3   OH274869   1.865   2.202   4.464 -1.0003 -0.1115 -0.7606
17793TIP3    H174870   1.946   2.252   4.456 -0.6492 -0.5301 -0.0088
17793TIP3    H274871   1.812   2.229   4.389 -1.8500  3.2181  0.8650
17794TIP3   OH274872   5.500   1.440   1.509  0.1596 -0.4807 -0.0600
17794TIP3    H174873   5.465   1.498   1.442 -1.0686 -1.1865 -0.0631
17794TIP3    H274874   5.542   1.370   1.460 -1.1114 -1.2219 -0.1316
17795TIP3   OH274875   3.868   5.515   2.764  0.4240 -0.0901  0.8370
17795TIP3    H174876   3.845   5.600   2.802 -0.0893  0.5683 -0.8572
17795TIP3    H274877   3.809   5.453   2.806  0.0062  0.5742  1.2397
17796TIP3   OH274878   3.296   1.851  13.272  0.6429  0.1272 -0.1551
17796TIP3    H174879   3.355   1.829  13.345 -0.6440 -0.1210  0.8440
17796TIP3    H274880   3.273   1.943  13.288 -0.5244 -0.2480  0.4124
17797TIP3   OH274881   5.194   2.189  10.778 -0.3002 -0.1020  0.3141
17797TIP3    H174882   5.288   2.204  10.788 -0.4507  1.8204 -0.6650
17797TIP3    H274883   5.171   2.133  10.852  1.5923 -0.5402  0.6198
17798TIP3   OH274884   5.544   4.854   5.914  0.0580  0.1263  0.4261
17798TIP3    H174885   5.528   4.777   5.860 -1.4164  0.4545  0.3540
17798TIP3    H274886   5.489   4.841   5.992 -0.7791  1.4093  0.0904
17799TIP3   OH274887   4.783   0.112   2.226  0.1846 -0.5104 -0.3719
17799TIP3    H174888   4.779   0.180   2.159  2.0936 -1.2554 -1.3310
17799TIP3    H274889   4.785   0.159   2.309 -1.4522  0.4605 -0.8455
17800TIP3   OH274890   1.763   5.009  13.011 -0.3264 -0.0437  0.4987
17800TIP3    H174891   1.697   5.012  13.080 -0.6829 -0.3527  0.1778
17800TIP3    H274892   1.767   4.917  12.985 -0.5083  0.1377 -0.1879
17801TIP3   OH274893   1.354   0.179  10.737 -0.2052 -0.6525 -0.0756
17801TIP3    H174894   1.368   0.251  10.799  1.7876 -0.6790 -0.4227
17801TIP3    H274895   1.442   0.144  10.721 -0.9665 -2.2351 -1.0376
17802TIP3   OH274896   1.415   3.575  11.053 -0.1266  0.2626 -0.0026
17802TIP3    H174897   1.503   3.562  11.088  0.0265  0.5818 -0.2619
17802TIP3    H274898   1.427   3.636  10.981 -0.5576  0.2814 -0.0597
17803TIP3   OH274899   6.796   3.522   1.041 -0.2404 -0.9016  0.0228
17803TIP3    H174900   6.877   3.494   1.084 -1.6123 -0.0531  3.4510
17803TIP3    H274901   6.774   3.604   1.083 -1.7866  0.0458 -2.4312
17804TIP3   OH274902   1.730   2.691  14.396 -0.0506 -0.0777  0.4001
17804TIP3    H174903   1.684   2.757  14.448 -0.5752 -1.0246  1.1615
17804TIP3    H274904   1.692   2.698  14.308  0.2772  0.9829  0.3320
17805TIP3   OH274905   6.281   2.216  14.459  0.3182  0.6486 -0.1294
17805TIP3    H174906   6.222   2.236  14.532  0.3225 -1.4934  0.5435
17805TIP3    H274907   6.360   2.266  14.478  0.5333 -0.2897  1.6954
17806TIP3   OH274908   3.483   5.100  15.334 -0.3092  0.4054 -0.0636
17806TIP3    H174909   3.467   5.087  15.240 -0.8048 -0.1620  0.0886
17806TIP3    H274910   3.537   5.025  15.359 -3.0352 -1.4206  0.7883
17807TIP3   OH274911   4.340   5.991   3.108  0.5055 -0.1800 -0.0250
17807TIP3    H174912   4.296   5.966   3.026  1.1435  0.1711 -0.4835
17807TIP3    H274913   4.392   5.914   3.132  0.1314 -0.3700  0.1827
17808TIP3   OH274914   2.922   3.559   1.026  0.0251  0.1000  0.5585
17808TIP3    H174915   2.869   3.624   1.072 -0.6063 -0.7435  1.0535
17808TIP3    H274916   2.964   3.508   1.096 -0.7874 -1.0675  0.2314
17809TIP3   OH274917   5.487   4.070   0.393 -0.4271  0.0756 -0.6055
17809TIP3    H174918   5.490   4.090   0.299 -0.0736 -0.9595 -0.8279
17809TIP3    H274919   5.549   3.998   0.404 -0.2481  0.3816  0.4809
17810TIP3   OH274920   5.535   0.180  15.266 -0.1329 -0.3683 -0.0223
17810TIP3    H174921   5.562   0.269  15.243  0.1235  0.0251  1.6710
17810TIP3    H274922   5.447   0.190  15.303  0.3808 -0.6230  1.3260
17811TIP3   OH274923   1.879   4.131   1.019 -0.0711 -0.0250 -0.1198
17811TIP3    H174924   1.843   4.187   1.088  2.3441  1.0652  0.3640
17811TIP3    H274925   1.943   4.187   0.974  0.7378 -1.7003 -1.1497
17812TIP3   OH274926   6.499   2.511  13.202 -0.0138 -0.0745 -0.5394
17812TIP3    H174927   6.559   2.448  13.242 -0.8877 -0.9368 -0.5554
17812TIP3    H274928   6.432   2.457  13.160 -0.4578  0.8599 -1.0639
17813TIP3   OH274929   1.731   2.283   4.223 -0.0069  0.3127  0.6539
17813TIP3    H174930   1.649   2.263   4.179 -0.2118  0.4029  0.9909
17813TIP3    H274931   1.721   2.374   4.251  0.3227  0.4160  0.4440
17814TIP3   OH274932   2.903   6.469   1.930  0.2044  0.1772  0.3257
17814TIP3    H174933   2.811   6.470   1.905 -0.2166  2.6004  1.7167
17814TIP3    H274934   2.904   6.429   2.017  0.3660  0.7820  0.6073
17815TIP3   OH274935   0.440   5.406   0.099 -0.2649  0.1435  0.0286
17815TIP3    H174936   0.391   5.331   0.067 -1.5204  0.7613  0.4481
17815TIP3    H274937   0.413   5.479   0.044  0.7977  0.3541 -0.2493
17816TIP3   OH274938   3.036   0.400   4.741 -0.3802  0.3089  0.1031
17816TIP3    H174939   2.977   0.418   4.813 -1.2108  0.9859 -0.7207
17816TIP3    H274940   3.089   0.479   4.733  1.4498 -0.6877  1.5357
17817TIP3   OH274941   3.731   0.886   2.851 -0.1986 -0.4128  0.6513
17817TIP3    H174942   3.816   0.909   2.813 -1.4061  1.2568 -1.2590
17817TIP3    H274943   3.707   0.804   2.809  0.0747 -0.4158  0.5010
17818TIP3   OH274944   2.606   2.647   1.773  0.0384  0.2634  0.4316
17818TIP3    H174945   2.663   2.695   1.712  1.7753 -1.2147  0.8141
17818TIP3    H274946   2.581   2.712   1.839 -0.4812  1.4584 -0.8928
17819TIP3   OH274947   2.003   0.755   5.648  0.1846  0.5478 -0.0962
17819TIP3    H174948   2.052   0.687   5.693 -0.1017  1.3094  1.4378
17819TIP3    H274949   2.004   0.729   5.556  0.3418 -1.3535  0.4029
17820TIP3   OH274950   5.079   0.886   3.152  0.0881  0.1147  0.1045
17820TIP3    H174951   5.152   0.939   3.186  0.1318  0.1933 -0.1133
17820TIP3    H274952   5.121   0.817   3.101  0.0872 -0.7894  1.2907
17821TIP3   OH274953   0.272   2.620  10.502 -0.1694 -0.3561  0.4278
17821TIP3    H174954   0.178   2.620  10.483  0.1814 -1.5952 -1.6362
17821TIP3    H274955   0.291   2.711  10.525 -1.7173  0.1132 -0.0129
17822TIP3   OH274956   1.803   4.341   2.118 -0.0663 -0.5350 -0.0010
17822TIP3    H174957   1.871   4.289   2.162 -0.7990  0.1773  2.0595
17822TIP3    H274958   1.726   4.284   2.116 -0.3722 -0.1595  0.7221
17823TIP3   OH274959   1.218   6.402   4.712  0.7162  0.6802 -0.3794
17823TIP3    H174960   1.248   6.312   4.701  1.8367  1.0993 -0.9790
17823TIP3    H274961   1.255   6.449   4.636 -2.5531  1.0026 -1.9639
17824TIP3   OH274962   5.622   4.410  12.013 -0.3904 -0.1230 -0.1986
17824TIP3    H174963   5.702   4.389  11.964 -0.7957  0.5709 -1.1772
17824TIP3    H274964   5.589   4.324  12.041 -0.0951 -0.5321 -1.0572
17825TIP3   OH274965   0.097   3.375   2.759  0.9107  0.1998  0.1896
17825TIP3    H174966   0.029   3.436   2.730  0.7000 -0.6043 -1.0375
17825TIP3    H274967   0.055   3.322   2.826 -0.1676 -1.2766 -1.5871
17826TIP3   OH274968   1.430   3.889   5.014 -0.4072  0.1638  0.4717
17826TIP3    H174969   1.430   3.793   5.015  0.5959  0.1491  0.5349
17826TIP3    H274970   1.459   3.912   4.925  1.4362  0.3601  1.0773
17827TIP3   OH274971   2.377   2.014   1.876 -0.0209 -0.3727 -0.0779
17827TIP3    H174972   2.441   1.978   1.814 -1.4875 -2.9727 -0.2288
17827TIP3    H274973   2.430   2.047   1.948  1.6816  1.6056 -2.0898
17828TIP3   OH274974   5.649   2.986  11.137  0.2555 -0.6422  0.0452
17828TIP3    H174975   5.619   2.967  11.048 -1.3591 -0.6920  0.5611
17828TIP3    H274976   5.702   3.065  11.129  0.6652 -1.0118 -1.0451
17829TIP3   OH274977   2.331   4.891   2.569 -0.5365 -0.1048  0.5439
17829TIP3    H174978   2.251   4.890   2.622 -0.4143  0.9780  0.7676
17829TIP3    H274979   2.326   4.974   2.521  0.2467 -0.2328  0.2319
17830TIP3   OH274980   2.202   0.850  12.021 -0.1973  0.2769 -0.2529
17830TIP3    H174981   2.246   0.867  12.105  2.0087  0.6261 -1.4271
17830TIP3    H274982   2.114   0.821  12.047  0.7661 -0.7784  2.2359
17831TIP3   OH274983   1.633   1.595   3.825  0.8684  0.4458  0.0973
17831TIP3    H174984   1.557   1.568   3.774  0.4560  1.1756  0.3176
17831TIP3    H274985   1.607   1.678   3.866  1.4630  0.2558  0.8870
17832TIP3   OH274986   0.041   2.419  15.577  0.1237 -0.3368  0.0698
17832TIP3    H174987   0.053   2.365  15.655 -0.5858 -1.3994 -0.5368
17832TIP3    H274988   0.103   2.385  15.513 -0.7549 -0.8731 -0.5250
17833TIP3   OH274989   0.550   1.499  13.700 -0.0939  0.2037 -0.0618
17833TIP3    H174990   0.621   1.462  13.649  0.2830 -0.4348  0.8948
17833TIP3    H274991   0.503   1.556  13.639  0.9379  0.2489 -0.8292
17834TIP3   OH274992   0.600   1.310   1.059  0.2713 -0.0433 -0.7744
17834TIP3    H174993   0.516   1.287   1.099  0.8611  0.5207  0.8962
17834TIP3    H274994   0.577   1.352   0.976 -1.2593  2.1773  0.6470
17835TIP3   OH274995   5.688   5.780   1.221  0.0956 -0.4025 -0.5070
17835TIP3    H174996   5.651   5.797   1.307  0.1447 -0.2233 -0.5190
17835TIP3    H274997   5.715   5.689   1.223 -3.3670 -1.6119 -1.6192
17836TIP3   OH274998   2.336   1.101   3.353 -0.4413 -0.1067  0.1757
17836TIP3    H174999   2.363   1.065   3.437 -0.0064  1.6532  0.8452
17836TIP3    H275000   2.279   1.174   3.375  0.5358  1.0726 -0.9778
17837TIP3   OH275001   3.339   0.540  12.975  0.1097  0.0766 -0.0694
17837TIP3    H175002   3.382   0.594  12.909 -0.8801 -1.7169 -2.3243
17837TIP3    H275003   3.262   0.505  12.931 -0.4658 -1.4319  1.9754
17838TIP3   OH275004   3.552   0.104   1.278  0.4103 -0.0215 -0.3904
17838TIP3    H175005   3.611   0.053   1.334 -0.4462 -1.8009 -1.0242
17838TIP3    H275006   3.483   0.134   1.337  0.0848 -0.9715 -0.2694
17839TIP3   OH275007   3.046   1.181   1.525  0.6040 -0.6731 -0.0774
17839TIP3    H175008   3.055   1.150   1.435  1.3227 -3.4767  0.8615
17839TIP3    H275009   2.979   1.250   1.520  2.5563  1.2442 -3.1173
17840TIP3   OH275010   6.430   3.143   4.038 -0.2069 -0.2576  0.4624
17840TIP3    H175011   6.480   3.074   4.081  1.4257  0.3952 -0.3193
17840TIP3    H275012   6.462   3.225   4.077 -1.4517  0.1271  0.7225
17841TIP3   OH275013   3.250   2.057  16.800 -0.3402  0.2715  0.7894
17841TIP3    H175014   3.277   2.014  16.719 -0.7041  1.9490 -0.2850
17841TIP3    H275015   3.327   2.105  16.829 -0.6147  0.8173  0.6348
17842TIP3   OH275016   2.410   0.204  16.458  0.0462  0.3598 -0.2044
17842TIP3    H175017   2.470   0.214  16.531 -1.2156  2.9524  0.5889
17842TIP3    H275018   2.427   0.279  16.401 -1.2102  0.1893 -0.8549
17843TIP3   OH275019   5.134   4.001  15.340 -0.2912  0.6630 -0.0713
17843TIP3    H175020   5.215   4.053  15.336  0.5204 -0.6367 -1.6861
17843TIP3    H275021   5.104   4.011  15.430  1.9921  0.7326  0.7495
17844TIP3   OH275022   0.946   0.946  14.974  0.1759 -0.0289  0.1055
17844TIP3    H175023   0.950   0.991  14.889 -0.0243  0.8115  0.5307
17844TIP3    H275024   0.930   1.016  15.037 -1.1123 -0.8055  0.6874
17845TIP3   OH275025   0.894   3.753   4.187  0.4454  0.0026  0.3020
17845TIP3    H175026   0.880   3.675   4.240  2.5364  1.6557  3.6546
17845TIP3    H275027   0.983   3.742   4.151  0.6476  0.6919  0.5678
17846TIP3   OH275028   3.763   1.174  14.319 -0.1409  0.1124  0.4650
17846TIP3    H175029   3.802   1.159  14.233 -2.5316  2.7441 -1.2891
17846TIP3    H275030   3.837   1.195  14.376  1.3287  2.6472 -2.0917
17847TIP3   OH275031   6.672   0.773   0.742  0.1720 -0.0559  0.2688
17847TIP3    H175032   6.685   0.706   0.809  1.0049  0.4922  0.6711
17847TIP3    H275033   6.754   0.823   0.742  0.1951 -0.0679 -1.1830
17848TIP3   OH275034   1.031   4.246  13.813 -0.0341  0.6113 -0.0691
17848TIP3    H175035   0.992   4.174  13.862 -4.1966  1.0033 -2.3948
17848TIP3    H275036   1.045   4.315  13.878 -0.2638 -0.6863  1.4055
17849TIP3   OH275037   2.700   6.706   1.290 -0.3513 -0.4963 -0.3820
17849TIP3    H175038   2.766   6.735   1.353 -0.2719  0.8908 -1.0752
17849TIP3    H275039   2.639   6.654   1.341 -0.9641  1.5969  1.1187
17850TIP3   OH275040   1.186   4.084  15.596 -0.0195  0.1307  0.0833
17850TIP3    H175041   1.156   4.134  15.671 -1.0236  0.8469 -0.7589
17850TIP3    H275042   1.144   4.126  15.521 -0.2540 -1.4864 -0.7371
17851TIP3   OH275043   4.874   5.498  12.477  0.1105  0.8670  0.8930
17851TIP3    H175044   4.942   5.526  12.416  0.6944 -1.0953  0.5768
17851TIP3    H275045   4.793   5.535  12.441  0.8505  2.3824  0.7166
17852TIP3   OH275046   5.420   5.817  16.648  1.0540 -0.4057 -0.0627
17852TIP3    H175047   5.455   5.902  16.621 -0.5980  0.1673 -0.5603
17852TIP3    H275048   5.451   5.805  16.737  0.6289  1.1501  0.3311
17853TIP3   OH275049   3.555   2.207  16.284 -0.2846 -0.2701 -0.4465
17853TIP3    H175050   3.642   2.228  16.251  0.2991  0.5850  1.5435
17853TIP3    H275051   3.496   2.259  16.229  0.6366  1.0135 -0.2617
17854TIP3   OH275052   4.975   6.057  12.914 -0.1302 -0.5204  0.6629
17854TIP3    H175053   4.981   6.008  12.831 -0.4747 -0.0838  0.3792
17854TIP3    H275054   4.889   6.098  12.911  0.3101  0.4255  0.7206
17855TIP3   OH275055   5.630   4.407  14.145 -0.2286  0.3702 -0.1017
17855TIP3    H175056   5.594   4.325  14.113  2.5474 -1.0205  0.0377
17855TIP3    H275057   5.555   4.453  14.183 -1.5469 -3.2374  2.1934
17856TIP3   OH275058   2.305   5.433  13.657  0.2208 -0.4064 -0.3112
17856TIP3    H175059   2.282   5.496  13.726 -0.0941  1.2527 -1.8513
17856TIP3    H275060   2.250   5.458  13.583 -1.5682 -3.9401 -0.3490
17857TIP3   OH275061   1.570   4.382  15.235  0.4019  0.2134 -0.4397
17857TIP3    H175062   1.551   4.474  15.255 -1.1217  0.0801 -1.1146
17857TIP3    H275063   1.574   4.339  15.320 -0.1963  0.6735 -0.1702
17858TIP3   OH275064   5.283   0.515  15.180 -0.2401 -0.8872 -0.0897
17858TIP3    H175065   5.251   0.455  15.248  0.1352 -0.7057  0.2555
17858TIP3    H275066   5.217   0.512  15.111 -1.5354  0.2871  1.0528
17859TIP3   OH275067   2.348   0.393  15.932 -0.6295 -0.5388  0.1030
17859TIP3    H175068   2.320   0.301  15.938 -0.1519 -0.8165 -1.4965
17859TIP3    H275069   2.266   0.442  15.927 -0.8747 -0.9462  0.0531
17860TIP3   OH275070   5.511   4.550  11.204  0.3027 -0.6093 -0.5006
17860TIP3    H175071   5.598   4.580  11.179 -0.0705  1.4005  0.4337
17860TIP3    H275072   5.526   4.484  11.271  1.1229 -1.1322 -1.1861
17861TIP3   OH275073   2.701   2.551  15.255  0.0930 -0.8261  0.6605
17861TIP3    H175074   2.735   2.467  15.225  1.1717 -0.0924 -0.2533
17861TIP3    H275075   2.754   2.571  15.332  1.3315 -0.0148 -0.3560
17862TIP3   OH275076   3.431   3.159   5.155 -0.1787  0.0597  0.9183
17862TIP3    H175077   3.486   3.146   5.078  1.1891  0.9848  1.7054
17862TIP3    H275078   3.342   3.160   5.120  0.3947  0.3110 -0.6265
17863TIP3   OH275079   3.779   0.907  16.397 -0.4256  0.2332 -0.2889
17863TIP3    H175080   3.712   0.904  16.329 -1.1023  1.7653  0.2833
17863TIP3    H275081   3.844   0.969  16.365 -0.5260  0.6252  0.2538
17864TIP3   OH275082   6.040   4.625  11.815 -0.3241  0.9177  0.2175
17864TIP3    H175083   6.083   4.551  11.857  0.8287  1.6188  0.3081
17864TIP3    H275084   6.051   4.697  11.877 -0.5400  1.4110 -0.3143
17865TIP3   OH275085   2.059   4.747  14.825 -0.1521 -0.2889  0.1581
17865TIP3    H175086   2.044   4.838  14.849 -0.4425 -0.5331  0.9505
17865TIP3    H275087   2.136   4.721  14.876 -0.1465 -0.5179  0.0339
17866TIP3   OH275088   2.131   4.342   3.963 -0.1319 -0.4351  0.1741
17866TIP3    H175089   2.144   4.372   3.873  2.0120 -0.1441  0.5429
17866TIP3    H275090   2.036   4.330   3.970 -0.4140  0.1439 -1.9172
17867TIP3   OH275091   6.369   2.256   4.571  0.5545  0.5940 -0.1303
17867TIP3    H175092   6.458   2.243   4.537 -0.4233 -0.6701 -2.4409
17867TIP3    H275093   6.341   2.168   4.596  0.1120  1.0709  1.1262
17868TIP3   OH275094   5.025   0.671   3.860 -0.2850  0.1765 -0.5852
17868TIP3    H175095   4.969   0.747   3.872 -0.5929  0.4879 -3.3962
17868TIP3    H275096   4.964   0.599   3.844  0.0401 -0.5233  1.0928
17869TIP3   OH275097   0.399   3.202  16.879  0.0142 -0.1097 -0.1707
17869TIP3    H175098   0.401   3.288  16.838 -0.2758  0.3510  0.7446
17869TIP3    H275099   0.315   3.165  16.852  0.4367 -0.3964 -1.1212
17870TIP3   OH275100   4.381   6.262   2.448 -0.9732  0.0342 -0.0844
17870TIP3    H175101   4.424   6.223   2.372 -1.9178 -1.6647  0.2141
17870TIP3    H275102   4.373   6.355   2.426  0.4663 -0.0775 -1.2361
17871TIP3   OH275103   4.090   6.653  14.395 -0.3615 -0.1466  0.1994
17871TIP3    H175104   4.171   6.649  14.346  0.0215 -0.1769  0.8199
17871TIP3    H275105   4.034   6.586  14.356 -0.7569  1.0580 -1.3951
17872TIP3   OH275106   1.837   0.033   0.784  0.2497  0.0135 -0.5057
17872TIP3    H175107   1.828   0.115   0.735 -0.2538  1.3647  1.7247
17872TIP3    H275108   1.748   0.010   0.810  0.4119 -1.1469 -0.9058
17873TIP3   OH275109   3.275   0.246   4.863 -0.6272 -1.1156 -0.0048
17873TIP3    H175110   3.183   0.220   4.858 -0.5445 -1.7814  1.3275
17873TIP3    H275111   3.274   0.342   4.859 -1.2211 -1.1636 -1.6444
17874TIP3   OH275112   3.445   0.808   3.214  0.3016 -0.0273 -0.5965
17874TIP3    H175113   3.536   0.801   3.187  0.6091  1.9585 -0.2058
17874TIP3    H275114   3.406   0.868   3.150 -0.5747 -0.3498 -0.3800
17875TIP3   OH275115   5.508   5.249   0.856  0.3131 -0.1853 -0.0681
17875TIP3    H175116   5.449   5.215   0.789  0.3909 -1.9606  0.6979
17875TIP3    H275117   5.588   5.271   0.808 -0.2653  0.3248 -0.8166
17876TIP3   OH275118   4.374   3.030  12.270  0.2993  0.0228 -0.2725
17876TIP3    H175119   4.310   2.993  12.331  2.0542  0.5239  2.0363
17876TIP3    H275120   4.324   3.048  12.190 -2.1331 -0.7056  0.9860
17877TIP3   OH275121   1.470   5.187   3.692  0.0602 -0.1898  0.1459
17877TIP3    H175122   1.479   5.117   3.628  0.9506  0.4432 -0.4536
17877TIP3    H275123   1.557   5.226   3.697 -0.6950  1.7639 -0.5894
17878TIP3   OH275124   2.217   4.065  14.423  0.8594 -0.0222  0.1484
17878TIP3    H175125   2.293   4.108  14.384  1.5639 -0.2212  1.2291
17878TIP3    H275126   2.236   3.971  14.415  0.1874 -0.0978 -0.5874
17879TIP3   OH275127   6.792   2.397   5.499  0.2307  0.1390 -0.2830
17879TIP3    H175128   6.711   2.426   5.541  0.1719 -1.1819  0.5883
17879TIP3    H275129   6.861   2.446   5.545  0.0933 -0.5758  0.7157
17880TIP3   OH275130   6.346   3.969  15.632  0.2135  0.2146 -0.1739
17880TIP3    H175131   6.313   3.891  15.677 -2.0757  2.4078  2.2891
17880TIP3    H275132   6.273   3.999  15.578 -0.5731  2.7915  2.0703
17881TIP3   OH275133   4.061   2.751  11.112 -0.0618 -0.1430 -0.4794
17881TIP3    H175134   3.965   2.759  11.111 -0.1556 -0.7472  0.7670
17881TIP3    H275135   4.086   2.746  11.020 -0.9507  2.7407 -0.9578
17882TIP3   OH275136   0.343   5.256   2.691  0.4905  0.1581 -0.0722
17882TIP3    H175137   0.406   5.200   2.644  0.2044  1.1652 -1.7569
17882TIP3    H275138   0.271   5.267   2.629 -1.3352 -0.8397  1.7482
17883TIP3   OH275139   0.796   3.301  12.725 -0.0561  0.1309 -0.5573
17883TIP3    H175140   0.813   3.392  12.698  2.5302  0.1284  0.7635
17883TIP3    H275141   0.873   3.276  12.775 -1.2097 -2.4604  0.0930
17884TIP3   OH275142   0.773   5.144   6.310  0.0105  0.1888  0.0078
17884TIP3    H175143   0.740   5.074   6.254  1.5821 -0.4022 -0.2001
17884TIP3    H275144   0.711   5.216   6.295  0.9618  0.4911 -3.4193
17885TIP3   OH275145   0.423   1.891  12.642  0.2058 -0.5936 -0.0051
17885TIP3    H175146   0.428   1.966  12.701  0.8482 -0.6063 -0.0436
17885TIP3    H275147   0.410   1.929  12.555  2.2218 -0.4280 -0.2745
17886TIP3   OH275148   1.054   2.408   0.454 -0.0464 -0.0118 -0.1065
17886TIP3    H175149   0.985   2.474   0.446 -0.0022 -0.0585 -1.0640
17886TIP3    H275150   1.133   2.453   0.423  0.0868 -0.3600 -0.2697
17887TIP3   OH275151   5.485   4.878  14.277 -0.1879  0.0835  0.0523
17887TIP3    H175152   5.486   4.933  14.198 -1.1089  1.4519  0.9526
17887TIP3    H275153   5.433   4.928  14.340  2.2967  0.0385  2.2842
17888TIP3   OH275154   5.404   1.033  14.109  0.2306 -0.0565  0.3809
17888TIP3    H175155   5.405   0.990  14.195  1.5701 -1.1607 -0.1572
17888TIP3    H275156   5.438   0.967  14.048 -0.9409  0.6102 -1.0627
17889TIP3   OH275157   4.078   1.496  16.655 -0.0973 -0.3681 -0.4547
17889TIP3    H175158   4.051   1.477  16.745 -1.9731  0.7004 -0.7198
17889TIP3    H275159   4.038   1.427  16.602 -0.6435  0.0760 -0.6400
17890TIP3   OH275160   2.509   5.079  12.448 -0.1078  0.1436  0.3546
17890TIP3    H175161   2.524   5.057  12.356 -0.8653 -0.1312  0.2931
17890TIP3    H275162   2.556   5.162  12.460  1.7222 -0.8128  0.2695
17891TIP3   OH275163   4.112   5.083   3.595  0.7918  0.0858 -0.4042
17891TIP3    H175164   4.055   5.020   3.638  1.0855  0.5622  0.7139
17891TIP3    H275165   4.059   5.118   3.523  0.5870 -1.3100 -0.9490
17892TIP3   OH275166   1.431   1.565   6.892  0.0579  0.0350 -0.7021
17892TIP3    H175167   1.462   1.565   6.801 -0.6964 -1.6758 -0.9835
17892TIP3    H275168   1.340   1.538   6.887  0.6303 -2.5041  0.7096
17893TIP3   OH275169   6.216   6.020  11.746 -1.0598  0.6885  0.1873
17893TIP3    H175170   6.182   5.991  11.662 -0.6679 -2.4786  0.9970
17893TIP3    H275171   6.310   6.029  11.732 -1.1166  1.1586  0.0723
17894TIP3   OH275172   1.060   6.397  14.722  0.2065 -0.3617 -0.2430
17894TIP3    H175173   1.141   6.379  14.673  1.0199  1.6160  0.2977
17894TIP3    H275174   1.038   6.313  14.762  1.3830 -1.2016 -1.2555
17895TIP3   OH275175   1.025   0.849  16.402 -0.0853  0.1661 -0.1928
17895TIP3    H175176   1.007   0.887  16.316  1.7994  1.1792 -0.2080
17895TIP3    H275177   0.941   0.813  16.431 -1.6578  2.9766 -0.8759
17896TIP3   OH275178   4.803   0.846   2.709 -0.4974 -0.5594 -0.2071
17896TIP3    H175179   4.880   0.855   2.654 -0.9241  0.3257 -0.6784
17896TIP3    H275180   4.837   0.825   2.796  0.2291 -0.9074 -0.5694
17897TIP3   OH275181   1.358   2.105   4.691 -0.4515 -0.1814 -0.0288
17897TIP3    H175182   1.265   2.125   4.701 -0.2864  0.3223  0.5516
17897TIP3    H275183   1.376   2.121   4.598 -0.7508  0.5664  0.0377
17898TIP3   OH275184   3.864   4.597   3.603  0.0401 -0.5162 -0.0267
17898TIP3    H175185   3.819   4.548   3.535  1.4539  0.1745 -1.5343
17898TIP3    H275186   3.921   4.657   3.556  1.7163 -0.5803  1.7539
17899TIP3   OH275187   3.675   6.725  14.771  0.3926  0.4345  0.1607
17899TIP3    H175188   3.584   6.702  14.787  0.1395  0.2804 -1.4322
17899TIP3    H275189   3.707   6.754  14.857 -0.8470 -0.4812  0.9687
17900TIP3   OH275190   5.955   3.732  15.236 -0.2039 -0.6873  0.5245
17900TIP3    H175191   5.984   3.656  15.186  0.9784 -0.3680  0.7032
17900TIP3    H275192   6.035   3.782  15.252 -0.8923  0.3339  0.8505
17901TIP3   OH275193   0.591   3.117   1.876  0.0148  0.2090  0.0105
17901TIP3    H175194   0.591   3.125   1.781  1.9317  2.2509  0.0855
17901TIP3    H275195   0.675   3.078   1.897 -0.7499 -1.0540  0.8697
17902TIP3   OH275196   1.846   2.062   2.586 -0.0618 -0.0927 -0.2503
17902TIP3    H175197   1.847   2.022   2.499  0.5388 -0.9627  0.1382
17902TIP3    H275198   1.852   1.988   2.646 -2.5132  0.3241  0.6194
17903TIP3   OH275199   5.782   0.079   3.640  0.0781  0.3751 -0.2587
17903TIP3    H175200   5.801   0.010   3.703 -0.5324  0.1999 -0.2610
17903TIP3    H275201   5.857   0.078   3.580  1.5850  1.7718  1.4805
17904TIP3   OH275202   0.436   5.880  13.752  0.2934 -0.0591  0.2713
17904TIP3    H175203   0.500   5.932  13.800 -1.4159  1.2434  1.2941
17904TIP3    H275204   0.380   5.842  13.820 -0.9477  0.1460 -0.5870
17905TIP3   OH275205   2.673   4.356  15.856 -0.1395  0.5068 -0.4091
17905TIP3    H175206   2.762   4.375  15.887 -0.6019  0.1449  1.2737
17905TIP3    H275207   2.618   4.421  15.901 -1.0319 -1.0172  0.8130
17906TIP3   OH275208   5.614   6.369   1.570  0.4103 -0.0826  0.0695
17906TIP3    H175209   5.570   6.284   1.568 -0.1782  0.2082  0.4609
17906TIP3    H275210   5.605   6.402   1.481  0.5551 -0.3818 -0.0597
17907TIP3   OH275211   0.274   2.054  14.960 -0.0305 -0.1109  0.2303
17907TIP3    H175212   0.247   2.146  14.965  1.1886  0.2598  0.2383
17907TIP3    H275213   0.291   2.029  15.051  0.7925  0.0259  0.1241
17908TIP3   OH275214   2.779   1.945   0.789 -0.1553 -0.0206 -0.3959
17908TIP3    H175215   2.691   1.970   0.759 -0.0164  0.4386 -0.4299
17908TIP3    H275216   2.769   1.855   0.819 -0.7460  0.1828  0.0353
17909TIP3   OH275217   2.665   3.328   2.396 -0.0243 -0.0720 -0.3075
17909TIP3    H175218   2.634   3.347   2.308 -0.2121 -1.2003 -0.4885
17909TIP3    H275219   2.712   3.408   2.422 -0.6866  0.5978 -1.0882
17910TIP3   OH275220   2.561   2.555   6.021 -0.6585  0.3932 -0.7439
17910TIP3    H175221   2.644   2.566   5.974  0.0139 -0.7670  0.1044
17910TIP3    H275222   2.561   2.626   6.086 -0.8932  1.1006 -1.5031
17911TIP3   OH275223   0.447   6.823   3.393  0.9579  0.2608 -0.1672
17911TIP3    H175224   0.407   6.907   3.416 -0.8419  0.3645 -3.1726
17911TIP3    H275225   0.405   6.760   3.451  1.0100  1.1583  0.8943
17912TIP3   OH275226   3.151   6.568  12.760 -0.2435  0.5753  0.2781
17912TIP3    H175227   3.065   6.609  12.751 -0.9317 -1.0893 -1.6925
17912TIP3    H275228   3.149   6.527  12.846 -1.0610  1.3001  0.6298
17913TIP3   OH275229   3.642   6.733  13.062 -0.2612 -0.0952  0.2732
17913TIP3    H175230   3.556   6.707  13.031  0.0735 -1.4400  0.3923
17913TIP3    H275231   3.665   6.810  13.011 -1.8584  0.7490  0.7925
17914TIP3   OH275232   2.719   3.337   2.004 -0.0572  0.6242 -0.4752
17914TIP3    H175233   2.724   3.241   2.009 -0.8889  0.5596 -0.7220
17914TIP3    H275234   2.790   3.367   2.060 -0.3951 -0.1391  0.4026
17915TIP3   OH275235   3.877   6.491   5.248 -0.1272  0.3302  0.0817
17915TIP3    H175236   3.861   6.437   5.325  0.2898 -0.7721 -0.5778
17915TIP3    H275237   3.921   6.432   5.187 -0.2685  1.2385 -0.9195
17916TIP3   OH275238   6.131   3.500   5.377  0.2514  0.4608  0.0968
17916TIP3    H175239   6.161   3.440   5.446  0.0886  0.1671 -0.0895
17916TIP3    H275240   6.081   3.445   5.317 -1.2838  1.0625  0.7681
17917TIP3   OH275241   1.124   1.063  16.050 -0.3805  0.1354 -0.4830
17917TIP3    H175242   1.158   1.146  16.016 -2.6538  0.7072 -1.5701
17917TIP3    H275243   1.183   0.996  16.014  1.5850  1.2083  0.5443
17918TIP3   OH275244   1.440   5.033   4.922  0.1297  0.2288 -0.3828
17918TIP3    H175245   1.356   4.993   4.944 -1.1077  2.8306 -0.0479
17918TIP3    H275246   1.467   4.991   4.840 -2.1456  0.2292 -1.1839
17919TIP3   OH275247   1.586   0.417  13.624 -0.0858 -0.3115 -0.0234
17919TIP3    H175248   1.575   0.451  13.713 -0.9346 -2.5430  0.7942
17919TIP3    H275249   1.614   0.493  13.573 -0.6015  1.2798  1.9181
17920TIP3   OH275250   2.072   2.258  14.003 -0.1262 -0.2667 -0.6528
17920TIP3    H175251   2.014   2.264  14.078  1.5669 -0.1597  0.7263
17920TIP3    H275252   2.093   2.165  13.996 -0.3208 -0.2843 -1.0404
17921TIP3   OH275253   1.396   5.994  15.588  0.0371  0.2403  0.6075
17921TIP3    H175254   1.398   5.953  15.501 -1.1708 -1.7042  1.4045
17921TIP3    H275255   1.371   6.085  15.572  3.3014  0.9505 -1.3073
17922TIP3   OH275256   4.621   4.233   3.841  0.5791 -0.6327  0.4523
17922TIP3    H175257   4.660   4.311   3.802  2.7232 -1.5713  0.5755
17922TIP3    H275258   4.657   4.231   3.930 -0.5400 -1.0443  0.9089
17923TIP3   OH275259   5.719   1.884   1.983  0.0337  0.2727  0.0534
17923TIP3    H175260   5.713   1.960   1.924  0.0235  1.2634  1.2884
17923TIP3    H275261   5.782   1.826   1.940  1.3395  1.7467 -0.1170
17924TIP3   OH275262   0.122   4.141   3.921  0.7519 -0.6818  0.8201
17924TIP3    H175263   0.177   4.165   3.847 -0.8616  1.1095  0.1357
17924TIP3    H275264   0.157   4.192   3.994 -0.5633  1.3464  0.1329
17925TIP3   OH275265   5.667   6.094   4.865  0.3579  0.8102  0.2450
17925TIP3    H175266   5.685   6.112   4.773 -1.2885 -0.9243 -0.4924
17925TIP3    H275267   5.729   6.025   4.888  0.6595  1.1290  0.3935
17926TIP3   OH275268   0.572   1.473  13.176  0.6022  0.1703  0.7687
17926TIP3    H175269   0.617   1.557  13.171 -0.4255  0.6461 -1.4836
17926TIP3    H275270   0.485   1.495  13.210  0.1700  0.1149 -0.2698
17927TIP3   OH275271   0.732   3.072   4.650 -0.1091  0.4767  0.1811
17927TIP3    H175272   0.728   3.009   4.578  0.1450  0.8716 -0.1855
17927TIP3    H275273   0.824   3.072   4.677 -0.3656 -0.3247  1.1073
17928TIP3   OH275274   6.306   3.613   3.060  0.3309 -0.0678  0.4729
17928TIP3    H175275   6.382   3.572   3.101 -0.1041 -0.0858  1.2901
17928TIP3    H275276   6.304   3.702   3.095  0.4321  0.1939 -0.1679
17929TIP3   OH275277   0.403   1.693   4.731  0.0897  0.6183 -0.1420
17929TIP3    H175278   0.438   1.657   4.813  0.9383  1.2156 -0.2314
17929TIP3    H275279   0.410   1.621   4.668  0.9152  0.6381 -0.0854
17930TIP3   OH275280   1.764   2.659  13.983  0.0238  0.3952  0.0842
17930TIP3    H175281   1.828   2.607  14.030 -0.1491  1.0114  1.0223
17930TIP3    H275282   1.764   2.623  13.894  1.3471  0.1108  0.1880
17931TIP3   OH275283   1.386   5.580  12.661 -0.4338 -0.2621  0.5482
17931TIP3    H175284   1.309   5.524  12.675 -1.1231  0.3488 -0.6214
17931TIP3    H275285   1.452   5.521  12.623 -0.8565 -0.4803  0.1400
17932TIP3   OH275286   2.195   0.059  13.001 -0.2552 -0.0882 -0.2975
17932TIP3    H175287   2.215   0.133  13.058 -0.5810 -0.1511 -0.1021
17932TIP3    H275288   2.255   0.070  12.926  1.0247 -0.6749  0.6051
17933TIP3   OH275289   3.908   5.495   0.821 -0.3585 -0.1352  0.2584
17933TIP3    H175290   3.856   5.572   0.797  1.0616  0.9194  0.4821
17933TIP3    H275291   3.842   5.427   0.838 -1.7059  1.3013  1.0673
17934TIP3   OH275292   3.924   1.711  14.271 -0.6017  0.2339  0.1585
17934TIP3    H175293   3.942   1.620  14.294 -0.6481  0.3533  0.6831
17934TIP3    H275294   3.829   1.719  14.275 -0.7244 -0.1176 -1.5409
17935TIP3   OH275295   4.455   4.914  13.021 -0.3168 -0.1461  0.3461
17935TIP3    H175296   4.439   4.992  13.075  0.0803 -1.0037  1.7625
17935TIP3    H275297   4.511   4.945  12.950 -1.7695  1.2609 -0.2541
17936TIP3   OH275298   5.576   5.450  15.538  0.3005 -0.3513  0.2216
17936TIP3    H175299   5.665   5.419  15.557 -0.8721 -3.6912  0.9153
17936TIP3    H275300   5.565   5.434  15.445  0.9959  1.8786 -0.2928
17937TIP3   OH275301   5.031   4.156   1.761 -0.0926 -0.6804 -0.4895
17937TIP3    H175302   5.101   4.188   1.816 -0.5170  4.4216 -2.4088
17937TIP3    H275303   4.956   4.147   1.819  0.0107  2.5199  0.3153
17938TIP3   OH275304   6.250   2.659   2.972 -0.5024 -0.4413 -0.1998
17938TIP3    H175305   6.237   2.713   2.894 -0.0629  0.8260  0.5752
17938TIP3    H275306   6.171   2.606   2.977 -0.9236  0.0799 -1.0158
17939TIP3   OH275307   2.998   1.789   2.354  0.2219 -0.3192  0.6549
17939TIP3    H175308   2.966   1.820   2.439  0.6305  0.0467  0.6769
17939TIP3    H275309   3.047   1.863   2.318 -1.6038  0.2796 -0.8092
17940TIP3   OH275310   1.095   0.184  15.106 -0.5307  0.2716  0.3915
17940TIP3    H175311   1.025   0.119  15.091 -0.5065  0.1240  0.9060
17940TIP3    H275312   1.088   0.205  15.199  0.2644  0.0800  0.4972
17941TIP3   OH275313   2.856   5.144  13.802  0.7395 -0.4435 -0.2313
17941TIP3    H175314   2.777   5.159  13.852  0.9536  1.7312 -0.4543
17941TIP3    H275315   2.927   5.150  13.866  0.8138 -1.0576 -0.2514
17942TIP3   OH275316   2.022   3.439   5.271 -0.2336  0.1651  0.0663
17942TIP3    H175317   2.055   3.480   5.191 -0.7790  0.2710 -0.1042
17942TIP3    H275318   1.933   3.473   5.281 -1.3388 -2.1433 -0.9588
17943TIP3   OH275319   5.010   1.756   6.686  1.2819 -0.1752 -0.1094
17943TIP3    H175320   4.983   1.835   6.640 -0.2536  0.2411  1.4061
17943TIP3    H275321   4.960   1.685   6.646 -1.0003  0.3590  1.5909
17944TIP3   OH275322   2.123   3.050   3.835 -0.4637  0.1807  0.4859
17944TIP3    H175323   2.164   3.062   3.920 -0.0421 -0.9420  0.4495
17944TIP3    H275324   2.050   2.991   3.851 -0.5084  0.1316  0.1109
17945TIP3   OH275325   1.148   1.291  14.676 -0.0942 -0.3281  0.2790
17945TIP3    H175326   1.117   1.228  14.611 -2.0018  0.8025  0.0021
17945TIP3    H275327   1.085   1.363  14.671 -0.0550  0.0092  3.0630
17946TIP3   OH275328   5.101   3.683   1.439  0.9218 -0.1668  0.0272
17946TIP3    H175329   5.008   3.701   1.430  0.7589 -1.0573 -0.1934
17946TIP3    H275330   5.144   3.744   1.379  0.5219  0.5879  0.5051
17947TIP3   OH275331   2.551   4.318   1.384  0.5861  0.2468 -0.4870
17947TIP3    H175332   2.602   4.240   1.404 -0.0438 -0.1956 -0.5842
17947TIP3    H275333   2.476   4.286   1.335  0.2665  0.9023 -0.4401
17948TIP3   OH275334   0.906   3.928   2.250  0.5351 -0.2668 -0.1135
17948TIP3    H175335   0.827   3.896   2.206  0.3357  0.6251 -0.4143
17948TIP3    H275336   0.902   3.887   2.337 -0.0202 -0.5895 -0.2813
17949TIP3   OH275337   6.684   3.591  11.338  0.3417 -0.3314 -0.4266
17949TIP3    H175338   6.612   3.632  11.290 -0.2709 -0.9684 -0.0618
17949TIP3    H275339   6.763   3.620  11.292 -0.1833 -0.1738 -1.2431
17950TIP3   OH275340   3.905   2.608  13.313 -0.5773  0.2768  0.0443
17950TIP3    H175341   3.864   2.626  13.228 -1.2602  1.7727  0.6443
17950TIP3    H275342   3.995   2.637  13.303 -0.9498  1.5497  0.1388
17951TIP3   OH275343   2.315   4.777  17.014  0.9815  0.6824  0.1308
17951TIP3    H175344   2.367   4.807  16.939  0.2933  0.6702 -0.3686
17951TIP3    H275345   2.378   4.739  17.074  1.7797  2.2652  0.3494
17952TIP3   OH275346   1.635   1.026  14.817  0.5854 -0.2119  0.2687
17952TIP3    H175347   1.665   1.065  14.734 -0.8986  0.8405  0.1977
17952TIP3    H275348   1.547   1.061  14.830 -1.4536 -4.4401 -0.4204
17953TIP3   OH275349   3.916   6.748  17.088 -0.2188 -0.0884  0.2640
17953TIP3    H175350   3.941   6.840  17.098 -0.1826 -0.2209  1.4898
17953TIP3    H275351   3.823   6.750  17.067 -0.0995  0.2370 -0.2712
17954TIP3   OH275352   0.451   6.609  13.901  0.3011  0.3232  0.1624
17954TIP3    H175353   0.411   6.695  13.888 -0.6628 -0.1418 -0.0853
17954TIP3    H275354   0.468   6.605  13.995  0.9618  1.0269  0.0852
17955TIP3   OH275355   2.325   0.599   4.458  0.1156 -0.0461  0.2809
17955TIP3    H175356   2.249   0.584   4.514  0.3302  0.1497  0.6284
17955TIP3    H275357   2.328   0.694   4.446 -0.2773 -0.1356 -0.5559
17956TIP3   OH275358   0.249   6.169   3.141  0.7787  0.0282  0.2443
17956TIP3    H175359   0.305   6.213   3.077  1.5401 -0.7273  0.3708
17956TIP3    H275360   0.209   6.097   3.093  1.0617 -0.3151  0.5149
17957TIP3   OH275361   6.802   2.937   5.101 -0.2391 -0.2850  0.0717
17957TIP3    H175362   6.776   2.940   5.009  0.2815  2.0628 -0.0617
17957TIP3    H275363   6.723   2.910   5.147 -0.9805  0.1059 -0.9295
17958TIP3   OH275364   5.663   2.440  15.840  0.5685  0.1396  0.1563
17958TIP3    H175365   5.630   2.351  15.852 -0.1442  0.3416 -0.2707
17958TIP3    H275366   5.757   2.433  15.858  0.7181 -0.9141 -0.9370
17959TIP3   OH275367   3.034   5.785  15.185 -0.6656  0.1426 -0.1921
17959TIP3    H175368   3.091   5.811  15.113 -0.7784 -0.3675 -0.4722
17959TIP3    H275369   2.961   5.739  15.143 -1.2688  0.7570  0.1601
17960TIP3   OH275370   3.512   3.836  10.638  0.1996  0.3704 -0.2935
17960TIP3    H175371   3.606   3.852  10.624  0.2428  1.2948  0.9007
17960TIP3    H275372   3.495   3.753  10.593  1.9403 -0.6295  0.7702
17961TIP3   OH275373   6.087   6.294  13.195 -0.0683  0.0850  0.5560
17961TIP3    H175374   6.144   6.280  13.120 -0.0199  1.6667  0.2542
17961TIP3    H275375   6.082   6.389  13.204 -1.7211 -0.0290  1.2903
17962TIP3   OH275376   5.913   2.831  16.557  0.5640  0.3474 -0.3135
17962TIP3    H175377   6.003   2.799  16.555  0.2183 -0.7564  0.7238
17962TIP3    H275378   5.908   2.882  16.638  0.6372  1.6563 -1.1020
17963TIP3   OH275379   1.609   1.449  13.545 -0.1352 -0.2115  1.2119
17963TIP3    H175380   1.608   1.525  13.604  0.0260 -1.8169  3.3855
17963TIP3    H275381   1.519   1.415  13.549 -0.3987  0.2160 -0.3109
17964TIP3   OH275382   4.509   0.666   0.456 -0.0389  0.5293 -0.2023
17964TIP3    H175383   4.462   0.616   0.389  0.0082  1.5615 -1.0345
17964TIP3    H275384   4.464   0.750   0.459  1.5530  1.4581 -0.8295
17965TIP3   OH275385   3.645   6.488  15.015  0.4282  0.0171  0.0688
17965TIP3    H175386   3.591   6.429  15.067  0.7187  0.2037  0.5867
17965TIP3    H275387   3.585   6.559  14.990 -0.1166 -0.8481 -1.1838
17966TIP3   OH275388   5.363   5.952   2.486  0.1671 -0.2517 -0.1977
17966TIP3    H175389   5.373   6.040   2.450  1.4486 -0.0330  0.6457
17966TIP3    H275390   5.307   5.963   2.562 -1.0177 -0.4411 -1.0046
17967TIP3   OH275391   3.129   1.724  12.243  0.2131  0.0107  0.2508
17967TIP3    H175392   3.157   1.634  12.225 -2.2175 -0.7885  0.0980
17967TIP3    H275393   3.134   1.733  12.338  1.4632  0.0959  0.1875
17968TIP3   OH275394   5.260   1.737  11.611 -0.1995  0.0194 -0.6627
17968TIP3    H175395   5.330   1.803  11.620 -0.2830  0.0937 -0.5434
17968TIP3    H275396   5.278   1.694  11.528  1.2708 -1.4531  0.3461
17969TIP3   OH275397   2.021   2.063   3.168  0.0327  0.5730 -0.9232
17969TIP3    H175398   2.026   2.038   3.076  4.3231 -1.2289 -0.4308
17969TIP3    H275399   2.048   2.155   3.169 -0.4195  0.7165 -1.4837
17970TIP3   OH275400   0.236   4.236   6.378  0.1596  0.5952  0.3937
17970TIP3    H175401   0.329   4.232   6.354  0.1436  1.0507  0.2342
17970TIP3    H275402   0.194   4.277   6.302 -0.3329 -0.5391  0.0426
17971TIP3   OH275403   5.401   1.940  16.460  0.6893 -0.3534 -0.1285
17971TIP3    H175404   5.317   1.896  16.470  1.3859 -2.4867 -2.5926
17971TIP3    H275405   5.445   1.930  16.544 -0.4416 -1.6599  0.3239
17972TIP3   OH275406   1.961   2.757   4.545 -0.3935 -0.6598  0.2096
17972TIP3    H175407   1.928   2.829   4.492  0.8357 -0.0277  0.2625
17972TIP3    H275408   1.947   2.679   4.492 -0.6654 -0.2363 -0.3510
17973TIP3   OH275409   3.168   2.333   4.171 -0.0669 -0.0047 -0.6739
17973TIP3    H175410   3.220   2.338   4.090 -0.9584 -0.7122 -1.3109
17973TIP3    H275411   3.084   2.373   4.147 -0.8885 -1.6040 -0.5633
17974TIP3   OH275412   0.721   4.587   2.920  0.3000  0.4970 -0.2056
17974TIP3    H175413   0.733   4.542   2.836  1.1822 -0.8870  0.6021
17974TIP3    H275414   0.627   4.583   2.937 -0.2045  2.7019 -2.0889
17975TIP3   OH275415   2.713   1.547  16.077  0.3484 -0.1606 -0.0258
17975TIP3    H175416   2.774   1.474  16.072 -0.8139 -1.2123  0.5290
17975TIP3    H275417   2.706   1.580  15.987  1.9139  0.1753 -0.0531
17976TIP3   OH275418   3.177   2.596  10.532  0.0700  0.4931  0.1071
17976TIP3    H175419   3.173   2.679  10.580  1.0977  0.7396 -0.2046
17976TIP3    H275420   3.116   2.608  10.459 -1.0366  0.3445  0.9837
17977TIP3   OH275421   3.794   3.763  10.553  0.2442 -0.6397  0.3650
17977TIP3    H175422   3.856   3.754  10.625  0.5554 -2.1850 -0.0550
17977TIP3    H275423   3.843   3.735  10.476 -0.5152 -0.3976 -0.2237
17978TIP3   OH275424   4.146   5.531  11.579  0.2514  0.0872 -0.2556
17978TIP3    H175425   4.234   5.555  11.606 -1.7883  4.0310  4.3942
17978TIP3    H275426   4.115   5.471  11.646 -1.4460  0.9885 -0.1657
17979TIP3   OH275427   5.792   0.915  14.142 -0.4364 -0.4113  0.4773
17979TIP3    H175428   5.794   0.897  14.236 -0.2269 -0.0187  0.5494
17979TIP3    H275429   5.843   0.996  14.132 -0.1909 -0.6224 -0.0102
17980TIP3   OH275430   5.320   3.471  15.119 -0.2926  0.1769  0.8983
17980TIP3    H175431   5.249   3.502  15.174 -2.0844  0.7732 -1.5707
17980TIP3    H275432   5.280   3.408  15.060  1.0495  0.9103 -0.9274
17981TIP3   OH275433   0.149   6.472  17.295  0.1530  0.6017 -0.5777
17981TIP3    H175434   0.182   6.382  17.304  0.0119  0.6173  0.1310
17981TIP3    H275435   0.142   6.486  17.200  0.3185 -0.0809 -0.6922
17982TIP3   OH275436   1.735   0.143  12.846  0.3156  0.0685  0.3697
17982TIP3    H175437   1.812   0.200  12.848  0.4052  0.0854 -1.4746
17982TIP3    H275438   1.766   0.064  12.801 -0.5535 -0.2226  0.2741
17983TIP3   OH275439   5.167   2.104  12.995 -0.1139  0.3825  0.1762
17983TIP3    H175440   5.246   2.072  12.952  0.1014  1.5316 -0.3055
17983TIP3    H275441   5.095   2.073  12.940 -0.0446 -0.9809  0.8144
17984TIP3   OH275442   4.379   3.249   1.523  1.7042  0.1756 -0.5338
17984TIP3    H175443   4.290   3.258   1.488  2.0998 -0.7862 -1.8960
17984TIP3    H275444   4.416   3.337   1.520  0.8927  0.5351 -0.1981
17985TIP3   OH275445   2.998   4.255  11.768  0.3064  0.2019 -0.0757
17985TIP3    H175446   2.928   4.227  11.827  2.7245  1.9437  4.0539
17985TIP3    H275447   2.967   4.337  11.730 -1.3383 -0.9888 -1.4278
17986TIP3   OH275448   0.784   0.050   2.623 -0.4345 -0.0043 -0.2239
17986TIP3    H175449   0.828   0.134   2.633  0.5738 -0.4667 -0.6669
17986TIP3    H275450   0.728   0.062   2.546 -0.2599  0.2508 -0.3124
17987TIP3   OH275451   0.100   3.767  12.415  0.1889 -0.3627 -0.4009
17987TIP3    H175452   0.124   3.804  12.500  0.0458  0.0285 -0.5279
17987TIP3    H275453   0.153   3.816  12.352 -0.1031 -0.2785 -0.5829
17988TIP3   OH275454   4.673   6.001   2.618  0.4220 -0.2854  0.2412
17988TIP3    H175455   4.641   5.997   2.528  0.5683  0.4052  0.1532
17988TIP3    H275456   4.631   5.927   2.662  1.3656 -1.4462 -0.7202
17989TIP3   OH275457   2.386   2.828  14.208  0.2061  0.1923 -0.0726
17989TIP3    H175458   2.369   2.827  14.302  0.7501 -0.6763  0.0213
17989TIP3    H275459   2.349   2.746  14.175  2.6070 -0.9520 -0.1215
17990TIP3   OH275460   1.024   2.111  11.231 -0.2421  0.0778  0.6780
17990TIP3    H175461   1.073   2.089  11.152 -0.4924  3.1117 -0.4316
17990TIP3    H275462   1.082   2.168  11.281 -0.4805 -0.9935  2.2726
17991TIP3   OH275463   0.636   5.307  14.113 -0.6016 -0.4304  0.1189
17991TIP3    H175464   0.575   5.325  14.184 -0.3968 -0.0853  0.2098
17991TIP3    H275465   0.666   5.217  14.129 -0.6731 -0.4077  0.3804
17992TIP3   OH275466   3.357   0.376  11.801 -0.4930  0.2143  0.0477
17992TIP3    H175467   3.383   0.330  11.721 -0.5145  0.2286  0.0327
17992TIP3    H275468   3.271   0.341  11.823 -0.2213 -0.2394  0.4107
17993TIP3   OH275469   2.351   3.250   3.704  0.0406 -0.1371 -0.2037
17993TIP3    H175470   2.411   3.299   3.649 -0.2650 -0.6970 -1.0611
17993TIP3    H275471   2.399   3.170   3.727 -0.0471 -0.1722 -0.1400
17994TIP3   OH275472   5.461   2.819  13.541  0.0860  0.1277 -0.4189
17994TIP3    H175473   5.512   2.896  13.569 -1.9307  0.9127  1.4410
17994TIP3    H275474   5.420   2.846  13.459 -0.1651  0.8473 -0.0683
17995TIP3   OH275475   0.666   4.277  14.308  0.6373 -0.0710 -0.1473
17995TIP3    H175476   0.757   4.301  14.292 -0.3408  2.7526 -2.4772
17995TIP3    H275477   0.624   4.285  14.222 -2.2762  1.1379  1.2554
17996TIP3   OH275478   2.663   1.385   4.192 -0.1223 -0.3666 -0.4406
17996TIP3    H175479   2.654   1.478   4.170  0.7389 -0.0632  0.4216
17996TIP3    H275480   2.581   1.345   4.161 -1.8040  1.1734  1.6956
17997TIP3   OH275481   5.055   3.876   1.719  0.2733 -0.2530  0.2931
17997TIP3    H175482   5.082   3.800   1.667  0.4657  0.3298 -0.4814
17997TIP3    H275483   5.095   3.951   1.674 -1.6166  0.5236 -0.1841
17998TIP3   OH275484   1.173   1.492   1.687 -0.7076  0.1775  0.3310
17998TIP3    H175485   1.171   1.510   1.781 -1.0927 -0.5399  0.4690
17998TIP3    H275486   1.146   1.400   1.680  2.4758 -0.8587 -0.1859
17999TIP3   OH275487   4.777   4.276   1.373  0.3329 -0.0695  0.3195
17999TIP3    H175488   4.855   4.331   1.384  0.1259  0.3370 -0.1897
17999TIP3    H275489   4.795   4.225   1.294 -0.6938  1.4143 -0.9348
18000TIP3   OH275490   0.077   2.906  12.428 -0.1211 -0.7088 -0.6409
18000TIP3    H175491   0.136   2.951  12.488  1.3230 -1.2863 -1.5858
18000TIP3    H275492   0.020   2.854  12.485 -0.2157  0.4072  0.3205
18001TIP3   OH275493   0.508   1.369   2.790 -0.2851 -0.3116 -0.0213
18001TIP3    H175494   0.416   1.374   2.765 -0.6166 -0.0820  1.1713
18001TIP3    H275495   0.542   1.292   2.744 -1.1550 -0.5906 -0.2145
18002TIP3   OH275496   5.871   0.209   0.614 -0.5384  0.0037 -0.1036
18002TIP3    H175497   5.812   0.277   0.645 -0.5379  0.5644 -1.2722
18002TIP3    H275498   5.819   0.158   0.551 -0.2930 -0.5572  0.1436
18003TIP3   OH275499   4.130   5.057  12.955  0.4097 -0.0566 -0.3802
18003TIP3    H175500   4.129   5.068  13.050 -0.8457 -0.9649 -0.2633
18003TIP3    H275501   4.104   4.966  12.941 -1.3262  0.5684 -1.6269
18004TIP3   OH275502   6.822   6.728  13.648 -0.0158  0.0168 -0.2912
18004TIP3    H175503   6.913   6.744  13.622 -0.0879  0.3369 -0.3562
18004TIP3    H275504   6.817   6.761  13.737 -0.1158  0.1811 -0.3566
18005TIP3   OH275505   5.441   4.082  11.464  0.3704  0.1508 -0.2894
18005TIP3    H175506   5.440   3.988  11.444 -0.3502  0.3547 -1.3299
18005TIP3    H275507   5.348   4.106  11.469  0.5507  0.8211 -0.1132
18006TIP3   OH275508   3.264   0.511   4.908  0.2358  0.8461 -0.4809
18006TIP3    H175509   3.180   0.553   4.893 -0.5334 -0.4894 -0.0998
18006TIP3    H275510   3.281   0.523   5.001 -0.2958 -0.1957 -0.2374
18007TIP3   OH275511   2.631   2.187  11.501  0.1230  0.0040 -0.2051
18007TIP3    H175512   2.618   2.281  11.507 -0.0209  0.0709 -1.3459
18007TIP3    H275513   2.666   2.162  11.587 -3.0372  0.5465  1.3625
18008TIP3   OH275514   5.643   0.993   5.913 -0.3039  0.0112 -0.4591
18008TIP3    H175515   5.645   1.029   5.825 -0.4474  0.2886 -0.3514
18008TIP3    H275516   5.613   0.903   5.902 -0.7667  0.1866 -0.6499
18009TIP3   OH275517   0.352   3.300   3.309  0.3490 -0.4461 -0.6955
18009TIP3    H175518   0.416   3.229   3.310  0.5314 -0.2806 -0.1595
18009TIP3    H275519   0.369   3.346   3.227 -0.7267 -1.8629 -1.7652
18010TIP3   OH275520   5.554   1.052  11.681 -0.0126 -0.1160  0.3081
18010TIP3    H175521   5.569   1.041  11.587  0.4137  0.6208  0.2883
18010TIP3    H275522   5.556   0.963  11.716 -2.3141 -0.6361 -0.6897
18011TIP3   OH275523   3.753   4.415   1.041 -0.1797  0.5261  0.4541
18011TIP3    H175524   3.763   4.320   1.044 -1.3039  0.2536 -1.8565
18011TIP3    H275525   3.814   4.444   0.973  0.0084  1.4463  0.9919
18012TIP3   OH275526   6.495   5.998   2.236 -0.0881 -0.2949  0.9633
18012TIP3    H175527   6.487   5.984   2.142  2.0594 -2.0794  0.9436
18012TIP3    H275528   6.510   5.910   2.272  0.5025  0.4958  2.7739
18013TIP3   OH275529   3.681   3.811   2.012  0.0651  0.4194 -0.2411
18013TIP3    H175530   3.629   3.880   1.972 -2.4411 -0.2276  1.5867
18013TIP3    H275531   3.731   3.855   2.081 -0.4073  0.6288 -0.0299
18014TIP3   OH275532   6.209   5.865  16.513 -0.5661 -0.0163  0.3352
18014TIP3    H175533   6.231   5.884  16.605  2.1327  1.5355 -0.5362
18014TIP3    H275534   6.122   5.904  16.501 -1.7889 -1.7856  2.6212
18015TIP3   OH275535   0.507   0.675  16.765  0.2245  0.2425  0.0342
18015TIP3    H175536   0.528   0.711  16.852  0.3720 -3.2479  1.5880
18015TIP3    H275537   0.587   0.688  16.714  0.1416  2.3401  0.3434
18016TIP3   OH275538   1.696   0.154   1.825  0.4235  0.5141  0.4097
18016TIP3    H175539   1.608   0.134   1.793  0.2142 -1.0568  1.8240
18016TIP3    H275540   1.754   0.105   1.766  0.1443 -0.8802  1.2431
18017TIP3   OH275541   0.443   6.746  14.692  0.1889 -0.0593 -0.2797
18017TIP3    H175542   0.383   6.673  14.709 -0.3387  0.8602  2.1000
18017TIP3    H275543   0.397   6.799  14.626  0.8852 -2.1150 -2.5970
18018TIP3   OH275544   3.989   2.562  14.737  0.3826 -0.3372  0.3221
18018TIP3    H175545   3.940   2.591  14.814 -0.1053  0.7737 -0.3914
18018TIP3    H275546   4.032   2.641  14.704  1.2159 -0.9506 -0.1180
18019TIP3   OH275547   4.005   3.244  15.708 -0.4302 -0.8539  0.2645
18019TIP3    H175548   3.935   3.268  15.769 -1.7604 -1.8550 -0.8055
18019TIP3    H275549   3.982   3.289  15.627  0.3190 -0.9934 -0.0332
18020TIP3   OH275550   2.067   5.905   5.296 -0.0000  0.1884 -0.0356
18020TIP3    H175551   2.021   5.862   5.367 -0.9178  1.7944  0.3817
18020TIP3    H275552   1.998   5.938   5.238  0.6588  1.0346 -0.3743
18021TIP3   OH275553   4.892   4.728  15.733  0.9429 -0.0942  0.4109
18021TIP3    H175554   4.874   4.738  15.640  1.4603  2.2432  0.5064
18021TIP3    H275555   4.860   4.809  15.773  0.7832 -1.0138  2.2724
18022TIP3   OH275556   5.930   1.775  13.351  0.7911 -0.2029  0.6029
18022TIP3    H175557   6.016   1.780  13.311  0.5481 -0.8562 -0.0366
18022TIP3    H275558   5.892   1.693  13.317 -0.8303  1.0057 -0.6584
18023TIP3   OH275559   3.549   1.616   2.173  0.7967  0.4456  0.2098
18023TIP3    H175560   3.480   1.682   2.159  0.3406  0.3681  1.8802
18023TIP3    H275561   3.510   1.554   2.234  2.7307  1.0005  2.1062
18024TIP3   OH275562   4.226   1.897  16.117  0.4578 -0.2300 -0.0653
18024TIP3    H175563   4.303   1.861  16.073  0.5421 -0.9068  0.6202
18024TIP3    H275564   4.233   1.991  16.103  2.6361 -0.0313  1.8771
18025TIP3   OH275565   0.012   2.676  14.447  0.2410  0.1926  0.1888
18025TIP3    H175566  -0.070   2.627  14.443  0.0371  0.1225  3.1016
18025TIP3    H275567   0.076   2.620  14.404 -1.0793  0.0496 -1.7344
18026TIP3   OH275568   1.618   2.565  17.161  0.0442 -0.0257 -0.5793
18026TIP3    H175569   1.682   2.494  17.160  1.2794  1.0471 -0.3673
18026TIP3    H275570   1.671   2.645  17.163 -1.3096  0.8989 -0.4209
18027TIP3   OH275571   1.707   3.922   1.787  0.1126  0.2639  0.4070
18027TIP3    H175572   1.633   3.966   1.829  1.1761  0.3998  2.2288
18027TIP3    H275573   1.716   3.840   1.835  1.1856  0.2961  0.2855
18028TIP3   OH275574   1.214   1.564  10.957 -0.0404 -0.3211 -0.3196
18028TIP3    H175575   1.207   1.597  11.046 -0.8201 -1.6873  0.1583
18028TIP3    H275576   1.280   1.494  10.963  0.1069 -0.2365 -0.8720
18029TIP3   OH275577   1.239   0.742  14.098  0.5871  0.3814  0.5217
18029TIP3    H175578   1.218   0.712  14.009 -1.0762 -0.3006  1.1144
18029TIP3    H275579   1.166   0.798  14.122  1.9866  2.2144  0.7536
18030TIP3   OH275580   4.713   2.651   2.674  0.0190  0.2850 -0.6165
18030TIP3    H175581   4.768   2.679   2.601 -0.5979  1.2216 -0.7304
18030TIP3    H275582   4.775   2.630   2.743  0.5256  2.7151 -0.2403
18031TIP3   OH275583   5.678   0.738  15.128 -0.8998  0.2750 -0.0074
18031TIP3    H175584   5.672   0.701  15.216  0.3686 -1.1513 -0.4604
18031TIP3    H275585   5.772   0.740  15.109 -1.0204  2.4448 -0.5957
18032TIP3   OH275586   2.065   2.481   0.247  0.4383  0.0924  0.4133
18032TIP3    H175587   2.049   2.408   0.307 -2.0337 -1.6245 -2.0594
18032TIP3    H275588   2.153   2.465   0.213  0.6290 -0.6964  1.2457
18033TIP3   OH275589   1.939   5.815   4.708 -0.2733 -0.1516 -0.2222
18033TIP3    H175590   2.001   5.831   4.780  0.8263  0.4997 -1.2690
18033TIP3    H275591   1.853   5.812   4.751  0.3077  0.5889  1.0654
18034TIP3   OH275592   2.662   6.763  16.868 -0.2960  0.1144  0.1721
18034TIP3    H175593   2.584   6.721  16.904  1.0029 -1.1405  1.6954
18034TIP3    H275594   2.703   6.695  16.814 -0.5997  1.0084 -1.2586
18035TIP3   OH275595   1.566   5.954  13.297 -0.5899  0.9508 -0.1888
18035TIP3    H175596   1.539   5.891  13.230 -0.6842 -0.2569  0.9438
18035TIP3    H275597   1.554   6.039  13.255 -1.6033  0.2742 -1.3692
18036TIP3   OH275598   1.605   1.164  12.000  0.7308 -0.1331  0.1444
18036TIP3    H175599   1.531   1.225  12.000  3.0728  3.0468 -1.6546
18036TIP3    H275600   1.634   1.161  12.091 -0.9182 -0.5724  0.6775
18037TIP3   OH275601   5.493   5.388  17.178 -0.3926  0.4945  0.3732
18037TIP3    H175602   5.485   5.293  17.178 -0.8351  0.4960  2.2402
18037TIP3    H275603   5.482   5.413  17.269  1.0398  2.2471  0.1133
18038TIP3   OH275604   0.473   4.464  16.392  0.0883 -0.1586  0.6964
18038TIP3    H175605   0.457   4.402  16.321 -1.3400  0.6544  0.2867
18038TIP3    H275606   0.528   4.532  16.352 -1.6008  0.8611  0.0286
18039TIP3   OH275607   6.136   1.464  13.816 -0.0893  0.2464  0.0370
18039TIP3    H175608   6.071   1.431  13.754  0.1273 -0.6577  0.2675
18039TIP3    H275609   6.123   1.559  13.818  0.2199  0.3580 -1.7559
18040TIP3   OH275610   1.812   1.120   0.637 -0.6084 -0.8870 -0.1466
18040TIP3    H175611   1.897   1.142   0.600  0.0941 -0.9678  1.3277
18040TIP3    H275612   1.764   1.078   0.565  0.8410 -1.4590 -0.8218
18041TIP3   OH275613   0.262   0.136   4.194  0.0042 -0.0910  0.0704
18041TIP3    H175614   0.290   0.047   4.174  0.9891  0.4109 -0.9230
18041TIP3    H275615   0.338   0.191   4.172 -0.2726  0.9222  1.4733
18042TIP3   OH275616   3.350   5.444   5.906  0.5057  0.0945  0.0863
18042TIP3    H175617   3.427   5.462   5.959 -0.0558  0.6724  0.7180
18042TIP3    H275618   3.325   5.529   5.870  0.3796 -0.1522 -0.4227
18043TIP3   OH275619   2.821   1.410  15.489  0.1895  0.3574  0.5051
18043TIP3    H175620   2.792   1.495  15.520 -1.4021 -0.3314  1.0264
18043TIP3    H275621   2.778   1.347  15.548 -0.8431 -0.8939 -1.4737
18044TIP3   OH275622   0.595   0.079   6.191  0.0897  0.4902  0.2270
18044TIP3    H175623   0.677   0.110   6.152 -0.7898  1.1876 -1.1259
18044TIP3    H275624   0.573   0.145   6.257 -0.0995  1.0627 -0.3966
18045TIP3   OH275625   2.316   0.187  16.891 -0.6254 -0.0139  0.1152
18045TIP3    H175626   2.324   0.178  16.985 -1.1489  1.6538  0.3666
18045TIP3    H275627   2.405   0.177  16.857 -0.5136 -1.1552  0.7042
18046TIP3   OH275628   1.705   0.541   3.198  0.1605  0.2413 -0.1385
18046TIP3    H175629   1.764   0.614   3.215 -0.4576  0.8759 -0.6875
18046TIP3    H275630   1.679   0.510   3.284  0.7304  0.4099  0.0989
18047TIP3   OH275631   0.356   4.301  14.167 -0.5227  0.5093  0.7488
18047TIP3    H175632   0.354   4.360  14.091 -0.0519  0.0375  0.3636
18047TIP3    H275633   0.319   4.352  14.238 -4.8377 -0.2179 -0.6380
18048TIP3   OH275634   4.939   2.380  16.953 -0.4685 -0.1346 -0.6129
18048TIP3    H175635   4.920   2.330  17.032  1.2538 -1.5044 -1.0228
18048TIP3    H275636   4.892   2.334  16.883 -0.5745  0.0475 -0.6623
18049TIP3   OH275637   5.281   3.309   2.581 -0.2497 -0.6410 -0.0048
18049TIP3    H175638   5.231   3.288   2.660 -1.1309 -0.3074 -0.4618
18049TIP3    H275639   5.362   3.260   2.591 -1.3270 -2.5109  0.0045
18050TIP3   OH275640   5.294   4.547   5.251 -0.0973  0.4348  0.0664
18050TIP3    H175641   5.315   4.618   5.310  1.7334 -0.7564  0.9450
18050TIP3    H275642   5.356   4.556   5.178 -0.0716 -0.0468  0.0203
18051TIP3   OH275643   5.493   5.997   3.213 -0.0422  0.4328 -0.3831
18051TIP3    H175644   5.464   6.086   3.193  3.2607  2.3651  2.4156
18051TIP3    H275645   5.586   6.006   3.235  0.3484 -3.6869  0.4484
18052TIP3   OH275646   3.542   0.904  16.246  0.3356 -0.2883 -0.0391
18052TIP3    H175647   3.520   0.960  16.172 -1.3088 -2.4840 -1.3335
18052TIP3    H275648   3.465   0.908  16.303  0.9583  0.1661  0.7949
18053TIP3   OH275649   3.512   2.043  16.541  0.2920  0.5904  0.0777
18053TIP3    H175650   3.556   2.073  16.461  0.0366  0.7146 -0.0135
18053TIP3    H275651   3.536   2.107  16.607  1.4296 -0.1122  0.3862
18054TIP3   OH275652   0.050   6.809   4.334 -0.1742 -0.6835 -0.3062
18054TIP3    H175653   0.045   6.737   4.272 -1.1256 -0.2479 -0.7615
18054TIP3    H275654   0.117   6.867   4.299 -0.5019 -0.5843 -0.7651
18055TIP3   OH275655   3.001   1.420  14.633 -0.2952  0.6066 -0.0497
18055TIP3    H175656   3.090   1.453  14.620 -0.7724  1.3025 -1.8462
18055TIP3    H275657   2.946   1.474  14.576 -1.6829 -0.7008 -0.0289
18056TIP3   OH275658   6.233   6.046  11.253 -0.0299  0.2540 -0.4927
18056TIP3    H175659   6.267   5.961  11.226 -0.7429  0.1760 -1.1615
18056TIP3    H275660   6.311   6.097  11.275  0.3631 -1.0791  1.5122
18057TIP3   OH275661   2.045   5.171   2.140  0.7710 -0.2932  0.1441
18057TIP3    H175662   1.968   5.197   2.191  0.0384  0.2553 -1.1936
18057TIP3    H275663   2.115   5.227   2.174  0.5814 -0.7618  1.3394
18058TIP3   OH275664   1.337   5.869   5.407 -0.3841 -0.4092 -0.4966
18058TIP3    H175665   1.312   5.864   5.315 -0.5134 -0.6067 -0.4505
18058TIP3    H275666   1.382   5.953   5.415 -0.8333 -0.1543 -0.6286
18059TIP3   OH275667   5.507   6.028   2.139 -0.1096 -0.1937  0.3207
18059TIP3    H175668   5.460   6.060   2.216 -0.3165 -0.3409  0.2572
18059TIP3    H275669   5.571   6.096   2.120 -1.3542  0.7934 -0.5545
18060TIP3   OH275670   6.016   1.129   2.231  0.0711  0.2419  0.6097
18060TIP3    H175671   5.944   1.183   2.263 -0.3654  1.3801 -2.0142
18060TIP3    H275672   6.079   1.192   2.197  0.1223 -0.8241 -1.4059
18061TIP3   OH275673   5.576   0.046   4.985 -0.4328  0.1847  0.5553
18061TIP3    H175674   5.630  -0.022   4.944  1.2749  0.3209  2.4258
18061TIP3    H275675   5.507  -0.002   5.031  0.8063 -0.3574  1.9306
18062TIP3   OH275676   1.278   6.758  17.206  0.7144 -0.0276  0.1515
18062TIP3    H175677   1.257   6.735  17.116  2.0781  0.0810 -0.2259
18062TIP3    H275678   1.211   6.821  17.232 -0.9811 -1.6891 -0.0100
18063TIP3   OH275679   5.696   1.671   3.305  0.2041  0.0533  0.6939
18063TIP3    H175680   5.663   1.590   3.343 -2.4680  0.5455 -0.3277
18063TIP3    H275681   5.622   1.732   3.309  0.9772  1.3148 -1.6987
18064TIP3   OH275682   6.108   1.412  14.323  0.7117  0.6450  0.3527
18064TIP3    H175683   6.166   1.378  14.254 -1.0136  0.5917 -1.1461
18064TIP3    H275684   6.070   1.492  14.284 -0.4862  0.4745  1.1402
18065TIP3   OH275685   2.557   6.432  13.593  0.0113 -0.5248  0.4716
18065TIP3    H175686   2.613   6.485  13.651 -0.5718 -0.7327  1.2374
18065TIP3    H275687   2.529   6.359  13.648  2.0454 -2.5150 -0.9866
18066TIP3   OH275688   5.758   3.899  16.053  0.3765 -0.0661  0.3757
18066TIP3    H175689   5.818   3.863  15.989  3.3242 -0.3283  3.0388
18066TIP3    H275690   5.756   3.834  16.124 -2.0406  0.5723  0.9999
18067TIP3   OH275691   1.248   6.551  14.923 -0.2718 -0.9159  0.3742
18067TIP3    H175692   1.220   6.611  14.855 -0.9608  0.6907  1.9765
18067TIP3    H275693   1.344   6.552  14.919 -0.3070 -0.5980 -0.3403
18068TIP3   OH275694   3.193   1.240   4.310  0.0699 -0.6589 -0.3667
18068TIP3    H175695   3.124   1.287   4.264 -1.3364 -2.0576  0.1894
18068TIP3    H275696   3.183   1.149   4.281 -0.4004 -1.4598  2.0420
18069TIP3   OH275697   5.942   5.936   1.167 -0.4666  0.6933  0.2322
18069TIP3    H175698   5.857   5.892   1.166 -0.2739  0.0775 -3.6669
18069TIP3    H275699   5.999   5.878   1.217 -1.5209 -0.7840 -0.2012
18070TIP3   OH275700   0.336   6.701   2.258  0.2480 -0.4612 -0.0049
18070TIP3    H175701   0.401   6.645   2.302 -0.0171 -1.5430 -0.9432
18070TIP3    H275702   0.360   6.697   2.165 -0.2368  0.3886 -0.1795
18071TIP3   OH275703   3.815   4.109   3.692 -0.2187 -0.2194 -0.0608
18071TIP3    H175704   3.856   4.038   3.642 -0.6854  0.1402 -0.9679
18071TIP3    H275705   3.739   4.068   3.734 -0.2736 -0.3399 -0.2790
18072TIP3   OH275706   5.843   2.558  11.651  0.8633  0.7673 -0.1542
18072TIP3    H175707   5.874   2.596  11.569 -1.3832  1.0477 -0.9550
18072TIP3    H275708   5.880   2.614  11.719  3.2707  0.1718 -0.8686
18073TIP3   OH275709   3.114   4.435  17.038 -0.1414  0.2068 -0.5146
18073TIP3    H175710   3.072   4.496  17.099 -0.0089 -1.4274  1.2863
18073TIP3    H275711   3.074   4.350  17.057  1.9656 -0.8942 -0.6861
18074TIP3   OH275712   6.659   4.389   2.982  0.1042 -0.1662  0.3096
18074TIP3    H175713   6.735   4.343   3.016 -0.4620 -0.3042  1.4366
18074TIP3    H275714   6.587   4.363   3.040 -0.7406  0.2109 -0.5304
18075TIP3   OH275715   4.102   1.266   0.486 -0.2379 -0.1167 -0.0478
18075TIP3    H175716   4.176   1.206   0.486 -0.4851 -0.4438 -0.7515
18075TIP3    H275717   4.141   1.353   0.490  0.0876 -0.3236  2.0588
18076TIP3   OH275718   1.480   3.841   3.044  0.6828 -0.3658  0.0870
18076TIP3    H175719   1.508   3.835   2.952  0.7197  0.8803 -0.0036
18076TIP3    H275720   1.557   3.877   3.089  0.2857  0.0941  0.3993
18077TIP3   OH275721   6.192   6.416   5.989 -0.1250 -0.4121  0.0945
18077TIP3    H175722   6.137   6.494   5.990 -0.3288 -0.5585  0.4008
18077TIP3    H275723   6.210   6.397   6.081 -0.3846 -0.9427  0.0400
18078TIP3   OH275724   2.337   5.841  12.236  0.2864 -0.4204  0.1615
18078TIP3    H175725   2.344   5.766  12.295 -0.9129 -0.0136  0.8644
18078TIP3    H275726   2.317   5.803  12.150  1.1484 -0.9670  0.1907
18079TIP3   OH275727   6.135   0.668   2.624  0.1429 -0.0097  0.0418
18079TIP3    H175728   6.093   0.730   2.565  1.5067  0.3404 -0.5952
18079TIP3    H275729   6.225   0.660   2.591  0.4585 -1.0767  1.0841
18080TIP3   OH275730   0.194   0.850  15.241 -0.3392 -0.1639 -0.5636
18080TIP3    H175731   0.233   0.819  15.322 -0.6797  0.4263 -0.1644
18080TIP3    H275732   0.149   0.931  15.265  1.5407  1.3519 -1.7548
18081TIP3   OH275733   0.258   5.980   3.759 -0.0453 -0.8695 -0.6507
18081TIP3    H175734   0.242   6.012   3.670 -1.6578  0.0920 -0.0666
18081TIP3    H275735   0.298   6.054   3.804  1.0174 -1.4427 -0.6144
18082TIP3   OH275736   1.296   0.692  11.624 -0.1267 -0.1069  0.1469
18082TIP3    H175737   1.302   0.784  11.598 -0.0831  0.2570  1.3705
18082TIP3    H275738   1.202   0.674  11.625 -0.1109 -1.0087 -3.0391
18083TIP3   OH275739   6.299   5.277   5.177 -0.2040  0.5162  0.0561
18083TIP3    H175740   6.261   5.338   5.240 -1.1814  0.0099 -0.0344
18083TIP3    H275741   6.262   5.302   5.092  0.3651  0.5874 -0.1804
18084TIP3   OH275742   4.030   4.757   2.750 -0.4061  0.3464 -0.1538
18084TIP3    H175743   4.048   4.818   2.822 -1.6838  2.7244 -1.7187
18084TIP3    H275744   3.939   4.730   2.764  0.0851 -1.1295  0.4061
18085TIP3   OH275745   6.191   6.800   1.281 -0.2368 -0.2913  0.2008
18085TIP3    H175746   6.189   6.737   1.353  0.4897 -0.2804  0.2374
18085TIP3    H275747   6.126   6.867   1.306  0.4652  0.0457  1.1658
18086TIP3   OH275748   0.551   0.861   2.547 -0.5308 -0.2282 -0.0103
18086TIP3    H175749   0.608   0.835   2.619  0.7581 -0.3033 -1.0323
18086TIP3    H275750   0.500   0.782   2.527 -3.9395  0.7727  3.3961
18087TIP3   OH275751   0.782   4.934   2.376 -0.0456  0.4329  0.0081
18087TIP3    H175752   0.777   4.890   2.461 -1.3044  0.3085 -0.1138
18087TIP3    H275753   0.694   4.925   2.339  0.5731  0.1937 -1.4594
18088TIP3   OH275754   1.865   0.280   4.125  0.3673 -0.4338 -0.1728
18088TIP3    H175755   1.933   0.214   4.139  1.6615  0.8374 -0.2229
18088TIP3    H275756   1.908   0.363   4.145 -1.8001  0.2970  1.9968
18089TIP3   OH275757   6.367   6.106   5.616  0.5115 -0.4158 -0.5468
18089TIP3    H175758   6.389   6.155   5.695 -0.2618 -0.7917 -0.0819
18089TIP3    H275759   6.410   6.021   5.628 -1.0629 -1.1404  0.3492
18090TIP3   OH275760   1.621   6.205   1.591 -0.0216  0.1308  0.3874
18090TIP3    H175761   1.530   6.234   1.604  0.0152 -0.2670  1.6306
18090TIP3    H275762   1.626   6.187   1.497 -1.1862  0.3129  0.2652
18091TIP3   OH275763   4.589   2.108  15.570 -0.0873 -0.0553 -0.1022
18091TIP3    H175764   4.645   2.179  15.602 -0.2013  0.6767 -1.4350
18091TIP3    H275765   4.516   2.106  15.632  0.6027  0.0650  0.7318
18092TIP3   OH275766   5.025   6.671  13.093 -0.3487 -0.1113 -0.0994
18092TIP3    H175767   5.055   6.750  13.048 -1.9474  0.8076  0.3592
18092TIP3    H275768   5.066   6.677  13.180 -0.2372  0.0662 -0.1622
18093TIP3   OH275769   2.826   0.063  15.485  0.0259  0.6077  0.1107
18093TIP3    H175770   2.822  -0.029  15.512 -1.4594  0.6204 -0.0022
18093TIP3    H275771   2.886   0.063  15.411  1.4140  0.0240  1.1712
18094TIP3   OH275772   2.481   5.699   3.090 -0.0786 -0.3059  0.4452
18094TIP3    H175773   2.391   5.670   3.103 -0.8184  1.6321  0.0685
18094TIP3    H275774   2.476   5.795   3.094  1.8047 -0.1115 -0.6198
18095TIP3   OH275775   0.979   2.213  14.195 -0.8833  0.0523 -0.1561
18095TIP3    H175776   0.953   2.127  14.160  0.6388 -1.0124  1.1803
18095TIP3    H275777   0.920   2.227  14.269 -0.6971 -0.1555  0.0316
18096TIP3   OH275778   2.216   1.703   2.012 -0.5254  0.2819  0.3092
18096TIP3    H175779   2.274   1.712   1.937 -1.5874  0.3039 -0.5263
18096TIP3    H275780   2.133   1.675   1.975 -1.3865  1.3720  1.3665
18097TIP3   OH275781   0.801   1.531   1.721 -0.1019  0.0246 -0.2477
18097TIP3    H175782   0.853   1.478   1.781 -0.6713 -0.1461  0.1083
18097TIP3    H275783   0.742   1.469   1.678 -1.9029  0.5208  1.3596
18098TIP3   OH275784   2.818   1.626  14.788 -0.1042  0.2131  0.7618
18098TIP3    H175785   2.895   1.642  14.733 -0.8612 -1.2504 -0.8027
18098TIP3    H275786   2.809   1.530  14.788 -0.3299  0.1735  3.2092
18099TIP3   OH275787   2.242   4.528   5.856  0.8880 -0.8103  0.4737
18099TIP3    H175788   2.213   4.438   5.843  2.5856 -1.2959 -0.3336
18099TIP3    H275789   2.288   4.550   5.775 -0.4441  1.2051  0.1999
18100TIP3   OH275790   2.743   5.266  13.041  0.3704 -0.7298  0.1791
18100TIP3    H175791   2.690   5.189  13.022 -0.4801  0.2951 -1.8709
18100TIP3    H275792   2.761   5.306  12.956  1.8602  0.6590  1.0702
18101TIP3   OH275793   1.557   3.896  11.205 -0.1233  0.2003 -0.1542
18101TIP3    H175794   1.606   3.826  11.161 -1.2136 -0.7631  0.1037
18101TIP3    H275795   1.567   3.972  11.147  1.3418 -0.0644 -0.2842
18102TIP3   OH275796   5.646   6.642  11.266 -0.0267  0.2340 -0.4838
18102TIP3    H175797   5.681   6.703  11.330  0.7415  0.7557 -1.3791
18102TIP3    H275798   5.553   6.665  11.259 -0.0388  0.4092  0.1507
18103TIP3   OH275799   0.269   2.144  10.700  0.2611  0.2639 -0.2691
18103TIP3    H175800   0.351   2.102  10.728  1.0823  2.5058  0.9920
18103TIP3    H275801   0.212   2.136  10.776 -0.8642 -1.5230 -1.2374
18104TIP3   OH275802   4.855   5.005  11.921  0.5527  0.4107  0.1409
18104TIP3    H175803   4.879   5.066  11.990  3.1733 -0.6284  0.2759
18104TIP3    H275804   4.852   5.059  11.841 -0.9602  1.3253  0.7668
18105TIP3   OH275805   4.463   5.834  16.357  0.5510 -0.2503 -0.7398
18105TIP3    H175806   4.551   5.860  16.386  0.8724 -2.1643  0.1319
18105TIP3    H275807   4.419   5.917  16.337  1.5119  0.9748  1.7850
18106TIP3   OH275808   1.208   2.947  12.155  0.3134  0.0841 -0.0271
18106TIP3    H175809   1.273   2.984  12.214  1.0737  0.1641 -0.8893
18106TIP3    H275810   1.150   3.020  12.133  0.9028  0.4126 -0.5250
18107TIP3   OH275811   6.822   0.205   2.635  0.0827 -0.1170  0.0090
18107TIP3    H175812   6.751   0.239   2.581  0.0482  0.8190  0.6137
18107TIP3    H275813   6.881   0.279   2.646  0.1775 -0.3361  1.0857
18108TIP3   OH275814   5.221   3.709   4.590  0.3252  0.1051 -0.2540
18108TIP3    H175815   5.226   3.763   4.668  2.3928  0.8381 -0.8308
18108TIP3    H275816   5.236   3.620   4.621 -0.8320  0.1341  0.4158
18109TIP3   OH275817   0.640   0.257  16.984  0.1140  0.2839 -0.6202
18109TIP3    H175818   0.664   0.342  16.948  0.3578 -0.0714 -1.3177
18109TIP3    H275819   0.588   0.277  17.062  0.0622  1.0691 -0.8534
18110TIP3   OH275820   0.004   3.056  16.611  0.3799  0.8305  0.0983
18110TIP3    H175821  -0.003   2.960  16.612 -0.2393  0.8634  1.1000
18110TIP3    H275822  -0.065   3.085  16.553  1.0412  0.6539 -0.7966
18111TIP3   OH275823   0.827   1.481  15.066  0.3302  0.9578  0.2568
18111TIP3    H175824   0.873   1.532  15.133  2.7597 -0.0359 -0.5444
18111TIP3    H275825   0.866   1.507  14.984 -2.1216  1.6349 -0.7892
18112TIP3   OH275826   5.349   1.781  11.873  0.2797  0.3134  0.0677
18112TIP3    H175827   5.317   1.739  11.794 -0.1661  0.7792 -0.0056
18112TIP3    H275828   5.272   1.784  11.931  0.7524 -0.6147  0.7803
18113TIP3   OH275829   5.590   1.233  13.487 -0.4122 -0.0318 -0.1015
18113TIP3    H175830   5.616   1.191  13.569  1.1542  0.9421 -0.0463
18113TIP3    H275831   5.507   1.277  13.507 -0.0821  0.1408  0.9563
18114TIP3   OH275832   5.475   6.203  14.610  0.4809  0.5523  0.1509
18114TIP3    H175833   5.424   6.204  14.529  0.8353  0.4879 -0.0736
18114TIP3    H275834   5.509   6.114  14.616  0.0241  0.3989  0.6487
18115TIP3   OH275835   0.752   0.901   1.566  0.2888  0.3074 -0.0109
18115TIP3    H175836   0.721   0.878   1.654  0.2235 -0.3419 -0.1917
18115TIP3    H275837   0.837   0.941   1.580  1.1384 -1.4797  0.2495
18116TIP3   OH275838   4.679   2.167  14.603 -0.1905  0.7794  0.2389
18116TIP3    H175839   4.639   2.167  14.690 -0.6445 -1.5409  0.0851
18116TIP3    H275840   4.772   2.152  14.619 -0.3632 -0.2812  0.3333
18117TIP3   OH275841   3.837   3.725  16.258 -0.1306 -0.5378  0.1374
18117TIP3    H175842   3.797   3.690  16.338 -0.3594 -1.0816 -0.2095
18117TIP3    H275843   3.849   3.818  16.276 -3.5990  0.1859 -0.5040
18118TIP3   OH275844   2.153   3.577  13.828  0.0312  0.1126 -0.2921
18118TIP3    H175845   2.155   3.508  13.762  0.3674  1.2464 -1.5147
18118TIP3    H275846   2.088   3.547  13.891 -0.4884 -0.8966 -1.2619
18119TIP3   OH275847   0.278   3.244  11.975  0.0975  0.0955  0.4263
18119TIP3    H175848   0.278   3.238  12.071 -0.9716 -0.0781  0.4341
18119TIP3    H275849   0.254   3.155  11.946 -1.8307  0.6656  0.0949
18120TIP3   OH275850   1.649   1.351  14.175  0.2155 -0.3546 -1.0572
18120TIP3    H175851   1.729   1.360  14.227 -0.0999 -2.2609 -0.1575
18120TIP3    H275852   1.580   1.338  14.239 -0.7223  0.4750 -1.8612
18121TIP3   OH275853   2.101   5.123   1.578 -0.5623  0.3660  0.3125
18121TIP3    H175854   2.018   5.111   1.625  0.0904 -1.9574  0.9693
18121TIP3    H275855   2.164   5.147   1.646 -0.1663 -0.3770  0.2094
18122TIP3   OH275856   1.918   3.381  13.087  0.5045 -0.0259  0.0131
18122TIP3    H175857   2.013   3.397  13.084  0.8978 -1.9284 -3.5686
18122TIP3    H275858   1.909   3.301  13.139  0.9198  0.0665  0.2313
18123TIP3   OH275859   3.085   0.976   2.578 -0.3666 -0.0934 -0.3207
18123TIP3    H175860   3.136   1.029   2.517 -1.6035  2.2181  0.5456
18123TIP3    H275861   2.995   0.985   2.547 -0.8233 -0.1476  0.9666
18124TIP3   OH275862   5.185   0.439   0.363 -0.1172  0.1973 -0.0621
18124TIP3    H175863   5.181   0.525   0.404 -1.2946 -0.1631  0.6450
18124TIP3    H275864   5.176   0.455   0.270 -2.5679  0.7265  0.2115
18125TIP3   OH275865   5.156   2.346  13.711 -0.3212  0.2862 -0.3981
18125TIP3    H175866   5.092   2.277  13.698 -0.7554  0.2450  1.6470
18125TIP3    H275867   5.225   2.327  13.647  0.0770 -2.6622  0.7409
18126TIP3   OH275868   6.742   4.133  11.632  0.4102  0.0091 -0.3158
18126TIP3    H175869   6.798   4.181  11.571  2.4789  0.0984  1.5593
18126TIP3    H275870   6.754   4.041  11.607  1.6927 -0.0012  0.2583
18127TIP3   OH275871   6.471   4.103   0.262  0.5627  0.2592  0.2166
18127TIP3    H175872   6.457   4.164   0.335 -1.0354  0.1885  0.0048
18127TIP3    H275873   6.494   4.020   0.305  0.5334  0.4438  0.5991
18128TIP3   OH275874   1.435   1.292  11.378  0.2809 -0.1772 -0.2931
18128TIP3    H175875   1.510   1.345  11.351  2.4297 -0.6304  3.8718
18128TIP3    H275876   1.471   1.206  11.397 -1.3496 -0.5660  1.3666
18129TIP3   OH275877   1.502   4.571   4.031  0.0793 -0.3458 -0.7192
18129TIP3    H175878   1.489   4.487   4.075  2.1292 -0.4979 -0.3315
18129TIP3    H275879   1.413   4.604   4.016 -0.7317 -1.6707  0.8597
18130TIP3   OH275880   2.748   1.553   1.927  0.4321  0.7801 -0.0282
18130TIP3    H175881   2.807   1.600   1.986  0.8911  2.4996 -1.7324
18130TIP3    H275882   2.782   1.573   1.839  1.2465 -3.6103 -0.9128
18131TIP3   OH275883   2.543   0.610  15.982  0.2301 -0.5784 -0.2241
18131TIP3    H175884   2.461   0.580  16.022 -0.4370 -0.4336 -1.4240
18131TIP3    H275885   2.596   0.531  15.974  0.2290 -0.6678  0.6016
18132TIP3   OH275886   4.259   2.240  10.856  0.5799  0.0942  0.0422
18132TIP3    H175887   4.256   2.229  10.761 -2.6806  2.7245 -0.3664
18132TIP3    H275888   4.347   2.271  10.875  0.7510  1.3935 -2.4789
18133TIP3   OH275889   6.044   2.500   2.712 -0.1479 -0.2396 -0.2382
18133TIP3    H175890   5.960   2.481   2.671 -0.5898  0.0392  0.4961
18133TIP3    H275891   6.023   2.566   2.779  0.3009 -1.6084  1.3203
18134TIP3   OH275892   0.493   0.475  14.718  0.0070 -0.3446  0.5024
18134TIP3    H175893   0.569   0.525  14.688 -0.1182 -0.3652  0.1381
18134TIP3    H275894   0.528   0.390  14.744  0.0875 -0.4218  0.1526
18135TIP3   OH275895   3.598   6.771   6.106  0.6005 -0.4165 -0.1406
18135TIP3    H175896   3.655   6.728   6.042 -1.6448 -1.1628 -1.7682
18135TIP3    H275897   3.629   6.862   6.109  0.6402 -0.3012 -2.5076
18136TIP3   OH275898   1.489   0.170   0.181  0.5548  0.4213  0.0579
18136TIP3    H175899   1.570   0.208   0.215  0.4690 -0.7597  1.7342
18136TIP3    H275900   1.516   0.084   0.148 -0.0282 -0.1096  0.9157
18137TIP3   OH275901   0.728   3.238   3.800 -0.0285 -0.0580 -0.3709
18137TIP3    H175902   0.651   3.234   3.743 -0.9975  2.4771  0.5560
18137TIP3    H275903   0.699   3.199   3.882  0.0550 -0.1841 -0.4024
18138TIP3   OH275904   3.438   4.348   1.688  0.1941  0.0320 -0.2822
18138TIP3    H175905   3.443   4.395   1.605 -1.7663 -0.3122 -0.6496
18138TIP3    H275906   3.456   4.257   1.664 -0.8019 -0.1389 -0.4429
18139TIP3   OH275907   2.174   4.703  14.377 -0.1730 -0.1164 -0.3927
18139TIP3    H175908   2.124   4.776  14.415 -1.8414 -1.2944 -0.1941
18139TIP3    H275909   2.250   4.694  14.434  0.2711  1.6733 -0.6278
18140TIP3   OH275910   2.967   0.290  12.077 -0.0457 -0.0988 -0.0195
18140TIP3    H175911   2.877   0.294  12.110  0.0640  0.6059  0.2063
18140TIP3    H275912   3.001   0.379  12.088  1.0421 -0.6061  0.9330
18141TIP3   OH275913   3.980   6.639   1.900 -0.1822  0.4656 -0.0417
18141TIP3    H175914   3.956   6.665   1.989 -1.1901 -0.3838 -0.0460
18141TIP3    H275915   3.954   6.713   1.846 -1.9175  0.0047  0.0892
18142TIP3   OH275916   4.072   0.819   5.160  0.3525  0.3614 -0.1684
18142TIP3    H175917   4.093   0.736   5.204  2.2372 -0.1531 -1.9075
18142TIP3    H275918   3.983   0.805   5.126  0.0042 -0.3042  0.9341
18143TIP3   OH275919   4.066   1.566  11.182 -0.3195  0.1823 -0.2309
18143TIP3    H175920   3.989   1.622  11.179 -0.7653 -0.3917  0.2155
18143TIP3    H275921   4.067   1.521  11.098 -1.7372 -1.4335  0.5506
18144TIP3   OH275922   4.879   1.529   4.660  0.3176 -0.0134 -0.1894
18144TIP3    H175923   4.903   1.563   4.574 -1.4311  0.9581 -0.3541
18144TIP3    H275924   4.900   1.436   4.657 -0.0101 -0.0581 -1.7863
18145TIP3   OH275925   2.361   0.792  13.574 -0.4358  0.1154 -0.2645
18145TIP3    H175926   2.382   0.751  13.490  1.3830  0.4517  0.0027
18145TIP3    H275927   2.283   0.845  13.555  0.5396  1.0092 -2.0169
18146TIP3   OH275928   0.426   1.857   0.344  0.8426  0.1131 -0.1305
18146TIP3    H175929   0.424   1.871   0.439 -0.4904  1.4508 -0.3054
18146TIP3    H275930   0.500   1.799   0.329  1.9727  1.0370  1.5859
18147TIP3   OH275931   2.022   3.352   5.683 -0.5665  0.3645  0.5627
18147TIP3    H175932   2.055   3.290   5.748  0.6226 -0.2333 -0.5694
18147TIP3    H275933   2.073   3.334   5.604 -2.2792  0.7406 -0.7074
18148TIP3   OH275934   6.326   0.548   0.723 -0.0748  0.3556 -0.1165
18148TIP3    H175935   6.345   0.637   0.693  1.0906  0.4967  0.9412
18148TIP3    H275936   6.270   0.560   0.800  2.0584  0.3789  1.5509
18149TIP3   OH275937   3.085   6.334  15.871 -0.4301 -0.3282  0.1336
18149TIP3    H175938   3.053   6.335  15.781 -1.3704  0.7242  0.4522
18149TIP3    H275939   3.180   6.337  15.863 -0.3768 -2.4675 -0.8350
18150TIP3   OH275940   3.720   1.996  14.558  0.1093  0.0035  0.0902
18150TIP3    H175941   3.753   1.945  14.632  0.9538  1.0879  0.4878
18150TIP3    H275942   3.680   2.074  14.597  0.3092  0.4526 -0.5700
18151TIP3   OH275943   6.300   4.519  16.877 -0.5487  0.1491  0.5103
18151TIP3    H175944   6.326   4.565  16.956 -1.5190  0.0984  0.8587
18151TIP3    H275945   6.383   4.500  16.832 -0.0841  1.3313  0.8525
18152TIP3   OH275946   6.785   5.568   6.449  0.2308 -0.6065  0.0631
18152TIP3    H175947   6.790   5.662   6.468 -0.4607 -0.7210  0.8883
18152TIP3    H275948   6.868   5.547   6.406  0.1612  0.4921 -0.6434
18153TIP3   OH275949   1.944   1.675  10.675 -0.2301 -0.8509 -0.5725
18153TIP3    H175950   1.852   1.687  10.701 -0.0860  0.0798 -0.4258
18153TIP3    H275951   1.976   1.607  10.733 -0.8024 -1.1055 -0.5432
18154TIP3   OH275952   4.121   1.918  10.823 -0.1132 -0.4609  0.3490
18154TIP3    H175953   4.043   1.874  10.788 -0.9543  0.3823  1.0888
18154TIP3    H275954   4.176   1.935  10.747 -0.7724 -0.8376 -0.2220
18155TIP3   OH275955   2.434   5.672  17.051  0.0553  0.5964  0.7556
18155TIP3    H175956   2.408   5.633  17.135 -0.7507  1.0469  0.7308
18155TIP3    H275957   2.358   5.724  17.025 -0.4677 -1.0447 -1.1974
18156TIP3   OH275958   6.693   5.099   0.699  0.1602  0.7766 -0.2239
18156TIP3    H175959   6.730   5.184   0.675 -0.8438  1.0887 -0.7181
18156TIP3    H275960   6.687   5.102   0.794  1.1828  0.8051 -0.1538
18157TIP3   OH275961   3.672   4.116  13.292 -0.0006 -0.1234  0.1581
18157TIP3    H175962   3.737   4.131  13.223  0.7331 -0.7226  0.7038
18157TIP3    H275963   3.596   4.081  13.246 -0.1494  1.0729 -0.5573
18158TIP3   OH275964   4.048   2.705   3.059  0.4742 -0.0366  0.2484
18158TIP3    H175965   3.961   2.718   3.022  1.3854  0.9356 -1.7039
18158TIP3    H275966   4.058   2.776   3.123  0.5841  1.1764 -1.0642
18159TIP3   OH275967   5.629   1.093   3.837 -0.2922  0.0324  0.4547
18159TIP3    H175968   5.612   1.100   3.930 -0.2136  0.6011  0.4304
18159TIP3    H275969   5.619   1.182   3.804 -1.3993 -0.3372 -0.2702
18160TIP3   OH275970   4.311   6.618  13.578  0.1427  0.7129  0.2735
18160TIP3    H175971   4.249   6.687  13.604 -1.1506 -0.0361 -0.6902
18160TIP3    H275972   4.289   6.544  13.634 -1.0756 -0.1318 -1.2424
18161TIP3   OH275973   2.772   0.831   1.046 -0.9068  0.4147  0.4229
18161TIP3    H175974   2.847   0.836   0.986 -0.2539  2.9038  1.3242
18161TIP3    H275975   2.779   0.744   1.085 -0.5019 -0.7264 -1.9730
18162TIP3   OH275976   0.542   2.818  13.011 -0.1216  0.5829  0.2623
18162TIP3    H175977   0.543   2.912  13.028 -1.8538  0.2622  2.7470
18162TIP3    H275978   0.449   2.797  13.000 -0.0586 -1.1823  2.4388
18163TIP3   OH275979   1.855   6.265   5.228  0.5879 -0.1324  0.3196
18163TIP3    H175980   1.882   6.256   5.319  0.9104 -1.3047  0.1256
18163TIP3    H275981   1.937   6.269   5.179  0.4215  0.7900  0.0897
18164TIP3   OH275982   5.810   0.272  13.930  0.0820 -0.0879  0.5451
18164TIP3    H175983   5.862   0.334  13.981 -0.8864  1.6455 -0.4605
18164TIP3    H275984   5.853   0.269  13.845 -0.3799 -0.1054  0.3097
18165TIP3   OH275985   2.688   4.665   4.698  0.5359  0.0891  0.1088
18165TIP3    H175986   2.704   4.700   4.786 -2.8997  3.1486 -0.2152
18165TIP3    H275987   2.734   4.725   4.639  1.7707 -1.2038 -0.2895
18166TIP3   OH275988   2.611   2.098   6.143  0.2449  0.2906  0.2610
18166TIP3    H175989   2.652   2.133   6.063  0.6819 -1.6340 -0.4110
18166TIP3    H275990   2.683   2.056   6.190 -0.4987 -1.0922  0.2234
18167TIP3   OH275991   5.108   3.458   3.993  0.1029  0.2345  0.6168
18167TIP3    H175992   5.164   3.414   3.929  0.0741 -0.7288  1.2456
18167TIP3    H275993   5.053   3.516   3.940 -1.7293 -2.4124 -0.5738
18168TIP3   OH275994   1.863   5.590  15.282 -0.0102  0.3701 -0.0024
18168TIP3    H175995   1.846   5.645  15.358 -0.7963  1.1808 -0.7436
18168TIP3    H275996   1.827   5.639  15.208  0.7208 -0.4075 -0.8983
18169TIP3   OH275997   4.718   1.469   1.042 -0.2516 -0.4711  0.4087
18169TIP3    H175998   4.662   1.519   1.102  1.0644  3.9411 -1.6106
18169TIP3    H275999   4.805   1.470   1.084 -0.0811 -0.5085  0.0606
18170TIP3   OH276000   1.494   1.361   4.794 -0.0706 -0.5768  0.0173
18170TIP3    H176001   1.462   1.416   4.723 -0.6803  0.1745  0.8445
18170TIP3    H276002   1.417   1.313   4.825 -0.2120  0.4002  1.2840
18171TIP3   OH276003   3.855   3.531   3.943 -0.1708 -0.4799  0.2113
18171TIP3    H176004   3.858   3.627   3.940  0.4298 -0.5145 -0.4080
18171TIP3    H276005   3.781   3.512   4.001 -2.7572  0.3145 -2.5486
18172TIP3   OH276006   0.900   0.578   1.954 -0.2136  0.1240 -0.2208
18172TIP3    H176007   0.966   0.575   1.885 -0.3537 -0.0197 -0.3465
18172TIP3    H276008   0.818   0.553   1.911 -1.0399  3.4724 -0.8730
18173TIP3   OH276009   5.962   1.706  12.921 -0.1643 -0.2756 -0.5274
18173TIP3    H176010   5.985   1.794  12.893  1.8558 -0.6806 -0.2687
18173TIP3    H276011   5.885   1.718  12.978 -0.4648  1.1948 -1.2082
18174TIP3   OH276012   1.408   5.482  17.195 -0.7132 -0.2419 -0.8068
18174TIP3    H176013   1.351   5.453  17.266 -1.8268  0.6351 -1.3122
18174TIP3    H276014   1.480   5.528  17.239 -0.8082 -0.6554 -0.2074
18175TIP3   OH276015   1.436   1.569  16.936  0.0648 -0.0685  0.2442
18175TIP3    H176016   1.369   1.629  16.901 -1.5063 -0.9191  1.6752
18175TIP3    H276017   1.421   1.487  16.890 -0.4501 -0.5054  1.1735
18176TIP3   OH276018   4.611   1.067   4.665 -0.2506 -0.5409  0.3808
18176TIP3    H176019   4.549   1.083   4.594 -1.1645  0.7946  1.4294
18176TIP3    H276020   4.680   1.133   4.652  1.3490 -2.3884 -1.1245
18177TIP3   OH276021   1.792   2.268   4.861  0.1959 -0.3423 -0.0137
18177TIP3    H176022   1.879   2.278   4.898 -0.2136 -1.3632  1.3019
18177TIP3    H276023   1.736   2.244   4.935 -0.9617 -0.9037 -1.0180
18178TIP3   OH276024   5.712   0.805   2.562 -0.2407 -0.6313 -0.8995
18178TIP3    H176025   5.751   0.819   2.475 -0.9514  1.0813 -0.9749
18178TIP3    H276026   5.774   0.844   2.623 -1.9217  2.6100 -1.0596
18179TIP3   OH276027   1.870   2.463  14.513  0.3633  0.1078  0.1203
18179TIP3    H176028   1.966   2.455  14.512  0.2746 -1.1270 -1.7875
18179TIP3    H276029   1.854   2.557  14.500  1.2797  0.4282  1.0909
18180TIP3   OH276030   1.015   3.422  15.060 -0.4685 -0.1120  0.2660
18180TIP3    H176031   1.055   3.412  14.974 -1.7097 -2.6834 -0.0920
18180TIP3    H276032   1.051   3.351  15.113 -0.4191  0.8778  1.6203
18181TIP3   OH276033   6.173   6.051  16.805  0.5043 -0.2632  0.0129
18181TIP3    H176034   6.160   6.133  16.852  0.1584  0.1785 -0.8297
18181TIP3    H276035   6.105   5.992  16.839  1.8900 -0.8491  1.9694
18182TIP3   OH276036   6.635   6.617  15.721 -0.0268  0.4000 -0.0646
18182TIP3    H176037   6.613   6.709  15.732 -1.5137 -0.1833  2.5449
18182TIP3    H276038   6.551   6.573  15.706  0.4699 -0.6977  0.2269
18183TIP3   OH276039   1.590   4.446  16.652  0.1608 -0.5220 -0.2532
18183TIP3    H176040   1.658   4.406  16.706  0.6685  0.4473 -0.1598
18183TIP3    H276041   1.569   4.380  16.587 -0.5466 -1.7715  1.1904
18184TIP3   OH276042   4.248   0.743   6.202  0.1111  0.0823  0.5405
18184TIP3    H176043   4.291   0.769   6.283  0.7939 -0.3218  0.3063
18184TIP3    H276044   4.252   0.821   6.147  1.5743 -0.2830  0.0896
18185TIP3   OH276045   1.147   6.555   2.744 -0.6219 -0.2935  0.5643
18185TIP3    H176046   1.176   6.622   2.682 -0.0739 -1.5533 -0.5999
18185TIP3    H276047   1.227   6.523   2.784 -0.9169  0.0270  1.4311
18186TIP3   OH276048   1.160   3.718   5.100 -0.3795  0.6797  0.1552
18186TIP3    H176049   1.108   3.728   5.180  0.5890  1.6471  0.6789
18186TIP3    H276050   1.244   3.759   5.120  0.4949 -0.5725 -0.7845
18187TIP3   OH276051   2.907   6.629   2.592 -0.4906 -0.1775  0.5170
18187TIP3    H176052   2.949   6.581   2.663 -1.1945 -2.4845 -0.5105
18187TIP3    H276053   2.952   6.713   2.589  0.1275 -0.3440  3.1040
18188TIP3   OH276054   3.957   4.360  14.414 -0.0986 -0.2760 -0.2628
18188TIP3    H176055   3.967   4.436  14.471 -1.0184  0.1432 -0.6474
18188TIP3    H276056   3.945   4.398  14.326  2.6941 -0.9017 -1.0240
18189TIP3   OH276057   1.417   4.664   5.568 -0.0273  0.8824 -0.3687
18189TIP3    H176058   1.464   4.747   5.565  3.5614 -0.9232 -0.6527
18189TIP3    H276059   1.374   4.663   5.654 -1.0242  3.3554 -0.7696
18190TIP3   OH276060   5.545   4.577  13.433 -0.0053 -0.7067  0.0801
18190TIP3    H176061   5.539   4.576  13.338  1.4199 -0.3124 -0.0292
18190TIP3    H276062   5.454   4.575  13.463 -0.4584 -2.0491 -1.2674
18191TIP3   OH276063   3.680   2.133   4.092  0.5445  0.2427  0.0034
18191TIP3    H176064   3.633   2.215   4.073 -0.5632 -0.0151  1.5398
18191TIP3    H276065   3.737   2.155   4.166  0.9972 -0.1265 -0.2309
18192TIP3   OH276066   0.400   3.828   5.056 -0.3538 -0.0368 -0.1143
18192TIP3    H176067   0.420   3.826   5.150  0.1311  1.7235 -0.1392
18192TIP3    H276068   0.393   3.736   5.031 -0.2018 -0.5481  1.5833
18193TIP3   OH276069   1.753   6.775  15.620 -0.4333 -0.1912  0.4882
18193TIP3    H176070   1.690   6.764  15.549 -0.4641  0.4943  0.4015
18193TIP3    H276071   1.763   6.870  15.629  0.2395 -0.2883  0.8088
18194TIP3   OH276072   1.344   5.698  10.975  0.3090  0.4700  0.4351
18194TIP3    H176073   1.295   5.760  10.922 -0.5466 -0.2655  0.3572
18194TIP3    H276074   1.370   5.629  10.914 -1.7887 -1.0515  1.1597
18195TIP3   OH276075   1.488   3.943   2.769  0.4733  0.2208  0.5757
18195TIP3    H176076   1.397   3.960   2.793 -0.1645  1.0335 -2.1380
18195TIP3    H276077   1.526   4.029   2.755  1.0180 -0.1628 -0.4329
18196TIP3   OH276078   2.091   5.493  15.808  0.4060  0.0321  0.4114
18196TIP3    H176079   2.074   5.398  15.813 -0.8573  0.2054 -0.1131
18196TIP3    H276080   2.028   5.531  15.869  0.5865  0.5703  0.2629
18197TIP3   OH276081   5.016   6.170   1.406  0.5983  0.2328 -0.2735
18197TIP3    H176082   5.061   6.173   1.322  1.9077  0.1742  0.3838
18197TIP3    H276083   5.087   6.168   1.470 -0.3689  0.6677  0.8466
18198TIP3   OH276084   3.256   1.109  13.271  0.2888  0.2929 -1.0212
18198TIP3    H176085   3.168   1.128  13.239  0.3971  1.8559 -0.4990
18198TIP3    H276086   3.310   1.181  13.237  0.8723  0.6906  0.6152
18199TIP3   OH276087   5.355   5.348  15.703 -0.4419 -0.3891 -0.1790
18199TIP3    H176088   5.313   5.330  15.618 -0.3677  0.1152 -0.3295
18199TIP3    H276089   5.445   5.372  15.680 -0.2761 -0.7711  0.0869
18200TIP3   OH276090   2.119   3.099   2.107 -0.2474 -0.2550 -0.2445
18200TIP3    H176091   2.067   3.161   2.057 -1.3893 -0.0718  1.1042
18200TIP3    H276092   2.077   3.014   2.091  1.2846 -0.7249 -2.0532
18201TIP3   OH276093   6.432   4.899   3.890  0.2379 -0.2813 -0.1922
18201TIP3    H176094   6.428   4.929   3.799 -1.6387  1.3141  0.3273
18201TIP3    H276095   6.517   4.856   3.898  0.6729  0.0137 -2.5445
18202TIP3   OH276096   1.769   1.018   4.561 -0.0590  0.1636 -0.2659
18202TIP3    H176097   1.751   1.110   4.545 -1.0092 -0.4977 -4.0145
18202TIP3    H276098   1.684   0.975   4.555  0.4600 -1.0732  0.6152
18203TIP3   OH276099   5.078   2.038   1.305 -0.3165  0.5679  0.2055
18203TIP3    H176100   4.997   2.084   1.325  0.6724  1.9594  1.2143
18203TIP3    H276101   5.086   1.972   1.374 -0.6562  0.3092  0.0029
18204TIP3   OH276102   1.001   6.109  12.603  0.0725  0.1442  0.6467
18204TIP3    H176103   1.027   6.044  12.537  0.7313  0.2510  0.7916
18204TIP3    H276104   1.036   6.192  12.570  0.6773  0.1507  1.2739
18205TIP3   OH276105   5.357   5.525   2.988  0.0019 -0.0549  0.1902
18205TIP3    H176106   5.421   5.491   2.925  1.0207 -0.6666  1.5251
18205TIP3    H276107   5.339   5.614   2.957  1.1101 -0.0456 -0.4856
18206TIP3   OH276108   0.228   1.273  11.006 -0.3540 -0.1350 -0.1108
18206TIP3    H176109   0.138   1.303  11.018 -0.7471 -0.3174 -2.2812
18206TIP3    H276110   0.281   1.352  11.016 -0.8349  0.1549  0.1869
18207TIP3   OH276111   6.664   3.360   5.844 -0.6030 -0.3739  0.2068
18207TIP3    H176112   6.583   3.336   5.891 -0.1248 -0.2219  1.1209
18207TIP3    H276113   6.657   3.454   5.830 -0.5330 -0.3449  0.3728
18208TIP3   OH276114   1.084   0.089   6.055  0.4892 -0.5246  0.0801
18208TIP3    H176115   1.178   0.084   6.077  0.9829  0.8892 -1.4776
18208TIP3    H276116   1.079   0.062   5.964 -0.8169 -1.6277  0.4423
18209TIP3   OH276117   5.595   0.982  12.568  0.1728 -0.4856 -0.0312
18209TIP3    H176118   5.684   0.949  12.582  0.5794  0.4462 -0.3212
18209TIP3    H276119   5.602   1.035  12.488 -0.4558  0.2793  0.4084
18210TIP3   OH276120   6.037   0.817   3.887 -0.0208  0.0527  0.0978
18210TIP3    H176121   6.062   0.831   3.978 -0.5373 -1.9173  0.5903
18210TIP3    H276122   6.013   0.724   3.882 -1.1181  0.3720 -1.7817
18211TIP3   OH276123   2.242   5.960  11.615 -0.5519 -0.0192 -0.2693
18211TIP3    H176124   2.309   5.900  11.649 -2.1163 -1.8475 -0.2468
18211TIP3    H276125   2.201   5.997  11.692 -1.1058 -0.7109 -0.2215
18212TIP3   OH276126   6.585   1.384  15.305  0.5610 -0.1884  0.1372
18212TIP3    H176127   6.520   1.454  15.303  0.2841 -0.4419  0.2113
18212TIP3    H276128   6.538   1.308  15.340  0.8491 -0.4215  0.0241
18213TIP3   OH276129   6.573   1.398   3.682  0.4767  0.5526  0.6047
18213TIP3    H176130   6.505   1.466   3.678 -0.6355 -0.5126  0.8199
18213TIP3    H276131   6.650   1.443   3.717  0.3371  2.1339 -0.9882
18214TIP3   OH276132   6.069   1.831   2.396 -0.1310 -0.3769  0.2685
18214TIP3    H176133   6.021   1.841   2.478  0.0587 -0.2747  0.3684
18214TIP3    H276134   6.004   1.798   2.334 -0.3795 -0.0415  0.3468
18215TIP3   OH276135   3.278   3.024  12.266 -0.8870  0.0889  0.4363
18215TIP3    H176136   3.335   3.027  12.343 -0.7509  0.8804  0.3045
18215TIP3    H276137   3.321   2.962  12.208 -1.0121 -0.5536  1.0087
18216TIP3   OH276138   1.003   1.732   5.861 -0.2823  0.6514 -0.1829
18216TIP3    H176139   0.921   1.693   5.832  0.2492 -0.5384 -0.1522
18216TIP3    H276140   1.059   1.657   5.882  0.1303  1.4379  1.7254
18217TIP3   OH276141   3.770   0.305   2.519 -0.4223 -0.0012  0.4530
18217TIP3    H176142   3.788   0.211   2.519 -0.5188 -0.0578 -1.4728
18217TIP3    H276143   3.676   0.312   2.508 -0.3954  0.3099  0.3962
18218TIP3   OH276144   5.816   2.512   5.114  0.3528  0.4061 -0.4398
18218TIP3    H176145   5.897   2.562   5.100  0.5682  0.9907  2.3545
18218TIP3    H276146   5.763   2.568   5.171 -1.3922 -0.6222 -0.9784
18219TIP3   OH276147   0.669   2.357  15.981  0.5547  0.4779  0.5849
18219TIP3    H176148   0.604   2.428  15.980 -0.4617 -0.3943 -1.1027
18219TIP3    H276149   0.641   2.301  16.054 -0.7342  0.0320 -0.2129
18220TIP3   OH276150   0.229   4.811  12.774  0.2667  0.0326 -0.1555
18220TIP3    H176151   0.233   4.886  12.714  0.9487 -0.8261 -1.2057
18220TIP3    H276152   0.227   4.852  12.861  2.5711  1.3050 -0.5941
18221TIP3   OH276153   0.448   1.978   5.929 -0.4337 -0.0205 -0.2738
18221TIP3    H176154   0.455   2.034   6.007 -1.2793  0.3140 -0.4323
18221TIP3    H276155   0.497   2.025   5.862 -0.2599  0.0156 -0.1242
18222TIP3   OH276156   5.895   5.949   4.568 -0.3359 -0.4485  1.0868
18222TIP3    H176157   5.881   5.962   4.662 -1.7853 -2.1583  1.1672
18222TIP3    H276158   5.963   5.882   4.563  1.7431  1.5467  0.8030
18223TIP3   OH276159   4.984   4.431   3.023  0.3558 -0.0676 -0.9356
18223TIP3    H176160   5.006   4.441   3.116  0.1429 -0.6841 -0.8126
18223TIP3    H276161   4.913   4.493   3.008  0.2569 -0.1081 -0.6379
18224TIP3   OH276162   2.633   4.837   4.306 -0.2445  0.4810  0.1968
18224TIP3    H176163   2.699   4.843   4.236 -0.5952 -0.8671 -0.2803
18224TIP3    H276164   2.684   4.823   4.385  0.1259  1.4262  0.1462
18225TIP3   OH276165   1.592   6.404  15.303  0.1472  0.0451  0.4678
18225TIP3    H176166   1.655   6.472  15.326 -0.8654  1.6076 -1.1445
18225TIP3    H276167   1.509   6.434  15.340 -0.2567 -0.4790  0.0062
18226TIP3   OH276168   6.505   5.871   2.858  1.0379  0.5493 -0.0145
18226TIP3    H176169   6.427   5.824   2.831  1.1396  0.7148 -0.5978
18226TIP3    H276170   6.480   5.963   2.858  0.7715  0.5033  1.3471
18227TIP3   OH276171   3.234   6.804   1.912 -0.0404  0.1812 -0.6361
18227TIP3    H176172   3.310   6.808   1.970 -0.9430 -0.5589  0.6539
18227TIP3    H276173   3.186   6.885   1.931 -1.0858 -0.7243  0.7822
18228TIP3   OH276174   5.892   6.737   5.421  0.4306  0.1501 -0.5685
18228TIP3    H176175   5.973   6.687   5.428  0.3876  0.1417 -0.0878
18228TIP3    H276176   5.914   6.824   5.453  0.7978  0.8013 -2.5024
18229TIP3   OH276177   1.094   2.208   6.771 -0.1566 -0.2928 -0.3677
18229TIP3    H176178   1.064   2.298   6.778 -1.6183 -0.8860  3.3060
18229TIP3    H276179   1.187   2.215   6.750 -0.6965  1.9096 -2.4825
18230TIP3   OH276180   6.744   1.896   0.463  0.5345  0.2094  0.5085
18230TIP3    H176181   6.813   1.960   0.479  0.3595  0.2379  1.1600
18230TIP3    H276182   6.723   1.907   0.370  0.9868  0.6169  0.4506
18231TIP3   OH276183   2.452   4.884  15.991 -0.7272 -0.2548 -0.6636
18231TIP3    H176184   2.374   4.833  16.010 -1.2847 -0.7877 -3.8763
18231TIP3    H276185   2.524   4.831  16.025 -1.4096 -2.5146 -2.4639
18232TIP3   OH276186   1.260   5.302  11.507  0.0479 -0.3622 -0.3765
18232TIP3    H176187   1.233   5.286  11.597 -0.5290 -2.4125 -0.8754
18232TIP3    H276188   1.267   5.216  11.467  2.6821  0.3212 -1.6585
18233TIP3   OH276189   1.444   3.248  11.180  0.2543 -0.3664  0.3007
18233TIP3    H176190   1.467   3.203  11.261 -0.7905 -0.6160  0.4792
18233TIP3    H276191   1.505   3.322  11.175  1.6412 -1.4799  0.2721
18234TIP3   OH276192   4.387   0.948   3.084 -0.2774 -0.1324  0.1344
18234TIP3    H176193   4.478   0.972   3.065 -0.6526  0.9895 -0.3253
18234TIP3    H276194   4.371   0.870   3.031  0.1310  0.2301 -0.5365
18235TIP3   OH276195   5.217   4.994   0.892  0.4253 -0.3374  0.2318
18235TIP3    H176196   5.279   4.969   0.823  1.2895 -0.5464  1.0678
18235TIP3    H276197   5.143   5.033   0.844  0.9344 -0.6169 -0.8188
18236TIP3   OH276198   3.483   1.298  13.355 -0.4069  0.0163  0.5489
18236TIP3    H176199   3.533   1.228  13.396  1.1940  1.0913  0.5165
18236TIP3    H276200   3.428   1.333  13.426  0.0186 -0.1836  0.9765
18237TIP3   OH276201   2.523   4.367  12.445 -0.8447  0.1116 -0.4218
18237TIP3    H176202   2.565   4.282  12.433 -0.5248 -0.1600  2.0102
18237TIP3    H276203   2.432   4.353  12.421 -0.5086 -0.5359 -1.3543
18238TIP3   OH276204   6.724   4.122   1.509 -0.1744  0.0062 -0.2474
18238TIP3    H176205   6.647   4.175   1.532  1.3463  3.1285 -1.7784
18238TIP3    H276206   6.690   4.056   1.449 -2.0252 -0.3695  1.1032
18239TIP3   OH276207   6.668   1.162  15.102  0.6820  0.2678  0.2701
18239TIP3    H176208   6.702   1.249  15.120 -0.7519  1.0304 -0.4963
18239TIP3    H276209   6.635   1.167  15.012  0.5646 -1.0670  0.2062
18240TIP3   OH276210   1.882   0.495  14.168 -0.5270 -0.6608  0.2986
18240TIP3    H176211   1.811   0.516  14.228 -1.2335 -0.7159 -0.5099
18240TIP3    H276212   1.895   0.575  14.117 -1.5440 -1.3337 -1.0832
18241TIP3   OH276213   4.261   0.092  13.678 -0.2703 -0.1333  0.1899
18241TIP3    H176214   4.216   0.150  13.738  0.2192  1.0857 -0.5931
18241TIP3    H276215   4.210   0.095  13.597  1.4582  1.7492 -0.9147
18242TIP3   OH276216   4.427   5.460   2.377  0.2172 -0.2628 -0.1633
18242TIP3    H176217   4.364   5.422   2.316 -0.3920  2.3891 -1.3605
18242TIP3    H276218   4.442   5.392   2.443 -1.6139 -2.0520 -1.4804
18243TIP3   OH276219   0.325   0.328  16.967 -0.0656  0.1187  0.4123
18243TIP3    H176220   0.239   0.287  16.974  0.1373  0.0248  3.5264
18243TIP3    H276221   0.311   0.418  16.996  0.7420  0.3608  0.0850
18244TIP3   OH276222   4.982   3.953   4.483  0.6232  0.3166  0.0980
18244TIP3    H176223   4.915   3.988   4.542  0.4070  2.3869 -1.2746
18244TIP3    H276224   5.054   4.015   4.488  2.2907 -1.5741  1.1104
18245TIP3   OH276225   4.944   0.223   1.883 -0.1715 -0.3169  0.1229
18245TIP3    H176226   4.969   0.155   1.820 -0.8811 -1.8338  1.4154
18245TIP3    H276227   4.884   0.279   1.834  0.9780 -0.1615 -1.1849
18246TIP3   OH276228   4.794   3.158   1.477 -0.0338 -0.5463 -0.4159
18246TIP3    H176229   4.727   3.100   1.513 -0.6333 -0.3669 -1.2031
18246TIP3    H276230   4.830   3.110   1.403  2.4355 -1.6688  1.3561
18247TIP3   OH276231   4.234   2.307   0.911  0.4974 -0.3453  0.6141
18247TIP3    H176232   4.211   2.394   0.945 -2.3461 -0.7176 -0.1118
18247TIP3    H276233   4.172   2.247   0.954  0.3510 -1.5549 -1.1865
18248TIP3   OH276234   4.518   2.865   2.532  0.4654  0.3036  0.3240
18248TIP3    H176235   4.509   2.824   2.446  0.8862 -0.1598  0.4908
18248TIP3    H276236   4.524   2.792   2.593  2.0773  0.5769  0.5424
18249TIP3   OH276237   0.345   4.887   0.351 -0.4828 -0.1380 -0.1751
18249TIP3    H176238   0.265   4.939   0.339  0.7031  2.0293  0.7126
18249TIP3    H276239   0.323   4.827   0.422 -2.1110 -1.4177 -1.6724
18250TIP3   OH276240   0.753   1.723   3.455 -0.4060  0.8119  0.0500
18250TIP3    H176241   0.845   1.744   3.467 -0.1057 -0.8109  1.0257
18250TIP3    H276242   0.753   1.648   3.395 -0.9508 -0.1879  1.2552
18251TIP3   OH276243   3.538   4.492  15.590 -0.9935  0.0277  0.1352
18251TIP3    H176244   3.610   4.445  15.633 -0.6869 -0.1095 -0.5216
18251TIP3    H276245   3.463   4.433  15.596 -0.3480 -1.0292 -1.6181
18252TIP3   OH276246   1.163   3.338  14.364  0.2069 -0.8590  0.1015
18252TIP3    H176247   1.215   3.322  14.286  1.3786 -1.6010  0.9857
18252TIP3    H276248   1.224   3.379  14.426 -0.2355 -1.7251  1.1597
18253TIP3   OH276249   4.490   5.912  11.512 -0.5769  0.5765 -0.1148
18253TIP3    H176250   4.395   5.914  11.524 -0.5577 -0.6032  0.3638
18253TIP3    H276251   4.525   5.910  11.601 -0.1980 -1.1618 -0.2570
18254TIP3   OH276252   3.867   4.173  12.271 -0.0219 -0.3189 -0.2636
18254TIP3    H176253   3.814   4.118  12.328  0.4407  0.6701  1.1991
18254TIP3    H276254   3.843   4.147  12.182 -2.6911 -0.1636  0.3235
18255TIP3   OH276255   4.533   2.348  10.876  0.5928  0.2432 -0.2180
18255TIP3    H176256   4.555   2.438  10.902 -0.2351  0.2834  0.3710
18255TIP3    H276257   4.616   2.302  10.879  1.0731  1.0336 -0.7420
18256TIP3   OH276258   1.892   4.785   0.781  0.2945 -0.0622  0.2653
18256TIP3    H176259   1.856   4.755   0.864 -0.8023 -1.3541 -0.6295
18256TIP3    H276260   1.961   4.846   0.805 -1.1591  0.9577  2.0875
18257TIP3   OH276261   1.772   3.856   4.980 -0.3450  0.3826 -0.3062
18257TIP3    H176262   1.712   3.801   5.030 -0.1705  0.6507  0.2056
18257TIP3    H276263   1.773   3.939   5.027  0.3814  0.3987 -0.3311
18258TIP3   OH276264   3.427   5.916  11.947  0.4514  0.0460 -0.0195
18258TIP3    H176265   3.376   5.886  11.872  0.2048 -1.8032  0.8281
18258TIP3    H276266   3.485   5.983  11.911  0.4230 -0.8552 -1.8796
18259TIP3   OH276267   2.327   1.389   1.792  0.4370 -0.1605 -0.1298
18259TIP3    H176268   2.313   1.295   1.807 -1.9656  0.4599  2.4117
18259TIP3    H276269   2.241   1.421   1.764  0.2824  1.7219  2.1955
18260TIP3   OH276270   2.355   5.422   3.139  0.0660 -0.2423  0.2205
18260TIP3    H176271   2.392   5.334   3.130 -1.3736 -0.9986  1.4090
18260TIP3    H276272   2.398   5.458   3.216  0.7701  0.1968 -0.3544
18261TIP3   OH276273   0.025   1.747   1.531  0.3363 -0.5392  0.1261
18261TIP3    H176274   0.027   1.677   1.596  2.9748  0.1615  0.8943
18261TIP3    H276275   0.115   1.756   1.501 -0.4837  0.3787 -2.3740
18262TIP3   OH276276   1.710   4.122  16.398  0.0365  0.3325  0.3516
18262TIP3    H176277   1.675   4.210  16.383  1.7033  1.4305  2.3781
18262TIP3    H276278   1.646   4.081  16.456 -0.3286  0.5058  0.0768
18263TIP3   OH276279   1.750   4.157   0.229 -0.4536  0.1117  0.3755
18263TIP3    H176280   1.678   4.099   0.204 -1.1802  0.4910  1.4912
18263TIP3    H276281   1.770   4.131   0.319  0.9198 -0.0825  0.0355
18264TIP3   OH276282   6.056   4.006   1.160 -0.2662 -0.0997  0.4308
18264TIP3    H176283   5.969   4.044   1.177  0.2060  0.7391  1.0338
18264TIP3    H276284   6.112   4.080   1.140  0.6061 -0.4807  1.3316
18265TIP3   OH276285   3.019   4.369  14.023 -0.0697  0.3228  0.1144
18265TIP3    H176286   3.071   4.346  13.946 -1.6813 -1.1146 -0.6056
18265TIP3    H276287   3.069   4.438  14.066  2.1612 -0.6489 -0.7986
18266TIP3   OH276288   4.179   4.997   0.179 -0.8518  0.0833 -0.4704
18266TIP3    H176289   4.216   5.077   0.144  1.2391 -0.7843 -0.3816
18266TIP3    H276290   4.120   5.026   0.249 -1.1773  1.5691 -1.3351
18267TIP3   OH276291   0.274   5.030   6.235 -0.1372  0.0321 -0.1468
18267TIP3    H176292   0.365   5.005   6.252 -0.1468 -0.4416 -0.7537
18267TIP3    H276293   0.279   5.083   6.155 -0.4148 -0.2034 -0.3223
18268TIP3   OH276294   4.426   2.879   5.398  0.8436  0.3915  0.3401
18268TIP3    H176295   4.353   2.889   5.337 -0.2817  2.3113  1.9073
18268TIP3    H276296   4.388   2.838   5.475  1.7913 -0.0732  0.5872
18269TIP3   OH276297   4.657   6.412   0.745 -0.6552 -0.7736  0.5265
18269TIP3    H176298   4.665   6.324   0.708 -2.0613 -0.4414 -0.6988
18269TIP3    H276299   4.621   6.464   0.673 -0.0960  0.7510  1.3130
18270TIP3   OH276300   2.456   2.264  15.331  0.2774  0.0133  0.0924
18270TIP3    H176301   2.471   2.236  15.241 -2.6180 -0.3937 -0.3309
18270TIP3    H276302   2.400   2.196  15.369  1.4832  0.1407  2.2602
18271TIP3   OH276303   1.895   5.667  13.624  0.2433  0.0274  0.6585
18271TIP3    H176304   1.929   5.695  13.709  2.0622 -0.9213  0.2770
18271TIP3    H276305   1.850   5.744  13.590  1.0784  0.9934  1.6793
18272TIP3   OH276306   6.118   3.581   2.866  0.4890  0.1529  0.4564
18272TIP3    H176307   6.200   3.602   2.909  0.8448  0.2212 -0.2383
18272TIP3    H276308   6.119   3.486   2.856  1.4657  0.3125 -1.4179
18273TIP3   OH276309   4.522   6.155  11.368  0.8398  0.1491 -0.2115
18273TIP3    H176310   4.504   6.084  11.429  0.4478  0.0675 -0.4146
18273TIP3    H276311   4.586   6.119  11.306 -0.8744 -0.7536 -1.5583
18274TIP3   OH276312   3.691   1.953  11.432 -0.5380 -0.2300 -0.0215
18274TIP3    H176313   3.698   1.865  11.471 -0.3737 -0.3473 -0.3082
18274TIP3    H276314   3.775   1.965  11.387 -1.2586 -0.6985 -1.5734
18275TIP3   OH276315   6.216   6.330  11.646  0.6561 -0.4777  0.1851
18275TIP3    H176316   6.168   6.250  11.666  0.2730 -0.7907 -1.7943
18275TIP3    H276317   6.177   6.363  11.565  1.8610  0.8413  0.0881
18276TIP3   OH276318   6.146   1.444   6.252  0.5858  0.0682 -0.5413
18276TIP3    H176319   6.138   1.504   6.325  1.5127 -0.2837 -0.1347
18276TIP3    H276320   6.072   1.465   6.195 -0.2430  0.2349  0.5713
18277TIP3   OH276321   6.097   5.270  13.999  0.0393 -0.0323 -0.3189
18277TIP3    H176322   6.186   5.299  13.980  0.7877 -3.1118 -2.2183
18277TIP3    H276323   6.087   5.283  14.094  2.9055 -0.5599  0.1514
18278TIP3   OH276324   3.458   0.887  15.892 -0.1558  0.4693  0.0584
18278TIP3    H176325   3.490   0.955  15.951 -0.3868  0.6098  0.0215
18278TIP3    H276326   3.524   0.883  15.822  0.0948  0.3324  0.3015
18279TIP3   OH276327   5.444   0.937   6.162 -0.1055  0.1373  0.4934
18279TIP3    H176328   5.364   0.962   6.115 -0.4479  1.0245  1.5286
18279TIP3    H276329   5.466   1.013   6.215  0.4946 -0.7094  1.4859
18280TIP3   OH276330   5.712   2.194   2.606  0.5099  0.3830  0.2442
18280TIP3    H176331   5.618   2.207   2.613  0.7410  1.2199  2.3607
18280TIP3    H276332   5.734   2.133   2.677  1.5702  0.2409 -0.1782
18281TIP3   OH276333   0.508   6.615  16.925  0.2465 -0.3597  0.4157
18281TIP3    H176334   0.576   6.601  16.860 -0.9305 -0.6837 -0.7961
18281TIP3    H276335   0.538   6.567  17.002  2.3950  1.2828  0.7036
18282TIP3   OH276336   5.147   3.192  17.034 -0.7358  0.7625 -0.1995
18282TIP3    H176337   5.215   3.239  17.082  0.6869 -0.7049 -0.7285
18282TIP3    H276338   5.150   3.228  16.946 -0.1066  0.1617 -0.4278
18283TIP3   OH276339   4.683   6.704  15.836 -0.1463  0.5230 -0.0532
18283TIP3    H176340   4.738   6.722  15.760 -0.8690  0.1329 -0.6821
18283TIP3    H276341   4.600   6.748  15.817 -0.3262  0.4362  0.5090
18284TIP3   OH276342   5.666   2.092  11.824 -0.0106  0.3602 -0.3275
18284TIP3    H176343   5.745   2.064  11.778  0.9682  1.2753  0.7370
18284TIP3    H276344   5.640   2.173  11.779  0.4585  0.7997  0.1877
18285TIP3   OH276345   0.099   2.843   2.706 -0.5141  0.5005  0.2167
18285TIP3    H176346   0.124   2.926   2.668 -0.1788 -0.9518 -3.0349
18285TIP3    H276347   0.180   2.808   2.743  0.6798 -0.5541 -3.0341
18286TIP3   OH276348   5.328   2.814   2.743  0.0049 -0.2074  0.0885
18286TIP3    H176349   5.266   2.786   2.811  0.4505  0.5537  0.8282
18286TIP3    H276350   5.413   2.789   2.778  0.1793 -0.5777 -0.5875
18287TIP3   OH276351   5.205   1.015  16.470  0.0654 -0.8528 -0.6165
18287TIP3    H176352   5.169   1.095  16.509 -0.5020 -0.8418 -1.1537
18287TIP3    H276353   5.300   1.024  16.481  0.0011 -0.1464 -0.5911
18288TIP3   OH276354   3.451   0.574   3.386  0.4031 -0.4650  0.1919
18288TIP3    H176355   3.405   0.577   3.470 -0.7625 -0.0218 -0.4344
18288TIP3    H276356   3.413   0.645   3.336 -0.0860 -1.7194 -1.2935
18289TIP3   OH276357   0.972   3.148  11.296 -0.1747 -0.6572 -0.2575
18289TIP3    H176358   0.956   3.240  11.274  0.7868 -0.7111 -1.2476
18289TIP3    H276359   0.947   3.099  11.218  1.4535 -1.0259 -0.5825
18290TIP3   OH276360   3.234   6.563  16.192  0.2731 -0.4186 -0.1458
18290TIP3    H176361   3.244   6.526  16.280 -1.0199  0.3766  0.3701
18290TIP3    H276362   3.191   6.493  16.142  0.3927 -0.6251  0.0376
18291TIP3   OH276363   6.659   0.581   4.028  0.1025  0.4715  0.3240
18291TIP3    H176364   6.612   0.509   3.986  0.5540  0.2940  0.1099
18291TIP3    H276365   6.616   0.660   3.997  1.4286  0.4458 -1.8270
18292TIP3   OH276366   1.446   6.470  16.608 -0.3230 -0.3509 -0.7269
18292TIP3    H176367   1.501   6.449  16.684  0.2286 -2.3652 -1.6127
18292TIP3    H276368   1.362   6.428  16.627 -0.3464 -0.4340 -1.0096
18293TIP3   OH276369   1.095   4.939   3.372  0.3227 -0.0452 -0.3751
18293TIP3    H176370   1.077   4.850   3.341 -0.5522 -0.0886  0.2274
18293TIP3    H276371   1.163   4.928   3.439 -0.7235 -0.4359  0.6599
18294TIP3   OH276372   5.136   2.046   3.940  0.5706 -0.6931 -0.0323
18294TIP3    H176373   5.224   2.055   3.977  0.6299 -1.7231  0.1169
18294TIP3    H276374   5.083   2.012   4.012 -0.1221  0.5393  0.0731
18295TIP3   OH276375   2.427   1.444   2.186 -0.2851 -0.1429  0.0810
18295TIP3    H176376   2.356   1.380   2.196  1.1273 -1.6812  0.6370
18295TIP3    H276377   2.455   1.434   2.095  0.6751 -1.1617  0.4684
18296TIP3   OH276378   1.243   4.442  14.378 -0.0699  0.1604 -0.5228
18296TIP3    H176379   1.301   4.517  14.365  2.4567 -1.2832  1.6848
18296TIP3    H276380   1.265   4.383  14.306 -1.1768  0.9232 -1.5352
18297TIP3   OH276381   2.705   4.222  13.207  0.1117  0.1074 -0.7634
18297TIP3    H176382   2.749   4.163  13.146 -1.3710 -0.7231 -1.0747
18297TIP3    H276383   2.629   4.173  13.237  0.3344  0.8428  1.1007
18298TIP3   OH276384   2.965   1.197   4.459 -0.4844  0.3027 -0.6227
18298TIP3    H176385   2.946   1.291   4.451  0.6236  0.6295  0.2964
18298TIP3    H276386   3.055   1.188   4.426 -0.4635 -0.3720 -0.3908
18299TIP3   OH276387   2.289   6.615  16.617  0.0058 -0.2075 -0.1754
18299TIP3    H176388   2.229   6.582  16.551  0.7856  0.0364 -1.0217
18299TIP3    H276389   2.252   6.699  16.644 -0.2515 -0.2506 -0.3871
18300TIP3   OH276390   4.046   5.366  17.104  0.6295 -0.2716 -0.3758
18300TIP3    H176391   3.999   5.447  17.122  1.2544  0.2705 -1.1270
18300TIP3    H276392   4.034   5.350  17.011  0.6595 -0.9470 -0.2715
18301TIP3   OH276393   1.152   0.725   0.974 -0.6956  0.1238 -0.3381
18301TIP3    H176394   1.243   0.700   0.991 -0.4719  2.4393  2.7955
18301TIP3    H276395   1.112   0.646   0.937  1.5863 -2.4313  2.1666
18302TIP3   OH276396   2.179   1.103   0.721  0.0798  0.2856  0.3018
18302TIP3    H176397   2.240   1.080   0.791 -0.2951  0.4371  0.6867
18302TIP3    H276398   2.149   1.191   0.744 -0.4814  0.1085  0.2666
18303TIP3   OH276399   5.866   3.653  14.897 -0.2349  0.2287  0.3388
18303TIP3    H176400   5.771   3.659  14.906 -0.2669  0.1104  0.0883
18303TIP3    H276401   5.900   3.689  14.979 -0.4652  1.7091 -0.1793
18304TIP3   OH276402   4.988   1.255   4.687 -0.2815 -0.3546  0.3116
18304TIP3    H176403   5.080   1.240   4.667 -0.6447 -1.0846 -0.9201
18304TIP3    H276404   4.940   1.212   4.615 -1.5535  0.8508  0.4000
18305TIP3   OH276405   1.462   0.854  13.560  0.0257 -0.3168  0.3049
18305TIP3    H176406   1.503   0.785  13.508  2.2575  0.8877  0.3389
18305TIP3    H276407   1.492   0.837  13.650  1.4745  1.1968  0.1691
18306TIP3   OH276408   2.126   5.188  12.625  0.2358  0.3992 -0.1759
18306TIP3    H176409   2.135   5.136  12.545  1.2858  0.7596 -0.3012
18306TIP3    H276410   2.041   5.161  12.661  1.0145 -1.9218  0.1110
18307TIP3   OH276411   0.818   2.392   1.916 -0.0599  0.2707 -0.6589
18307TIP3    H176412   0.849   2.426   1.833  0.0132  0.8313 -0.4048
18307TIP3    H276413   0.843   2.458   1.980 -0.1196 -0.1521 -0.1919
18308TIP3   OH276414   4.714   2.848  14.491 -0.4923 -0.2729  0.2109
18308TIP3    H176415   4.699   2.876  14.400  0.6876 -3.1710 -0.9810
18308TIP3    H276416   4.787   2.786  14.485 -2.9102 -3.6518  2.5395
18309TIP3   OH276417   0.564   4.643   5.250  0.1483  0.2787 -0.1659
18309TIP3    H176418   0.653   4.671   5.270 -0.1715  0.1577  1.5374
18309TIP3    H276419   0.534   4.705   5.184  0.1389  2.8691  2.0947
18310TIP3   OH276420   6.601   4.771  16.298 -0.0897  0.1557  0.0549
18310TIP3    H176421   6.622   4.698  16.357 -0.1170  0.5724  0.5908
18310TIP3    H276422   6.585   4.845  16.357 -0.6727  0.4443 -0.4545
18311TIP3   OH276423   1.054   0.326   5.910 -0.1924 -0.2925  0.2132
18311TIP3    H176424   1.078   0.257   5.972 -0.9949 -0.2130  0.6249
18311TIP3    H276425   0.980   0.370   5.951 -0.0382  0.4623 -0.3060
18312TIP3   OH276426   2.334   0.778   3.414  0.5675 -0.2590 -0.2890
18312TIP3    H176427   2.320   0.798   3.506 -0.5747  0.8253 -0.6671
18312TIP3    H276428   2.353   0.862   3.373  1.9358 -0.8460 -0.9161
18313TIP3   OH276429   2.136   4.800  16.341 -0.2064 -0.1244 -0.0916
18313TIP3    H176430   2.119   4.888  16.373  0.0219 -0.2925  0.5109
18313TIP3    H276431   2.129   4.744  16.419  1.1391 -0.4430 -0.1684
18314TIP3   OH276432   0.023   3.396   4.544  0.0187  0.4941 -0.6206
18314TIP3    H176433  -0.015   3.412   4.457  0.8324 -0.3813 -1.1679
18314TIP3    H276434   0.104   3.448   4.544  1.0800 -1.0452 -1.2202
18315TIP3   OH276435   6.322   2.921   2.438 -0.6634  0.1945 -0.0260
18315TIP3    H176436   6.417   2.934   2.435 -0.7366  1.3697  1.5538
18315TIP3    H276437   6.298   2.905   2.347  0.7625  2.1211 -0.8157
18316TIP3   OH276438   5.920   3.312  14.915  0.0121 -0.1629  0.0322
18316TIP3    H176439   5.931   3.320  15.010 -0.8372 -2.3460  0.3833
18316TIP3    H276440   6.003   3.276  14.884 -0.5175 -1.7045  0.3338
18317TIP3   OH276441   4.147   0.709   0.125 -0.1194 -0.0668  0.5564
18317TIP3    H176442   4.078   0.668   0.177  0.8646 -1.4254  0.8485
18317TIP3    H276443   4.101   0.747   0.050 -1.3269  0.2130  1.4172
18318TIP3   OH276444   4.133   2.747   3.659  0.3014  0.0181  0.2965
18318TIP3    H176445   4.227   2.728   3.659  0.2903 -0.0503  0.9805
18318TIP3    H276446   4.105   2.730   3.748 -0.3740  0.0057  0.0875
18319TIP3   OH276447   3.167   3.640   3.629  0.2221 -0.5261 -0.0196
18319TIP3    H176448   3.231   3.587   3.581 -0.1616  0.2830 -1.5054
18319TIP3    H276449   3.134   3.702   3.564 -0.4198  0.5636  1.2931
18320TIP3   OH276450   2.736   0.388   1.423 -0.3563 -0.3670 -0.0192
18320TIP3    H176451   2.700   0.315   1.373  0.7000 -1.3376  0.6033
18320TIP3    H276452   2.659   0.435   1.456 -1.0455 -1.2698 -0.3139
18321TIP3   OH276453   5.136   0.048   5.985  0.0197 -0.1424 -0.0170
18321TIP3    H176454   5.140  -0.024   5.923 -1.2113 -0.3977  0.1750
18321TIP3    H276455   5.045   0.049   6.016  0.9633 -1.1888  3.1549
18322TIP3   OH276456   4.947   1.329   0.704 -0.2805 -0.1013 -0.0862
18322TIP3    H176457   4.988   1.403   0.749 -2.7431  3.2984 -2.8231
18322TIP3    H276458   5.004   1.311   0.630  0.8131 -1.7608  1.0889
18323TIP3   OH276459   0.734   0.605  14.552  0.7070 -0.1517  0.1094
18323TIP3    H176460   0.825   0.583  14.574  2.2918  0.3858 -4.5689
18323TIP3    H276461   0.716   0.685  14.602  3.9600  1.3275 -0.7620
18324TIP3   OH276462   1.951   4.292  16.939  0.7715 -0.4967 -0.0361
18324TIP3    H176463   2.022   4.272  16.877 -0.3742 -1.7923 -1.0046
18324TIP3    H276464   1.980   4.251  17.021  1.5207 -0.2898 -0.1855
18325TIP3   OH276465   3.932   1.254  16.533 -0.9522  0.3578  0.1077
18325TIP3    H176466   3.844   1.233  16.565 -1.1028 -0.6993 -0.9539
18325TIP3    H276467   3.924   1.252  16.438  0.3526 -0.3462 -0.0022
18326TIP3   OH276468   4.270   0.542  14.585 -0.0268 -0.4234 -0.0296
18326TIP3    H176469   4.333   0.572  14.651 -0.2720 -0.6140  0.2935
18326TIP3    H276470   4.244   0.455  14.615 -1.4365  0.1725  0.5445
18327TIP3   OH276471   3.330   6.536   2.920 -0.1394  0.1800  0.0495
18327TIP3    H176472   3.411   6.560   2.965  0.4573  0.6373 -1.2361
18327TIP3    H276473   3.304   6.614   2.872 -1.3044  0.0100  0.3556
18328TIP3   OH276474   1.643   0.669  15.981  1.1090  0.1897  0.0788
18328TIP3    H176475   1.558   0.642  16.017  0.8425  1.7652  0.7452
18328TIP3    H276476   1.683   0.720  16.052  2.1593  0.3365 -0.6037
18329TIP3   OH276477   3.345   5.384   1.545 -0.1239  0.1525 -0.6807
18329TIP3    H176478   3.252   5.387   1.523  0.4441  0.0182 -3.4241
18329TIP3    H276479   3.350   5.423   1.632 -2.8253 -0.6226 -0.0696
18330TIP3   OH276480   1.495   5.540   2.220 -0.0740 -0.6592 -0.9409
18330TIP3    H176481   1.484   5.459   2.170 -0.8260 -2.0912  1.4005
18330TIP3    H276482   1.573   5.524   2.274  1.6439  1.4451 -2.6244
18331TIP3   OH276483   0.441   0.080  16.814 -0.2591  0.0690 -0.6895
18331TIP3    H176484   0.442  -0.004  16.860 -0.0194 -0.1770 -1.1398
18331TIP3    H276485   0.450   0.145  16.884  0.0650 -0.2979 -0.3821
18332TIP3   OH276486   0.680   2.146  16.130  0.2857 -0.5545 -0.1240
18332TIP3    H176487   0.679   2.071  16.071  0.8382 -2.3764  2.0365
18332TIP3    H276488   0.756   2.197  16.103  0.2544 -1.0798 -1.2680
18333TIP3   OH276489   4.007   3.388   0.618  0.0509  0.7100  0.3469
18333TIP3    H176490   4.024   3.327   0.690  2.6894  0.1835 -0.6148
18333TIP3    H276491   3.962   3.335   0.552 -0.8360  0.7601  0.8909
18334TIP3   OH276492   2.193   5.740  15.350  0.1021  0.2700  0.0086
18334TIP3    H176493   2.193   5.649  15.381 -1.1303  0.3806  0.3574
18334TIP3    H276494   2.213   5.792  15.428  1.1449  0.2962 -0.2583
18335TIP3   OH276495   3.209   0.867  15.331 -0.6303  0.1071 -0.0701
18335TIP3    H176496   3.120   0.837  15.349 -0.8420  0.0101 -1.2112
18335TIP3    H276497   3.262   0.830  15.402 -1.3815 -0.4568  0.2057
18336TIP3   OH276498   6.438   5.792  11.175  0.0455  0.4454 -0.1167
18336TIP3    H176499   6.499   5.742  11.121  0.0497  1.0586 -0.6998
18336TIP3    H276500   6.475   5.881  11.177 -1.1936  1.0043 -1.0935
18337TIP3   OH276501   5.833   5.904   0.865  0.2712 -0.0299  0.3697
18337TIP3    H176502   5.891   5.942   0.931 -0.2069 -0.4118  1.0234
18337TIP3    H276503   5.746   5.909   0.904  0.0664 -0.8209  0.0321
18338TIP3   OH276504   1.048   3.271  12.856 -1.0112 -0.0715 -0.4197
18338TIP3    H176505   1.117   3.337  12.862  0.5032 -1.3619 -2.4512
18338TIP3    H276506   1.088   3.190  12.888 -1.6214 -0.8045 -1.4259
18339TIP3   OH276507   4.722   2.392  13.499  0.2273 -0.2312  0.1811
18339TIP3    H176508   4.682   2.389  13.412  1.4199 -2.0516 -0.3754
18339TIP3    H276509   4.657   2.351  13.556 -0.4465  0.7199  0.1186
18340TIP3   OH276510   0.895   2.682   6.896 -0.3030  0.5335  0.0434
18340TIP3    H176511   0.890   2.596   6.855  0.9998  0.0197  0.8994
18340TIP3    H276512   0.874   2.744   6.825  1.9283 -0.3123 -1.4771
18341TIP3   OH276513   4.452   6.499   2.292 -0.6564  0.0893  0.4403
18341TIP3    H176514   4.487   6.588   2.300  0.9975 -0.5953  1.3437
18341TIP3    H276515   4.514   6.453   2.235 -1.2919 -0.5877  0.2774
18342TIP3   OH276516   2.991   6.340   4.750 -0.1962  0.5233 -0.1136
18342TIP3    H176517   2.965   6.326   4.659 -0.2862  1.1840 -0.1946
18342TIP3    H276518   3.062   6.403   4.745 -0.4680  0.8685  0.2993
18343TIP3   OH276519   2.173   4.169   5.441 -0.9698  0.1104  0.4104
18343TIP3    H176520   2.200   4.165   5.533  0.6089  2.0967  0.1059
18343TIP3    H276521   2.122   4.249   5.434 -0.1690  0.5508 -0.6357
18344TIP3   OH276522   0.646   5.330  16.073 -0.6500  0.3255 -0.4855
18344TIP3    H176523   0.702   5.357  16.000 -2.2706 -0.4619 -2.0961
18344TIP3    H276524   0.683   5.246  16.101  1.2162  1.5688  1.0468
18345TIP3   OH276525   2.160   3.564   5.078 -0.5124 -0.0058  0.1584
18345TIP3    H176526   2.145   3.659   5.082 -3.4265 -0.4185  1.7403
18345TIP3    H276527   2.144   3.542   4.986  2.0321  1.1943 -0.6636
18346TIP3   OH276528   3.195   4.225   1.500 -0.3593  0.3777  0.3626
18346TIP3    H176529   3.192   4.320   1.508 -1.2626  0.3889  0.0632
18346TIP3    H276530   3.288   4.203   1.498 -0.1488  1.2310  0.6793
18347TIP3   OH276531   5.684   3.301  16.188 -1.0724  0.3714  0.1371
18347TIP3    H176532   5.724   3.218  16.159  1.4408  2.2801 -2.4038
18347TIP3    H276533   5.685   3.296  16.283 -1.6992 -2.7577  0.0994
18348TIP3   OH276534   1.720   5.233   0.097 -0.4007 -0.1082 -0.6651
18348TIP3    H176535   1.667   5.209   0.020  0.2804 -0.9737 -0.8844
18348TIP3    H276536   1.810   5.221   0.068 -0.1111  0.3473  0.0288
18349TIP3   OH276537   0.609   3.101   1.593  0.3207  0.1025  0.1019
18349TIP3    H176538   0.557   3.158   1.537 -0.0099  1.0382  1.3100
18349TIP3    H276539   0.610   3.016   1.548  0.3336  0.8928 -1.4399
18350TIP3   OH276540   3.754   3.121   1.011  0.2389 -0.4814 -0.2939
18350TIP3    H176541   3.840   3.096   1.044 -0.3353 -2.4872 -0.1702
18350TIP3    H276542   3.721   3.184   1.076  1.2157 -0.4031  0.1454
18351TIP3   OH276543   1.187   6.018   4.477 -0.5028  0.0548  0.3893
18351TIP3    H176544   1.094   6.041   4.488  0.2653  3.0369  1.4479
18351TIP3    H276545   1.211   6.054   4.392 -0.2498 -0.5234  0.2123
18352TIP3   OH276546   1.113   4.428   3.073  0.0594  0.0721  0.2194
18352TIP3    H176547   1.076   4.501   3.122 -1.2718  0.1639 -0.8689
18352TIP3    H276548   1.206   4.447   3.068 -0.2550  1.6827 -0.0074
18353TIP3   OH276549   5.729   4.705  17.177  0.4753 -0.6953 -0.2491
18353TIP3    H176550   5.675   4.690  17.254  0.5057 -1.9105 -0.4449
18353TIP3    H276551   5.747   4.799  17.178 -1.1614 -0.3613  0.1300
18354TIP3   OH276552   6.320   3.805   5.439  0.2137  0.0244 -0.0669
18354TIP3    H176553   6.275   3.774   5.360  1.6424 -0.4526 -0.7344
18354TIP3    H276554   6.278   3.888   5.461 -2.1272 -1.2017  0.3591
18355TIP3   OH276555   3.719   0.236  17.295  0.3869 -0.1261  0.1022
18355TIP3    H176556   3.667   0.232  17.375  0.8687  0.8663  0.4773
18355TIP3    H276557   3.660   0.203  17.227 -0.3065 -0.1884  0.7233
18356TIP3   OH276558   1.557   5.632   2.828  0.4678 -0.1058 -0.3389
18356TIP3    H176559   1.637   5.684   2.832  1.1741 -1.1874  0.0469
18356TIP3    H276560   1.511   5.652   2.910  1.5617 -1.3556  0.6078
18357TIP3   OH276561   3.420   5.522  13.183 -0.3454 -0.7031  0.1477
18357TIP3    H176562   3.427   5.452  13.247 -1.4121 -0.9093  0.0680
18357TIP3    H276563   3.332   5.512  13.146  0.1306 -0.4245 -1.1463
18358TIP3   OH276564   3.458   6.785   0.795 -0.2957  0.3260 -0.1116
18358TIP3    H176565   3.545   6.810   0.824 -0.6158  1.1383  0.1760
18358TIP3    H276566   3.417   6.743   0.871 -0.4692  0.7555  0.0344
18359TIP3   OH276567   3.804   6.060  13.892 -0.0487 -0.6954  0.5957
18359TIP3    H176568   3.759   6.106  13.963  2.5009 -0.3765  2.1355
18359TIP3    H276569   3.796   5.967  13.915 -1.8563 -0.8381 -0.4275
18360TIP3   OH276570   1.433   0.294  17.231  0.0924  0.1020 -0.2122
18360TIP3    H176571   1.503   0.249  17.185 -0.1700 -1.2417  0.6604
18360TIP3    H276572   1.429   0.251  17.317 -1.2853  0.6631  0.0258
18361TIP3   OH276573   4.534   3.029  15.910 -0.2708 -0.7289  0.0503
18361TIP3    H176574   4.447   3.047  15.877  0.8442  2.3893 -1.6175
18361TIP3    H276575   4.525   3.031  16.006 -1.8919  0.2122 -0.1034
18362TIP3   OH276576   1.382   1.813  13.027  0.1851 -0.1622 -0.2620
18362TIP3    H176577   1.308   1.873  13.038  0.4397  0.1244 -0.0999
18362TIP3    H276578   1.414   1.798  13.116  1.0391  0.6298 -0.4088
18363TIP3   OH276579   4.333   5.443  17.098  0.2691 -0.2579  0.6472
18363TIP3    H176580   4.356   5.455  17.190  1.3258  0.1823  0.3378
18363TIP3    H276581   4.254   5.388  17.100  0.3849 -0.4055  1.8010
18364TIP3   OH276582   5.009   4.790   4.984  0.2270 -0.9754  0.8897
18364TIP3    H176583   5.062   4.811   5.061  1.0588 -1.4272  0.4552
18364TIP3    H276584   4.928   4.839   4.996  2.1214  2.7526 -0.1931
18365TIP3   OH276585   4.729   2.150   0.097  0.4845  0.2452 -0.3620
18365TIP3    H176586   4.652   2.198   0.066  0.2703 -0.1667 -0.4806
18365TIP3    H276587   4.711   2.059   0.073 -0.0341 -0.2301  1.6067
18366TIP3   OH276588   1.026   1.330   4.182 -0.0130  0.3500  0.4591
18366TIP3    H176589   1.120   1.313   4.192 -0.0885 -0.1660  0.3185
18366TIP3    H276590   0.984   1.249   4.213 -0.3861  0.2958 -0.1752
18367TIP3   OH276591   2.361   0.088   4.215  0.0924  0.4154 -0.5874
18367TIP3    H176592   2.267   0.072   4.210  0.1602  0.1141 -0.9147
18367TIP3    H276593   2.394   0.022   4.276 -0.1043  1.4052  0.6574
18368TIP3   OH276594   3.777   0.647  12.701 -0.0638 -0.1489  0.5196
18368TIP3    H176595   3.798   0.593  12.625 -0.4287 -0.7958  0.8694
18368TIP3    H276596   3.862   0.673  12.736  0.1284 -0.8032  0.5595
18369TIP3   OH276597   3.434   3.684   1.749  0.1009  0.2679 -0.1056
18369TIP3    H176598   3.378   3.759   1.767  0.6440  0.3696  1.3247
18369TIP3    H276599   3.516   3.722   1.718  0.1653  0.2443  0.0334
18370TIP3   OH276600   6.328   2.532   2.349  0.2496 -0.3416 -0.5618
18370TIP3    H176601   6.408   2.580   2.331 -0.8421  1.5136 -0.7183
18370TIP3    H276602   6.300   2.497   2.264 -0.1653  0.7576 -0.8922
18371TIP3   OH276603   2.607   4.708  15.602  0.3960 -0.1236 -0.3418
18371TIP3    H176604   2.688   4.715  15.552  1.0371  1.4673  0.8360
18371TIP3    H276605   2.540   4.748  15.546  0.8483  0.4741 -0.4597
18372TIP3   OH276606   1.895   0.642  13.140 -0.0401 -0.1104  0.1485
18372TIP3    H176607   1.946   0.708  13.187 -0.2770  0.0898  0.1264
18372TIP3    H276608   1.961   0.585  13.101  0.1637 -0.0760  0.4359
18373TIP3   OH276609   0.716   4.873   5.558  0.0786  0.5259 -0.3436
18373TIP3    H176610   0.802   4.834   5.571  0.2948  0.1643 -2.4673
18373TIP3    H276611   0.658   4.822   5.615  1.0097 -0.2755 -0.0786
18374TIP3   OH276612   1.759   4.319   6.423 -0.4594  0.1044  0.2567
18374TIP3    H176613   1.813   4.396   6.443 -0.7841 -0.0255  1.7205
18374TIP3    H276614   1.690   4.352   6.366  0.4851  0.4961 -0.7087
18375TIP3   OH276615   2.115   4.564  17.098  0.5812 -0.1284 -0.2661
18375TIP3    H176616   2.022   4.545  17.110  0.3776  0.9792 -0.0399
18375TIP3    H276617   2.122   4.659  17.107  1.3023  0.1657 -3.1868
18376TIP3   OH276618   6.590   2.538  14.440 -0.4098  0.4913 -0.0720
18376TIP3    H176619   6.511   2.587  14.459 -1.6242 -0.8584 -1.3833
18376TIP3    H276620   6.579   2.455  14.488 -1.1588 -0.8530 -2.4275
18377TIP3   OH276621   6.326   6.435   1.272 -0.1235 -0.0770  0.3518
18377TIP3    H176622   6.299   6.454   1.361  0.6439 -1.5700  0.9420
18377TIP3    H276623   6.408   6.482   1.261  0.0521 -0.3210  0.6172
18378TIP3   OH276624   4.658   3.757   3.411  0.6746  0.5387  0.2265
18378TIP3    H176625   4.743   3.716   3.397  1.6626  1.5884  2.7137
18378TIP3    H276626   4.599   3.684   3.430  1.7434  0.0089  1.6478
18379TIP3   OH276627   2.864   6.791   1.512  0.1856  0.0434  0.4677
18379TIP3    H176628   2.839   6.877   1.544  2.6200  0.8201  0.4649
18379TIP3    H276629   2.823   6.730   1.572  0.6665  1.3174  2.1541
18380TIP3   OH276630   0.247   2.688   0.145  0.0448 -0.2008 -0.0821
18380TIP3    H176631   0.215   2.745   0.075  0.6822 -0.4977 -0.6196
18380TIP3    H276632   0.170   2.673   0.200 -0.6974 -0.7384 -1.2407
18381TIP3   OH276633   2.635   1.347  11.485  0.6347 -0.6678 -0.1515
18381TIP3    H176634   2.590   1.347  11.400  2.1161 -0.2006 -0.9868
18381TIP3    H276635   2.637   1.440  11.510 -2.2438 -1.0268  1.8324
18382TIP3   OH276636   3.467   0.284  14.230 -0.0107 -0.3568 -0.1292
18382TIP3    H176637   3.372   0.284  14.246  0.5143 -0.3344  3.8365
18382TIP3    H276638   3.498   0.202  14.269  1.7542  0.1566 -0.3826
18383TIP3   OH276639   1.856   1.803  16.610 -0.4275  0.2684  0.2513
18383TIP3    H176640   1.889   1.837  16.693 -0.7018 -0.8423  0.8379
18383TIP3    H276641   1.934   1.775  16.562 -0.3602 -0.7065  0.8898
18384TIP3   OH276642   5.404   5.153   0.212 -0.1565 -0.1838 -0.8508
18384TIP3    H176643   5.497   5.171   0.224  0.1194 -1.1457 -1.4532
18384TIP3    H276644   5.389   5.072   0.261 -1.0486  0.8047  0.5989
18385TIP3   OH276645   5.670   3.916  11.066 -0.2040 -0.0294 -0.4317
18385TIP3    H176646   5.637   3.979  11.131  1.0458 -1.3817  1.6514
18385TIP3    H276647   5.605   3.846  11.066  0.4579 -0.6728  0.4529
18386TIP3   OH276648   5.923   1.244  16.736  0.1094  0.1504 -0.1649
18386TIP3    H176649   5.875   1.277  16.660 -0.0252  0.1220 -0.0939
18386TIP3    H276650   6.014   1.269  16.720 -0.2280  2.1278  0.7275
18387TIP3   OH276651   3.973   4.996   4.203  0.6602  0.4140  0.7863
18387TIP3    H176652   3.924   4.954   4.132  0.5634  3.0498 -0.8133
18387TIP3    H276653   4.060   5.010   4.167  0.6526  1.6527  1.2056
18388TIP3   OH276654   4.147   0.583  10.531 -0.2703  0.0163 -0.5528
18388TIP3    H176655   4.060   0.560  10.498 -1.2517  1.3999  0.9021
18388TIP3    H276656   4.193   0.617  10.455 -0.8887 -0.9833 -1.4041
18389TIP3   OH276657   2.651   2.365  16.076 -0.2610  0.6619 -0.1590
18389TIP3    H176658   2.579   2.308  16.051  1.0835 -1.2963  0.1562
18389TIP3    H276659   2.691   2.391  15.993  0.5409 -0.8661 -0.2936
18390TIP3   OH276660   2.284   2.560  17.197 -0.3696  0.3832 -0.5079
18390TIP3    H176661   2.372   2.541  17.162  0.0657 -1.4593  1.3525
18390TIP3    H276662   2.286   2.653  17.216  1.1225  0.4217 -0.6920
18391TIP3   OH276663   4.214   6.175   4.258  0.3324  0.0890 -0.5504
18391TIP3    H176664   4.172   6.119   4.193 -0.4877 -0.0121  0.0553
18391TIP3    H276665   4.304   6.185   4.227  0.3623 -1.1815 -0.9049
18392TIP3   OH276666   1.889   6.337   1.871  0.4992  0.5143  0.1312
18392TIP3    H176667   1.874   6.361   1.779  2.6701  0.8503 -0.2030
18392TIP3    H276668   1.890   6.420   1.917 -0.5014  0.3512  0.4701
18393TIP3   OH276669   6.183   5.291  11.543 -0.2261 -0.3508 -0.1300
18393TIP3    H176670   6.238   5.367  11.562  0.8823 -1.5060  1.5680
18393TIP3    H276671   6.107   5.328  11.497  0.6332  1.6613 -0.0654
18394TIP3   OH276672   5.650   5.686  11.343 -0.5110  0.2065  0.5837
18394TIP3    H176673   5.693   5.770  11.354 -0.5750  0.3733 -0.3942
18394TIP3    H276674   5.659   5.643  11.429  0.3251  0.8218  0.8146
18395TIP3   OH276675   5.860   5.319   5.505  0.3230 -0.7735 -0.1474
18395TIP3    H176676   5.852   5.359   5.592  0.8224  0.2678 -0.5630
18395TIP3    H276677   5.944   5.274   5.508  0.5579 -0.3538 -0.2248
18396TIP3   OH276678   1.311   5.856  11.645 -0.1305  0.2207  0.0024
18396TIP3    H176679   1.390   5.821  11.606  0.2751  0.2581  0.7727
18396TIP3    H276680   1.340   5.899  11.726 -0.9972 -0.2419  0.5850
18397TIP3   OH276681   6.023   2.452  10.732 -0.4595 -0.1248 -0.1829
18397TIP3    H176682   6.107   2.466  10.689  1.3750 -1.1916  2.7075
18397TIP3    H276683   6.002   2.360  10.715 -0.1936 -0.2928  0.3445
18398TIP3   OH276684   2.286   5.426   1.007  0.1877 -0.0995 -0.0576
18398TIP3    H176685   2.262   5.391   1.092  0.0262  0.9886  0.3628
18398TIP3    H276686   2.324   5.352   0.960  0.3923 -0.6844  1.0027
18399TIP3   OH276687   3.930   6.005  13.130  0.5490  0.4174  0.3930
18399TIP3    H176688   3.941   6.097  13.153 -0.0625  0.2502  1.4440
18399TIP3    H276689   3.887   5.966  13.206  1.4114 -0.8869  0.2651
18400TIP3   OH276690   1.329   1.278   1.385  0.0305  0.0824  0.1342
18400TIP3    H176691   1.235   1.276   1.365  0.2059 -1.8187 -0.7610
18400TIP3    H276692   1.343   1.363   1.426 -2.2108  0.1383  0.9438
18401TIP3   OH276693   4.825   4.660   0.295  0.3115  0.2076  0.2632
18401TIP3    H176694   4.852   4.702   0.377 -1.6965  1.3888  0.3818
18401TIP3    H276695   4.869   4.575   0.297 -0.0132  0.0085  2.8171
18402TIP3   OH276696   1.655   4.673   2.739  0.2072  0.6089 -0.0688
18402TIP3    H176697   1.701   4.647   2.819 -0.5663  0.7448  0.4309
18402TIP3    H276698   1.708   4.744   2.704  0.3443  0.8233  0.5479
18403TIP3   OH276699   6.710   2.156   2.374  0.2677  0.5465  0.0423
18403TIP3    H176700   6.788   2.196   2.336 -0.2202  1.8209  0.3341
18403TIP3    H276701   6.683   2.216   2.443 -1.0853  0.2340 -0.1825
18404TIP3   OH276702   4.966   6.538  14.087 -0.2026 -0.0669 -0.3865
18404TIP3    H176703   5.061   6.523  14.090  0.1212  1.7225 -0.2038
18404TIP3    H276704   4.958   6.634  14.082 -2.0268 -0.0959  1.0523
18405TIP3   OH276705   2.713   1.255   0.833  0.0347  0.4037  0.4222
18405TIP3    H176706   2.740   1.299   0.913  0.0148 -0.0400  0.6735
18405TIP3    H276707   2.634   1.207   0.857  0.2199 -0.0038  0.2234
18406TIP3   OH276708   4.937   6.379   6.269 -0.3956  0.0639  0.4158
18406TIP3    H176709   4.843   6.379   6.289  0.1607  1.9911  3.6868
18406TIP3    H276710   4.976   6.325   6.338  1.2202  2.7399  1.7638
18407TIP3   OH276711   4.046   4.506   2.903 -0.2330 -0.3568  0.5201
18407TIP3    H176712   4.037   4.596   2.873 -2.0588  0.1919  2.4454
18407TIP3    H276713   4.140   4.491   2.908  0.1068  1.0477 -0.8447
18408TIP3   OH276714   2.440   5.984  12.638 -0.3013  0.3802 -0.0045
18408TIP3    H176715   2.521   6.028  12.614 -0.6301  2.0310  1.6875
18408TIP3    H276716   2.467   5.911  12.693  0.0771  0.1606 -0.4706
18409TIP3   OH276717   1.897   4.207   4.951 -0.3666 -0.8102 -0.1567
18409TIP3    H176718   1.840   4.161   5.013 -2.0356 -1.6040 -2.1857
18409TIP3    H276719   1.842   4.276   4.915  1.0303  0.5639  0.2226
18410TIP3   OH276720   6.042   0.766   2.398  0.6275 -0.0433  0.7115
18410TIP3    H176721   6.078   0.732   2.317 -0.0723 -0.3128  0.5069
18410TIP3    H276722   5.975   0.828   2.371  0.1594 -0.3764  1.0706
18411TIP3   OH276723   3.307   0.606   3.878 -0.1561  0.3473  0.7909
18411TIP3    H176724   3.297   0.536   3.943  0.4233 -1.8562 -1.3506
18411TIP3    H276725   3.401   0.623   3.876 -0.2048  0.6103  0.7094
18412TIP3   OH276726   6.735   1.816  15.341 -0.3488  0.2852 -0.0386
18412TIP3    H176727   6.827   1.792  15.334 -0.0946  1.3432 -0.5115
18412TIP3    H276728   6.699   1.802  15.253 -1.4513 -3.1082  0.7961
18413TIP3   OH276729   4.222   6.220   2.674 -0.4064 -0.2140 -0.3587
18413TIP3    H176730   4.287   6.172   2.725  0.3716  2.5702  1.4757
18413TIP3    H276731   4.264   6.235   2.589  0.2028 -0.8492 -0.1757
18414TIP3   OH276732   1.128   2.910  15.853  0.0341 -0.1810  0.0158
18414TIP3    H176733   1.073   2.988  15.843  0.1830  0.0579  0.9653
18414TIP3    H276734   1.086   2.861  15.924  0.8950 -0.1156  0.5807
18415TIP3   OH276735   6.411   6.202  16.941 -0.1634  0.5837 -0.0814
18415TIP3    H176736   6.494   6.212  16.894 -1.7788  1.4206 -3.0048
18415TIP3    H276737   6.418   6.116  16.984  1.5089 -0.2063 -1.7903
18416TIP3   OH276738   2.955   2.216  10.528  0.4818  0.8967 -0.5877
18416TIP3    H176739   2.893   2.273  10.483  0.6295 -0.2578 -2.3324
18416TIP3    H276740   2.972   2.144  10.467  1.0815 -0.5097  1.1320
18417TIP3   OH276741   2.591   3.619   3.406 -1.0842  0.2639 -0.5572
18417TIP3    H176742   2.517   3.663   3.448  0.6264  0.8736  2.0354
18417TIP3    H276743   2.668   3.663   3.441  0.5773 -0.3626 -3.1305
18418TIP3   OH276744   4.677   3.111  12.511 -0.1925  0.7420  0.7740
18418TIP3    H176745   4.586   3.103  12.539 -0.0086  1.4299  1.6294
18418TIP3    H276746   4.728   3.091  12.590  0.3570  1.8094  0.7056
18419TIP3   OH276747   4.892   1.109   0.917 -0.3733  0.4259 -0.1778
18419TIP3    H176748   4.812   1.058   0.904  0.3091 -0.6369 -0.2835
18419TIP3    H276749   4.883   1.183   0.857 -0.9902 -0.0244 -0.6564
18420TIP3   OH276750   0.462   0.585  11.921  0.0649  0.5058  0.5631
18420TIP3    H176751   0.507   0.504  11.898  0.8374  0.5574  1.7543
18420TIP3    H276752   0.478   0.644  11.848  2.2137  0.5990  1.0376
18421TIP3   OH276753   5.490   5.945  10.398 -0.2587 -0.0490 -0.0447
18421TIP3    H176754   5.569   5.917  10.352 -1.3104 -0.3764 -1.7246
18421TIP3    H276755   5.484   6.039  10.381 -0.1192  0.0266  0.2992
18422TIP3   OH276756   6.380   3.186  14.186 -0.0333 -0.4153  0.4613
18422TIP3    H176757   6.321   3.116  14.155  0.0760  0.3225 -1.5781
18422TIP3    H276758   6.323   3.262  14.195  0.0634 -0.4628  1.5499
18423TIP3   OH276759   1.228   1.198   0.698  0.4843 -0.6339 -0.0669
18423TIP3    H176760   1.198   1.282   0.731  1.3905 -0.6363  0.8047
18423TIP3    H276761   1.255   1.215   0.608  1.3382  0.1775  0.3335
18424TIP3   OH276762   2.605   2.953   6.299  0.1533 -0.6677 -0.2821
18424TIP3    H176763   2.636   2.913   6.381 -1.0832  0.1026  0.5961
18424TIP3    H276764   2.531   2.899   6.273 -0.3137 -0.1089 -0.1358
18425TIP3   OH276765   2.380   1.087  11.471 -0.5021 -0.3240  0.1489
18425TIP3    H176766   2.301   1.090  11.417 -0.5967  2.9018  0.2973
18425TIP3    H276767   2.448   1.127  11.418  0.0552  0.4711  1.4017
18426TIP3   OH276768   5.786   5.858  13.729  0.7990  0.0209  0.1612
18426TIP3    H176769   5.822   5.839  13.816 -1.1051 -0.0488  0.9773
18426TIP3    H276770   5.847   5.923  13.693  0.9354  1.0866  2.1149
18427TIP3   OH276771   1.217   3.749   3.529 -0.1196  0.0749 -0.0888
18427TIP3    H176772   1.162   3.690   3.581  1.2615 -3.4629 -2.2575
18427TIP3    H276773   1.156   3.815   3.495 -2.5870 -2.2318 -0.4606
18428TIP3   OH276774   2.994   2.736  16.824  0.0008  0.2961  0.3282
18428TIP3    H176775   3.000   2.786  16.905  0.9384 -0.5988  0.8250
18428TIP3    H276776   2.959   2.799  16.760 -0.7602  1.0137  1.4043
18429TIP3   OH276777   4.909   2.424   5.016  0.0288 -0.1328  0.0622
18429TIP3    H176778   4.851   2.350   5.034 -0.3863  0.2953  0.4857
18429TIP3    H276779   4.872   2.497   5.064 -0.8907  0.9632 -2.1637
18430TIP3   OH276780   4.299   2.661  16.470 -0.5253 -0.4336 -0.3571
18430TIP3    H176781   4.225   2.644  16.529 -1.3968  2.5286 -0.4256
18430TIP3    H276782   4.259   2.674  16.384 -0.3672  3.4157 -0.0144
18431TIP3   OH276783   1.278   2.401   1.441 -0.4552 -0.4833  0.6517
18431TIP3    H176784   1.319   2.486   1.424  1.5811 -1.5314 -0.1253
18431TIP3    H276785   1.203   2.398   1.382  0.1131  0.3308 -0.1431
18432TIP3   OH276786   3.804   1.775   5.448  0.3531 -0.0578 -0.0525
18432TIP3    H176787   3.836   1.849   5.397  1.5241  0.2391  1.0557
18432TIP3    H276788   3.740   1.813   5.507  0.8801  0.0713  0.4464
18433TIP3   OH276789   6.748   6.077   5.751  0.1808 -0.9264 -0.2336
18433TIP3    H176790   6.776   6.031   5.831  2.4693  1.1514  0.2845
18433TIP3    H276791   6.825   6.075   5.694 -0.5696 -0.1365 -1.3205
18434TIP3   OH276792   3.727   5.645  11.667  0.6525  0.0590  0.5323
18434TIP3    H176793   3.748   5.588  11.741  1.2980 -1.2158 -0.5929
18434TIP3    H276794   3.726   5.586  11.592  2.1457  1.6594 -0.8031
18435TIP3   OH276795   2.463   4.224  14.697  0.8248 -0.3162  0.4896
18435TIP3    H176796   2.425   4.137  14.711 -0.2215 -0.0658 -0.5973
18435TIP3    H276797   2.456   4.267  14.782 -0.0941 -0.7625  0.6544
18436TIP3   OH276798   1.574   6.727  14.271  0.2875  0.1955 -0.3251
18436TIP3    H176799   1.520   6.650  14.290 -0.2275 -0.0124 -2.3683
18436TIP3    H276800   1.527   6.799  14.313 -0.7859 -0.2047 -0.7958
18437TIP3   OH276801   3.132   5.943  16.738  0.0501 -0.2416 -0.2590
18437TIP3    H176802   3.110   5.884  16.666 -0.5422 -0.3840  0.0380
18437TIP3    H276803   3.097   6.028  16.712  0.0658 -0.2344 -0.2579
18438TIP3   OH276804   2.791   0.895  11.641 -0.0304 -0.2140  0.3529
18438TIP3    H176805   2.728   0.966  11.655 -2.2725 -1.8616 -0.7218
18438TIP3    H276806   2.820   0.906  11.550 -0.4533 -0.7307  0.1564
18439TIP3   OH276807   2.551   0.172  16.732 -0.1328  0.1757 -0.7913
18439TIP3    H176808   2.624   0.233  16.723  0.3798 -0.1771  0.7953
18439TIP3    H276809   2.588   0.097  16.778 -1.3055 -0.3624 -0.7021
18440TIP3   OH276810   5.926   0.270   2.394 -0.9496 -0.2557  0.4070
18440TIP3    H176811   5.932   0.359   2.427  2.5685 -0.1300 -0.2517
18440TIP3    H276812   5.942   0.215   2.471  0.9591 -0.1460  0.1224
18441TIP3   OH276813   3.864   0.582   2.249  0.3235 -1.0940  0.2377
18441TIP3    H176814   3.914   0.507   2.281  0.4568 -0.5290  1.3702
18441TIP3    H276815   3.791   0.591   2.310 -1.5935 -2.2847 -1.7279
18442TIP3   OH276816   1.937   6.695  16.818  0.2699  0.1717 -0.1075
18442TIP3    H176817   1.902   6.610  16.844  1.2804 -0.1679  0.1891
18442TIP3    H276818   1.860   6.746  16.793 -0.4449 -0.4812  0.7022
18443TIP3   OH276819   3.638   4.399   0.183  0.0384 -0.0531  0.0365
18443TIP3    H176820   3.552   4.397   0.141  0.4614  2.2122 -1.0544
18443TIP3    H276821   3.683   4.474   0.144  1.7910  0.0234  2.0002
18444TIP3   OH276822   4.064   5.640  11.881 -0.5664  0.0686 -0.2957
18444TIP3    H176823   4.012   5.708  11.923 -1.3415 -0.5020 -0.3112
18444TIP3    H276824   4.033   5.558  11.921 -0.4378 -0.3702 -1.0818
18445TIP3   OH276825   5.760   3.316  17.044 -0.0440 -0.3516 -0.8954
18445TIP3    H176826   5.782   3.230  17.080 -0.1063 -0.4357 -1.0532
18445TIP3    H276827   5.749   3.372  17.120  0.0515 -0.4716 -0.7912
18446TIP3   OH276828   1.032   1.113   0.496  0.3115  0.2437  0.1092
18446TIP3    H176829   1.037   1.187   0.436 -0.7608 -0.4122 -0.8352
18446TIP3    H276830   1.092   1.135   0.567 -0.8353  2.5808  0.4676
18447TIP3   OH276831   0.133   2.326   0.361  0.5255 -0.0420  0.5719
18447TIP3    H176832   0.096   2.319   0.273 -1.7613 -0.7519  1.5134
18447TIP3    H276833   0.135   2.420   0.379 -2.7316  0.0458  1.1340
18448TIP3   OH276834   0.053   0.210  12.617 -0.5705 -0.0347 -0.6503
18448TIP3    H176835   0.073   0.159  12.538 -0.0149 -0.2259 -0.3965
18448TIP3    H276836  -0.031   0.177  12.646  0.2036 -1.4988  0.0396
18449TIP3   OH276837   2.660   1.055   6.212  0.7814 -0.2017  0.2628
18449TIP3    H176838   2.608   1.022   6.139 -1.4476  0.2220  1.5770
18449TIP3    H276839   2.648   0.991   6.281  3.5462 -1.0404  0.1218
18450TIP3   OH276840   5.655   4.183   2.308  0.4550 -0.1195 -0.1532
18450TIP3    H176841   5.611   4.263   2.280 -1.1393 -1.3734 -1.4931
18450TIP3    H276842   5.724   4.212   2.367 -1.5595  2.0634  1.2965
18451TIP3   OH276843   4.162   2.753  12.104 -0.8639 -0.1969  1.0030
18451TIP3    H176844   4.153   2.837  12.059  2.9957  0.3857  0.9903
18451TIP3    H276845   4.121   2.766  12.189 -1.4186  1.2829  0.5305
18452TIP3   OH276846   6.631   6.247   1.157 -0.7121  0.6799  0.3722
18452TIP3    H176847   6.545   6.271   1.124 -1.0899 -0.5494  0.4156
18452TIP3    H276848   6.617   6.227   1.250 -0.8228 -1.5269 -0.0728
18453TIP3   OH276849   1.467   2.390   4.870 -0.1566  0.2568 -0.8537
18453TIP3    H176850   1.519   2.332   4.925 -1.2672  0.7479  0.8014
18453TIP3    H276851   1.488   2.364   4.781 -0.7867 -2.8704 -0.2049
18454TIP3   OH276852   4.227   0.778   3.601  0.2421 -0.0428  0.3911
18454TIP3    H176853   4.304   0.747   3.554  1.0808 -1.0335  2.2873
18454TIP3    H276854   4.240   0.748   3.691 -1.8797  0.6516  1.0011
18455TIP3   OH276855   2.154   4.659  12.485 -0.0333  0.1127 -0.3734
18455TIP3    H176856   2.173   4.752  12.498 -1.0256  0.2657  0.0965
18455TIP3    H276857   2.162   4.646  12.391  0.9120  0.4852 -0.3515
18456TIP3   OH276858   4.114   5.693   2.108  0.1037 -0.1280  0.5825
18456TIP3    H176859   4.137   5.691   2.201  1.5035 -0.2972  0.2521
18456TIP3    H276860   4.134   5.605   2.077 -0.6879 -0.1736  0.1900
18457TIP3   OH276861   5.886   5.828   3.514 -0.3132 -0.0320 -0.7376
18457TIP3    H176862   5.855   5.745   3.478 -0.4299  0.6835 -2.3510
18457TIP3    H276863   5.808   5.884   3.517 -1.1677 -1.0214  3.9115
18458TIP3   OH276864   2.448   3.756   2.618 -0.7367  0.1365  0.0420
18458TIP3    H176865   2.380   3.713   2.567  0.2319 -1.7368  0.2587
18458TIP3    H276866   2.419   3.748   2.709 -0.3092 -0.5462  0.1240
18459TIP3   OH276867   0.117   5.117   3.511 -0.2239 -0.4724  0.0957
18459TIP3    H176868   0.042   5.076   3.554 -0.0532 -1.3915 -0.4438
18459TIP3    H276869   0.184   5.049   3.511  0.4538  0.1936  0.1709
18460TIP3   OH276870   5.525   1.533   0.690 -0.4970 -0.0669 -0.3720
18460TIP3    H176871   5.599   1.554   0.632 -0.6630 -1.1544 -1.0122
18460TIP3    H276872   5.559   1.467   0.750 -0.1972  1.3726  1.1175
18461TIP3   OH276873   0.772   3.413   1.070 -0.1769  0.2745  0.2337
18461TIP3    H176874   0.691   3.429   1.021 -1.1422  0.0326  1.6907
18461TIP3    H276875   0.800   3.325   1.043 -0.2811  0.4404 -0.4226
18462TIP3   OH276876   0.072   0.809   0.399 -0.2570 -0.0201  0.2957
18462TIP3    H176877   0.150   0.758   0.419 -0.2727  0.4625  1.7208
18462TIP3    H276878   0.005   0.774   0.458 -0.8020  0.3327 -0.1055
18463TIP3   OH276879   5.973   4.237   6.657  0.0685  0.4807  0.1883
18463TIP3    H176880   6.052   4.291   6.655 -0.0878  0.7727  1.2906
18463TIP3    H276881   5.981   4.186   6.738  0.4254 -1.5109 -1.0205
18464TIP3   OH276882   4.034   0.962   3.149 -0.0594 -0.5484  0.6595
18464TIP3    H176883   4.082   1.016   3.087 -0.4084 -1.2259 -0.2223
18464TIP3    H276884   4.035   0.874   3.111  0.0549 -1.0669  1.8090
18465TIP3   OH276885   2.519   6.564   5.114  0.0542  0.4100  0.4502
18465TIP3    H176886   2.535   6.593   5.204  2.1982  1.0559 -0.0683
18465TIP3    H276887   2.585   6.611   5.062 -1.5752  0.5786 -1.5705
18466TIP3   OH276888   1.854   3.631   3.593  0.3348 -0.0199 -0.6392
18466TIP3    H176889   1.913   3.561   3.621  0.0726 -0.0549 -0.1700
18466TIP3    H276890   1.781   3.628   3.655  0.3089  0.6547 -0.6295
18467TIP3   OH276891   6.169   6.023  10.799  0.0490 -0.0186  0.4110
18467TIP3    H176892   6.170   6.103  10.851  2.0941  0.5405 -0.3967
18467TIP3    H276893   6.204   5.956  10.858  1.1990  0.3514  0.1728
18468TIP3   OH276894   2.682   2.182   3.894  0.3769  0.1096  0.5786
18468TIP3    H176895   2.630   2.102   3.887 -0.2803  0.5560  0.1987
18468TIP3    H276896   2.727   2.176   3.978  1.2800 -1.2091  0.0281
18469TIP3   OH276897   0.080   3.527  15.937  0.7342  0.3905  0.8084
18469TIP3    H176898   0.104   3.502  16.026 -0.4617 -3.7894  0.1771
18469TIP3    H276899   0.150   3.490  15.883 -0.2109 -0.0604 -0.1342
18470TIP3   OH276900   1.899   6.736  14.516 -0.0501 -0.5843  0.0111
18470TIP3    H176901   1.886   6.734  14.611 -0.4033  0.4732 -0.0021
18470TIP3    H276902   1.817   6.704  14.480  0.2539 -1.4486  0.0570
18471TIP3   OH276903   2.222   4.016   3.704 -0.1551  0.2581 -0.0245
18471TIP3    H176904   2.194   4.077   3.635  1.0076 -0.5330 -1.2383
18471TIP3    H276905   2.290   3.962   3.663  0.9420  0.0862  1.8984
18472TIP3   OH276906   2.973   3.960   1.734 -0.4157  0.0315  0.2302
18472TIP3    H176907   2.978   3.950   1.639 -0.1270  1.4443  0.0779
18472TIP3    H276908   2.897   4.016   1.748 -0.0231  0.4426  0.7682
18473TIP3   OH276909   4.088   1.095   5.757 -0.5602 -0.7166 -0.1611
18473TIP3    H176910   4.015   1.077   5.697 -0.0883 -0.0487 -0.9606
18473TIP3    H276911   4.147   1.021   5.744 -1.5092 -1.7654  1.2006
18474TIP3   OH276912   5.264   1.905   0.882 -0.1478 -0.2527 -0.0576
18474TIP3    H176913   5.357   1.923   0.890 -0.1499  1.3890 -2.5913
18474TIP3    H276914   5.260   1.814   0.852  0.6510 -0.3066 -0.0274
18475TIP3   OH276915   0.803   4.897   6.092  0.2775  0.5274 -0.0445
18475TIP3    H176916   0.821   4.805   6.077 -1.2120 -0.1536  1.8426
18475TIP3    H276917   0.888   4.940   6.085  0.9580 -0.9316 -1.1973
18476TIP3   OH276918   3.375   2.413  16.161 -0.1404  0.0312 -0.6574
18476TIP3    H176919   3.287   2.431  16.193 -0.5923 -1.9353 -0.6303
18476TIP3    H276920   3.362   2.383  16.071  0.4389 -0.6103 -0.5401
18477TIP3   OH276921   2.633   3.152  17.133 -0.0122  0.0628  0.1974
18477TIP3    H176922   2.666   3.095  17.063  2.2141  0.4096  0.8939
18477TIP3    H276923   2.538   3.154  17.120  0.2093 -1.0171 -1.9351
18478TIP3   OH276924   6.709   4.550   5.193  0.2297 -0.0235 -0.0256
18478TIP3    H176925   6.690   4.456   5.200  0.7083 -0.3214 -2.0152
18478TIP3    H276926   6.801   4.557   5.218 -0.2321  0.1867  1.6982
18479TIP3   OH276927   2.576   2.018  14.365 -0.3955  0.4518 -0.0671
18479TIP3    H176928   2.593   1.930  14.398  2.0532  0.6964 -0.4909
18479TIP3    H276929   2.547   2.067  14.441  1.1001 -0.0139  0.8369
18480TIP3   OH276930   3.730   6.124   6.081 -0.2003  0.2246  0.0668
18480TIP3    H176931   3.783   6.054   6.119 -0.7729  0.0604  0.5882
18480TIP3    H276932   3.749   6.201   6.135  0.5692  0.5334 -0.6201
18481TIP3   OH276933   2.373   0.491  14.284  0.4980  0.0218  0.3238
18481TIP3    H176934   2.333   0.545  14.352  1.9573 -2.1000  3.1103
18481TIP3    H276935   2.307   0.424  14.265  0.3269  0.2407  0.1492
18482TIP3   OH276936   5.005   3.624   0.355 -0.2316  0.2145  0.3807
18482TIP3    H176937   4.927   3.621   0.411  0.2418  1.5971  1.1558
18482TIP3    H276938   4.971   3.643   0.268 -0.9171 -1.2139  0.3083
18483TIP3   OH276939   4.243   4.513  16.247 -0.0348 -0.4889  0.0352
18483TIP3    H176940   4.303   4.584  16.272  1.7906 -1.3287 -1.7099
18483TIP3    H276941   4.179   4.510  16.318  1.0840  1.4817  1.2204
18484TIP3   OH276942   4.100   4.880   1.695  0.7269 -0.4606  0.2816
18484TIP3    H176943   4.133   4.802   1.738  0.8366 -0.3314  0.4330
18484TIP3    H276944   4.007   4.861   1.679  1.3181 -1.6573 -2.0387
18485TIP3   OH276945   2.149   1.587   2.306 -0.1149 -0.6747 -0.0513
18485TIP3    H176946   2.159   1.669   2.259 -1.6792 -0.6850 -0.4731
18485TIP3    H276947   2.059   1.589   2.339 -0.1443 -2.1465  0.0445
18486TIP3   OH276948   5.062   5.262   5.848 -0.4969 -0.1251  0.3132
18486TIP3    H176949   5.111   5.225   5.921 -1.0244 -0.3140  0.5696
18486TIP3    H276950   5.124   5.261   5.775 -0.0466 -0.1591  0.6909
18487TIP3   OH276951   2.587   2.735  16.931  0.1535 -0.0971 -0.1215
18487TIP3    H176952   2.665   2.785  16.910  1.3561 -2.0819 -0.6701
18487TIP3    H276953   2.537   2.733  16.849 -0.7442  1.5294  0.3417
18488TIP3   OH276954   0.515   2.477  11.098 -0.1275 -0.1835  0.1867
18488TIP3    H176955   0.538   2.545  11.035 -0.6079  0.6515  0.8872
18488TIP3    H276956   0.493   2.401  11.044  2.0809 -0.3651 -0.5731
18489TIP3   OH276957   5.708   2.500  14.163  0.2494 -0.1417 -0.5399
18489TIP3    H176958   5.783   2.473  14.111  0.0748  0.8100 -1.3120
18489TIP3    H276959   5.642   2.525  14.099 -0.5396 -0.4454  0.1340
18490TIP3   OH276960   4.995   0.659  13.848 -0.2536  0.1413  0.0126
18490TIP3    H176961   4.901   0.659  13.832 -0.3586  0.7922  0.5836
18490TIP3    H276962   5.009   0.734  13.906  0.5643 -0.1638  0.2166
18491TIP3   OH276963   4.831   1.776  16.870 -0.3819  0.8919  0.7157
18491TIP3    H176964   4.753   1.816  16.906 -0.4511  0.6689  0.8130
18491TIP3    H276965   4.902   1.802  16.929 -0.5117  0.4417  1.0691
18492TIP3   OH276966   0.041   3.549   3.108 -0.0498 -0.6198 -0.3558
18492TIP3    H176967   0.025   3.613   3.177 -2.7877  0.7696 -2.1168
18492TIP3    H276968   0.011   3.466   3.145  0.9602 -0.4168  0.9928
18493TIP3   OH276969   6.317   0.876   1.740 -0.1677  0.1846  0.5833
18493TIP3    H176970   6.228   0.868   1.774 -0.0426 -0.3646  0.7958
18493TIP3    H276971   6.306   0.918   1.655 -0.4849  1.5240  1.2537
18494TIP3   OH276972   1.803   2.265   5.568  0.1017  0.5165  0.3230
18494TIP3    H176973   1.836   2.200   5.630 -0.7446  0.3106  0.5645
18494TIP3    H276974   1.757   2.329   5.622  0.3247  0.9487  0.0121
18495TIP3   OH276975   2.460   0.438  14.018  0.0813 -0.0578  0.3190
18495TIP3    H176976   2.443   0.434  14.112 -2.6763 -0.1307 -0.1027
18495TIP3    H276977   2.383   0.482  13.981  1.1893  0.1656 -1.8842
18496TIP3   OH276978   6.511   0.430   1.531 -0.6578 -0.1214 -0.0781
18496TIP3    H176979   6.566   0.384   1.594  0.5266 -1.5131 -1.9998
18496TIP3    H276980   6.521   0.380   1.450 -1.2764  2.1553 -1.6649
18497TIP3   OH276981   4.906   2.799   3.620  0.4587  0.9380  0.2187
18497TIP3    H176982   4.869   2.759   3.541 -1.5258 -0.4247  1.7210
18497TIP3    H276983   4.878   2.890   3.617 -2.6489  0.1183  0.9460
18498TIP3   OH276984   4.017   3.062   0.460 -0.3008  0.2134 -0.4387
18498TIP3    H176985   3.992   3.039   0.549  1.4610  0.0865  0.0560
18498TIP3    H276986   3.952   3.127   0.433 -1.1004 -0.0513  0.7768
18499TIP3   OH276987   6.025   6.207   0.843 -0.5126  0.3819  0.1362
18499TIP3    H176988   6.107   6.250   0.820 -1.5327  1.6175 -1.4539
18499TIP3    H276989   6.033   6.119   0.807  0.7480 -0.0930  1.4924
18500TIP3   OH276990   5.684   0.978  16.117 -0.4201  0.5035  0.0600
18500TIP3    H176991   5.778   0.996  16.124 -0.2106 -1.1887  2.7728
18500TIP3    H276992   5.644   1.064  16.108  1.1085  1.7421  3.6232
18501TIP3   OH276993   6.407   0.038  15.836  0.6137  0.4906  0.1744
18501TIP3    H176994   6.358   0.019  15.916  0.1202 -0.3257 -0.2997
18501TIP3    H276995   6.406   0.133  15.829 -1.5123  0.4801 -0.1665
18502TIP3   OH276996   5.164   3.053   3.859 -0.1582 -0.0803 -0.5334
18502TIP3    H176997   5.129   3.115   3.795  0.6230  1.3573  0.3901
18502TIP3    H276998   5.237   3.099   3.900  0.8061 -1.8259 -0.1896
18503TIP3   OH276999   5.772   4.547  15.856 -0.2889 -0.2630  0.0376
18503TIP3    H177000   5.802   4.625  15.902 -0.6477  0.0038 -0.1826
18503TIP3    H277001   5.845   4.485  15.864  0.2638  0.3278 -0.3774
18504TIP3   OH277002   1.342   6.780   5.360  0.4572  0.1575  0.3488
18504TIP3    H177003   1.412   6.836   5.328 -0.6836  1.3153 -0.1964
18504TIP3    H277004   1.290   6.759   5.283 -0.7143  0.6688  0.9641
18505TIP3   OH277005   4.240   3.398  14.825  0.0720  0.3628 -0.0438
18505TIP3    H177006   4.300   3.349  14.769  1.2489 -0.5297  1.8786
18505TIP3    H277007   4.155   3.358  14.809  0.7713 -1.4144  0.4117
18506TIP3   OH277008   4.345   5.650  12.200 -0.0236  0.6671 -0.5364
18506TIP3    H177009   4.253   5.673  12.184  0.1052  0.4932 -1.6204
18506TIP3    H277010   4.353   5.560  12.170  0.6065  0.8460 -0.9418
18507TIP3   OH277011   5.512   3.944   0.751  0.1128 -0.6604 -0.4071
18507TIP3    H177012   5.434   3.944   0.807  0.1766  1.3328 -0.2703
18507TIP3    H277013   5.487   3.889   0.676 -1.2852 -0.3643 -0.1842
18508TIP3   OH277014   0.393   4.960   2.556 -0.1445  0.3120  0.6719
18508TIP3    H177015   0.409   4.870   2.529 -2.8907 -0.0398 -0.0913
18508TIP3    H277016   0.392   4.957   2.652 -0.6719 -0.5953  0.6468
18509TIP3   OH277017   3.910   0.694   4.877  0.4512 -0.4717  0.1017
18509TIP3    H177018   3.821   0.728   4.870  0.7281  0.3652  0.4384
18509TIP3    H277019   3.962   0.769   4.907  1.2150 -1.0250  0.2047
18510TIP3   OH277020   0.568   0.795  12.855  0.2069  0.0679  0.3668
18510TIP3    H177021   0.570   0.725  12.791  1.5961 -0.9040  1.4007
18510TIP3    H277022   0.480   0.832  12.848  0.0660 -0.5177 -1.5074
18511TIP3   OH277023   5.977   4.450   5.534 -0.0074 -0.4754 -0.1454
18511TIP3    H177024   5.960   4.376   5.476 -3.0319  1.3028 -1.7957
18511TIP3    H277025   5.928   4.430   5.614  0.5198 -0.9463  0.0663
18512TIP3   OH277026   5.888   5.366   6.089 -0.2152 -0.0048 -0.0470
18512TIP3    H177027   5.953   5.405   6.148  0.5049 -1.2599  0.0278
18512TIP3    H277028   5.897   5.272   6.103 -2.8667 -0.2146  0.8306
18513TIP3   OH277029   0.781   2.502   0.133  0.3827  0.2241  0.3963
18513TIP3    H177030   0.785   2.419   0.181 -0.1802  0.4889  0.9067
18513TIP3    H277031   0.829   2.564   0.187 -0.2269  0.5159  0.6119
18514TIP3   OH277032   1.936   4.172   6.569 -0.0541 -0.3768 -0.2610
18514TIP3    H177033   2.000   4.139   6.506 -0.7745  0.8374 -1.7075
18514TIP3    H277034   1.873   4.219   6.515 -1.9400 -1.1573  1.1551
18515TIP3   OH277035   5.206   5.827  16.198  0.4713 -0.2321  0.1066
18515TIP3    H177036   5.164   5.819  16.283 -0.8932 -1.0316 -0.6147
18515TIP3    H277037   5.149   5.885  16.148  0.6044 -0.7297 -0.6480
18516TIP3   OH277038   1.240   2.989  14.651  0.0953 -0.0161 -0.1284
18516TIP3    H177039   1.312   2.990  14.714  0.6120  1.2996 -0.7125
18516TIP3    H277040   1.274   3.035  14.575 -1.4935  1.0009 -0.2606
18517TIP3   OH277041   5.573   6.393  15.724 -0.4917  0.3882 -0.3798
18517TIP3    H177042   5.558   6.467  15.665 -0.0220 -0.7533 -1.9994
18517TIP3    H277043   5.601   6.322  15.667  2.4253 -0.1182  1.4711
18518TIP3   OH277044   6.731   6.368  11.938  0.3472 -0.0098 -0.1281
18518TIP3    H177045   6.802   6.312  11.968  0.2256 -0.6054 -0.9157
18518TIP3    H277046   6.774   6.450  11.914  0.2837  1.0143  2.8952
18519TIP3   OH277047   1.804   1.718   0.809 -0.4616 -0.5554  0.2457
18519TIP3    H177048   1.726   1.773   0.816 -1.0437 -1.3910  0.4955
18519TIP3    H277049   1.789   1.647   0.871 -0.4729 -1.8579 -1.1739
18520TIP3   OH277050   1.869   1.374  11.059 -0.8362 -0.0980  0.0785
18520TIP3    H177051   1.796   1.314  11.073 -1.2334  0.4541  0.4152
18520TIP3    H277052   1.830   1.462  11.066 -0.1822  0.2000  0.0707
18521TIP3   OH277053   4.745   6.194   3.238 -0.3459  0.0813 -0.1623
18521TIP3    H177054   4.733   6.099   3.245 -0.0293 -0.1039 -1.7733
18521TIP3    H277055   4.684   6.230   3.303 -0.1534 -1.2215  0.7960
18522TIP3   OH277056   3.830   0.919   2.189  0.7541  0.0547  0.2464
18522TIP3    H177057   3.858   0.980   2.121  0.0879  0.2658  0.1584
18522TIP3    H277058   3.894   0.930   2.259  1.2785  0.0408 -0.2255
18523TIP3   OH277059   6.075   6.383   2.286 -0.3676  0.4991  0.0287
18523TIP3    H177060   6.152   6.339   2.323 -0.3444 -1.4352 -2.1169
18523TIP3    H277061   6.106   6.472   2.269  1.1827  0.0009 -0.0056
18524TIP3   OH277062   2.805   1.345   3.032  0.0206 -0.4021 -0.2071
18524TIP3    H177063   2.776   1.429   3.069  0.9077  0.2248 -0.8655
18524TIP3    H277064   2.895   1.335   3.064  0.0899 -0.8578 -0.5416
18525TIP3   OH277065   2.325   3.319   5.195 -0.1850 -0.4991  0.1267
18525TIP3    H177066   2.310   3.414   5.204 -1.3846 -0.8165  2.1816
18525TIP3    H277067   2.310   3.301   5.102  0.6020  1.3924 -0.4137
18526TIP3   OH277068   5.776   2.909  11.492  0.1811 -0.4135 -0.0780
18526TIP3    H177069   5.758   2.991  11.446  0.6032 -0.9246 -1.1963
18526TIP3    H277070   5.855   2.927  11.542 -0.0979  0.0590  0.1978
18527TIP3   OH277071   0.907   5.180  16.771 -0.0897  0.0664  0.2448
18527TIP3    H177072   0.872   5.092  16.787 -1.4367  0.5880  0.3054
18527TIP3    H277073   0.910   5.188  16.676 -1.0282  0.3382  0.2276
18528TIP3   OH277074   0.976   1.801  11.949 -0.0244  0.2488 -0.1257
18528TIP3    H177075   0.961   1.864  12.020  0.9717 -0.0409  0.3564
18528TIP3    H277076   0.888   1.767  11.928 -0.3091  0.1660  1.1323
18529TIP3   OH277077   4.813   6.231   4.766 -0.3989  0.9051 -0.2467
18529TIP3    H177078   4.866   6.298   4.809  0.4364 -0.3097  0.7104
18529TIP3    H277079   4.731   6.275   4.744  0.6498  2.6067 -0.9611
18530TIP3   OH277080   3.109   5.455  13.895  0.1931 -0.2414 -0.3621
18530TIP3    H177081   3.162   5.518  13.942 -0.6117 -0.4120  0.8269
18530TIP3    H277082   3.169   5.414  13.832  1.1206  0.4917  0.0270
18531TIP3   OH277083   6.101   5.435  16.419 -0.5187 -0.4117 -0.2985
18531TIP3    H177084   6.126   5.343  16.410 -2.4875 -0.9433 -0.7335
18531TIP3    H277085   6.145   5.478  16.346  0.6861 -0.9288  0.0984
18532TIP3   OH277086   3.128   2.888   4.882 -0.0075 -0.0698  0.7096
18532TIP3    H177087   3.159   2.979   4.881  0.0847 -0.0916 -0.8624
18532TIP3    H277088   3.182   2.843   4.817  0.7157 -1.5472  2.2675
18533TIP3   OH277089   5.628   4.066  12.527  0.1440 -0.7179  0.2758
18533TIP3    H177090   5.564   3.995  12.519 -0.3528 -0.0622 -2.9155
18533TIP3    H277091   5.576   4.146  12.519  0.9980 -0.0227  1.2780
18534TIP3   OH277092   0.498   3.932   6.316  0.3245  0.3045  0.1705
18534TIP3    H177093   0.531   3.980   6.391  2.2540 -1.1493  0.3335
18534TIP3    H277094   0.404   3.922   6.332  0.5752  0.6546  2.0017
18535TIP3   OH277095   4.217   6.735   3.836  0.3150  0.2639  0.3226
18535TIP3    H177096   4.173   6.708   3.916  0.7087  1.2228  0.8799
18535TIP3    H277097   4.198   6.829   3.829 -0.4116  0.0374 -1.1536
18536TIP3   OH277098   1.172   2.122  12.713 -0.1614  0.7828 -0.0422
18536TIP3    H177099   1.148   2.118  12.620 -1.0613 -0.9718  0.2264
18536TIP3    H277100   1.191   2.032  12.737  0.6293  1.2895  1.3573
18537TIP3   OH277101   3.762   6.173  14.240  0.3205  0.0729 -0.0605
18537TIP3    H177102   3.857   6.181  14.234  0.4265 -0.7761  0.3696
18537TIP3    H277103   3.728   6.239  14.180  1.1854 -0.2728 -0.9432
18538TIP3   OH277104   2.601   5.007  15.426 -0.3101 -0.1131  0.0731
18538TIP3    H177105   2.533   4.943  15.449 -0.1599  0.1390  1.2792
18538TIP3    H277106   2.560   5.092  15.446  0.2763  0.0477  0.6226
18539TIP3   OH277107   0.282   3.000  12.123  0.1081  0.6604  0.0764
18539TIP3    H177108   0.215   2.972  12.061 -0.5711  1.4817  0.4228
18539TIP3    H277109   0.235   3.015  12.205  0.8964  0.1694  0.6299
18540TIP3   OH277110   1.059   2.951   3.327 -0.0220 -0.0188  0.0186
18540TIP3    H177111   0.977   2.922   3.366  0.8310 -2.1253  0.3729
18540TIP3    H277112   1.044   3.043   3.305 -1.2099  0.7662  3.4795
18541TIP3   OH277113   0.158   5.519  15.114  0.8759  0.1713  0.6279
18541TIP3    H177114   0.207   5.453  15.065  1.1625 -0.4232  1.6934
18541TIP3    H277115   0.140   5.588  15.050  0.2244 -1.1038 -0.6212
18542TIP3   OH277116   1.925   1.392  11.890 -0.3457 -0.7165  0.1436
18542TIP3    H177117   1.964   1.414  11.805 -0.7829 -0.4040  0.0188
18542TIP3    H277118   1.831   1.406  11.877 -0.2329  1.6579  1.3522
18543TIP3   OH277119   1.176   4.380   2.099  0.1187 -0.2325  0.2684
18543TIP3    H177120   1.089   4.379   2.139 -0.6538 -0.1518 -1.3466
18543TIP3    H277121   1.228   4.437   2.156 -0.7484 -0.6231  1.4907
18544TIP3   OH277122   3.039   1.227   1.931  0.4557 -0.5618 -0.5657
18544TIP3    H177123   2.975   1.167   1.969  0.6744 -0.8558 -0.6620
18544TIP3    H277124   3.102   1.170   1.887  0.2482 -0.2366 -1.3036
18545TIP3   OH277125   4.532   3.189  16.403  0.0928  0.3463  0.2658
18545TIP3    H177126   4.608   3.130  16.409 -0.5255 -0.3541  1.6514
18545TIP3    H277127   4.511   3.210  16.494 -2.0460 -0.3539 -0.0128
18546TIP3   OH277128   6.605   4.870   0.060  0.2824  1.0667  0.2577
18546TIP3    H177129   6.639   4.795   0.108  0.7647  1.1165 -0.0015
18546TIP3    H277130   6.541   4.909   0.119 -0.7278 -0.1366  0.0040
18547TIP3   OH277131   6.488   6.273  12.576  0.1803  0.2113 -0.3790
18547TIP3    H177132   6.570   6.228  12.554 -0.6083 -2.0372  0.9638
18547TIP3    H277133   6.507   6.365  12.561  3.4168 -0.0705  1.1203
18548TIP3   OH277134   0.224   3.951   6.334 -0.5470  0.0684 -0.7212
18548TIP3    H177135   0.135   3.917   6.345 -0.2848  0.1380  2.7027
18548TIP3    H277136   0.217   4.044   6.351  0.1414  0.1326 -0.7464
18549TIP3   OH277137   4.161   6.069   3.974  0.0060 -0.0924 -0.1068
18549TIP3    H177138   4.165   6.144   3.914  3.0459 -0.3613 -0.4224
18549TIP3    H277139   4.236   6.014   3.949 -2.3749 -3.5919 -0.2453
18550TIP3   OH277140   6.281   4.735   2.086  0.4087  0.2997 -0.1767
18550TIP3    H177141   6.294   4.830   2.076  1.8349 -0.0753 -2.6762
18550TIP3    H277142   6.334   4.712   2.162  1.1744  1.3001 -0.3857
18551TIP3   OH277143   0.011   1.211  12.191  0.5683  0.5295  0.0717
18551TIP3    H177144  -0.031   1.127  12.209  1.6343 -0.3002 -1.1283
18551TIP3    H277145  -0.039   1.248  12.118  1.9427 -0.5580 -1.5025
18552TIP3   OH277146   4.997   6.315   2.272 -0.8788 -0.7421  0.4117
18552TIP3    H177147   5.025   6.330   2.363  1.5646  3.0085 -0.7107
18552TIP3    H277148   4.926   6.377   2.258 -1.1975 -1.2497 -0.2599
18553TIP3   OH277149   1.879   3.056  13.711 -0.5561 -0.5784  0.0795
18553TIP3    H177150   1.877   3.020  13.800  1.8100 -0.4556  0.2381
18553TIP3    H277151   1.962   3.026  13.674  0.4876  2.6645 -0.5981
18554TIP3   OH277152   0.184   6.573  11.881 -0.0495  0.4361  0.6988
18554TIP3    H177153   0.214   6.621  11.805 -0.1351  0.0164  0.3964
18554TIP3    H277154   0.262   6.533  11.918  0.1244  1.3201  1.3264
18555TIP3   OH277155   6.525   1.860  11.988 -0.0903  0.2116  0.1298
18555TIP3    H177156   6.430   1.864  11.998  0.0016 -0.5499  1.4246
18555TIP3    H277157   6.550   1.951  11.968 -0.9565  0.6808  1.0721
18556TIP3   OH277158   6.225   1.991   5.614 -0.5179  0.7230 -0.1693
18556TIP3    H177159   6.184   2.071   5.646  0.0944  0.5017  1.2530
18556TIP3    H277160   6.152   1.935   5.587 -1.0704  0.9601  0.7855
18557TIP3   OH277161   6.606   5.391   3.906  0.4403  0.2750  0.0780
18557TIP3    H177162   6.529   5.378   3.851  0.4498  1.5302 -0.2660
18557TIP3    H277163   6.573   5.438   3.983  0.6140 -0.5413  0.6754
18558TIP3   OH277164   0.150   2.440  14.353  0.1103 -0.1155  0.8137
18558TIP3    H177165   0.115   2.486  14.277 -0.7209  0.7755  1.7065
18558TIP3    H277166   0.193   2.362  14.316 -1.7453 -0.6190 -0.4272
18559TIP3   OH277167   2.739   2.905   0.846  0.1316 -0.0528 -0.1509
18559TIP3    H177168   2.676   2.912   0.918  0.2156  1.0271 -0.1686
18559TIP3    H277169   2.820   2.940   0.882  0.4190 -0.3629 -0.4925
18560TIP3   OH277170   3.633   2.392  15.417  0.0081 -0.0592  0.5832
18560TIP3    H177171   3.576   2.315  15.423  1.2323 -1.2657 -2.0435
18560TIP3    H277172   3.716   2.363  15.455  0.6045 -0.2130 -0.8000
18561TIP3   OH277173   6.067   4.565   0.607  0.1889  0.0187  0.1973
18561TIP3    H177174   5.986   4.616   0.600  0.4026  0.0935 -3.5838
18561TIP3    H277175   6.137   4.630   0.613  0.1380 -0.0453  2.6126
18562TIP3   OH277176   4.201   3.539   2.111 -0.3680 -0.4242 -0.7713
18562TIP3    H177177   4.111   3.549   2.144  0.0738  1.7879 -0.0819
18562TIP3    H277178   4.247   3.495   2.183 -0.5922 -0.3187 -0.5573
18563TIP3   OH277179   1.563   5.795   2.445 -0.0209  0.5168  0.3324
18563TIP3    H177180   1.551   5.706   2.478 -0.8271  0.4620 -0.0965
18563TIP3    H277181   1.645   5.824   2.486  0.5165 -0.5939  0.0873
18564TIP3   OH277182   0.395   3.544   4.993  0.3496  0.6412 -0.0076
18564TIP3    H177183   0.306   3.521   4.963 -0.8309  3.1985  1.2540
18564TIP3    H277184   0.434   3.460   5.016 -2.7201 -0.4481  1.8955
18565TIP3   OH277185   3.838   0.139   0.812 -0.9600  0.3300 -0.1566
18565TIP3    H177186   3.868   0.065   0.760  2.0292  0.6206  0.9447
18565TIP3    H277187   3.813   0.101   0.896 -0.4265  0.4346  0.0539
18566TIP3   OH277188   2.024   3.970  16.852 -0.5138  0.6310  0.0893
18566TIP3    H177189   2.037   4.015  16.769 -0.5030 -0.8111 -0.7250
18566TIP3    H277190   2.112   3.958  16.887 -0.5564  1.7894  0.6370
18567TIP3   OH277191   3.287   0.672   1.101  0.5807 -0.1186 -0.5894
18567TIP3    H177192   3.302   0.755   1.055 -0.7448  0.5942  0.1837
18567TIP3    H277193   3.224   0.695   1.170  1.7398 -1.3595  0.9507
18568TIP3   OH277194   5.551   1.916  11.379  0.3776  0.0599 -0.2951
18568TIP3    H177195   5.487   1.968  11.330  0.7622 -0.7716 -1.7400
18568TIP3    H277196   5.519   1.826  11.371  1.3297 -0.2761 -0.3966
18569TIP3   OH277197   0.780   2.452  11.710 -0.3709 -0.6385  0.2612
18569TIP3    H177198   0.759   2.359  11.698  0.9723 -0.7474 -1.6128
18569TIP3    H277199   0.867   2.462  11.671 -0.9046  1.5973 -0.4639
18570TIP3   OH277200   3.827   1.469   3.607 -0.1847 -0.7157 -0.6129
18570TIP3    H177201   3.860   1.538   3.550 -2.3566  1.6236  0.7313
18570TIP3    H277202   3.804   1.397   3.547 -0.2562  0.7337 -2.4072
18571TIP3   OH277203   4.059   2.980  17.145 -0.3301 -0.9641  0.3894
18571TIP3    H177204   3.977   3.028  17.159  0.7541  0.7738  1.1335
18571TIP3    H277205   4.126   3.047  17.144  1.2633 -2.4530  1.2197
18572TIP3   OH277206   4.035   2.933  11.940  0.3931 -0.3478  0.1044
18572TIP3    H177207   4.008   3.009  11.888  1.1511  1.3601  2.0749
18572TIP3    H277208   3.959   2.875  11.938  0.2093 -0.1180 -2.3901
18573TIP3   OH277209   6.687   2.566   3.760 -0.5155 -0.1780 -0.0796
18573TIP3    H177210   6.685   2.520   3.844  0.3666  1.1408  0.6871
18573TIP3    H277211   6.664   2.498   3.696 -1.8046 -1.0826  1.2515
18574TIP3   OH277212   0.645   0.274   0.240  0.3348 -0.2510 -0.0415
18574TIP3    H177213   0.603   0.357   0.216  0.4581  0.0763  0.8100
18574TIP3    H277214   0.737   0.296   0.250  0.3444 -0.4469  0.3339
18575TIP3   OH277215   4.634   2.120   4.178 -0.1585 -0.9452  0.1052
18575TIP3    H177216   4.652   2.039   4.225 -0.1313  0.4287  2.6056
18575TIP3    H277217   4.720   2.153   4.152 -0.0748 -1.0709  0.2256
18576TIP3   OH277218   2.014   1.633   1.847 -0.0250  0.5257 -0.4340
18576TIP3    H177219   2.025   1.585   1.765 -1.5774  0.0090 -0.3809
18576TIP3    H277220   1.944   1.696   1.829  0.3913  1.1910  0.1820
18577TIP3   OH277221   2.155   3.543  15.713 -0.0601  0.4900  0.2621
18577TIP3    H177222   2.166   3.538  15.808 -0.8569  0.3538  0.3551
18577TIP3    H277223   2.119   3.630  15.697 -0.4709  0.2995  0.1420
18578TIP3   OH277224   5.778   6.560  15.427  0.1421  0.2930  0.3753
18578TIP3    H177225   5.705   6.605  15.384 -0.8592  1.6148  3.2320
18578TIP3    H277226   5.742   6.475  15.453  0.4760 -0.1390 -0.5254
18579TIP3   OH277227   1.667   3.237   6.162  0.4614  0.4198  0.2378
18579TIP3    H177228   1.735   3.244   6.095  1.4406 -0.4528  1.1030
18579TIP3    H277229   1.592   3.285   6.126  1.1490  0.4391 -1.2217
18580TIP3   OH277230   0.643   0.483   2.619 -0.0846 -0.7368  0.0455
18580TIP3    H177231   0.565   0.516   2.574 -1.0762 -3.1980 -0.2077
18580TIP3    H277232   0.640   0.521   2.706  0.0451  1.4620 -0.8504
18581TIP3   OH277233   0.682   5.440   3.713  0.0879 -0.3790 -0.0413
18581TIP3    H177234   0.726   5.469   3.793 -0.8122 -1.0381  0.7153
18581TIP3    H277235   0.750   5.396   3.662  0.2338 -1.8475  1.3472
18582TIP3   OH277236   5.996   4.257  14.117 -0.0676 -0.2355 -0.3435
18582TIP3    H177237   5.940   4.232  14.044 -0.3472  0.3196 -0.3296
18582TIP3    H277238   5.950   4.224  14.195 -0.3594  0.1831 -0.3355
18583TIP3   OH277239   1.751   5.342   3.790 -0.2782 -0.2203 -0.1520
18583TIP3    H177240   1.816   5.273   3.794  1.5365  1.4321  0.3182
18583TIP3    H277241   1.773   5.401   3.862 -0.4101  1.9340 -1.7582
18584TIP3   OH277242   1.161   0.136  11.199 -0.3614 -0.1020  0.4039
18584TIP3    H177243   1.186   0.046  11.222  0.1115 -0.3279 -0.8963
18584TIP3    H277244   1.144   0.132  11.105  2.0303  1.6386 -0.2055
18585TIP3   OH277245   5.782   0.224   4.196  0.2167  0.0988  0.0663
18585TIP3    H177246   5.734   0.155   4.151  1.1225  0.4782 -1.5936
18585TIP3    H277247   5.874   0.199   4.186  0.6005  1.8161 -1.1173
18586TIP3   OH277248   2.071   2.767  11.790 -0.2982 -0.4643  0.2908
18586TIP3    H177249   2.150   2.715  11.781 -0.3486 -0.5045  0.0789
18586TIP3    H277250   1.999   2.704  11.786 -0.2882 -0.7340  2.8350
18587TIP3   OH277251   1.601   3.922  11.851  0.4280 -0.3307  0.6847
18587TIP3    H177252   1.531   3.916  11.786  1.3524  1.9735 -0.6428
18587TIP3    H277253   1.671   3.866  11.816 -0.0043 -1.0975  1.0247
18588TIP3   OH277254   6.551   5.513   4.137  0.1546  0.0760 -0.2311
18588TIP3    H177255   6.575   5.452   4.207  1.7222  1.3788  0.4278
18588TIP3    H277256   6.502   5.582   4.181 -0.4893 -0.0349 -0.7560
18589TIP3   OH277257   6.046   2.568  16.824  0.9139 -0.7303 -0.6585
18589TIP3    H177258   5.984   2.618  16.877  0.7204 -0.7024 -0.9121
18589TIP3    H277259   6.020   2.477  16.836  3.0628 -1.1149  2.2128
18590TIP3   OH277260   2.444   3.283  16.672  0.2131 -0.5346  0.1130
18590TIP3    H177261   2.350   3.274  16.690  0.5700 -1.9570  1.5332
18590TIP3    H277262   2.463   3.374  16.693 -1.2219  0.4208 -2.3206
18591TIP3   OH277263   4.885   4.120  14.333 -0.1000  0.2489  0.0548
18591TIP3    H177264   4.859   4.039  14.376  0.6385 -0.1101 -0.1697
18591TIP3    H277265   4.804   4.172  14.329 -1.2621 -1.5445 -2.1886
18592TIP3   OH277266   6.463   2.342  11.297 -0.3827 -0.4349 -0.2226
18592TIP3    H177267   6.431   2.254  11.317 -0.4900 -0.5420 -0.8418
18592TIP3    H277268   6.528   2.328  11.227  0.4709 -0.1457  0.5000
18593TIP3   OH277269   0.210   3.185   0.518 -0.0334 -0.4972  0.5934
18593TIP3    H177270   0.203   3.119   0.449 -0.2713 -0.5687  0.6826
18593TIP3    H277271   0.127   3.232   0.515 -0.4692 -1.1535  1.4735
18594TIP3   OH277272   0.411   2.657   5.662 -0.2074  0.5601  0.1396
18594TIP3    H177273   0.502   2.685   5.649  0.2243  0.0525  1.7821
18594TIP3    H277274   0.373   2.723   5.720 -0.8522  0.6771 -0.3987
18595TIP3   OH277275   4.207   6.629  15.638  0.0821  0.3563  0.1660
18595TIP3    H177276   4.252   6.598  15.717  0.8038  0.9169 -0.0132
18595TIP3    H277277   4.117   6.642  15.665  0.1736 -0.1234  0.7169
18596TIP3   OH277278   2.324   6.122   1.797  0.0231  0.4665  0.2425
18596TIP3    H177279   2.258   6.082   1.739 -1.1545  0.7376  1.3356
18596TIP3    H277280   2.312   6.216   1.784  1.5482  0.5332 -0.9718
18597TIP3   OH277281   1.956   3.753  14.099  0.0166 -0.3895  0.0855
18597TIP3    H177282   1.869   3.793  14.103  0.2850  0.2764 -0.5407
18597TIP3    H277283   1.954   3.685  14.166 -1.4762 -1.3623 -0.8832
18598TIP3   OH277284   6.019   1.056   2.493  0.1795  0.3769 -0.1631
18598TIP3    H177285   6.087   0.993   2.517 -1.1925 -1.1777 -0.2688
18598TIP3    H277286   6.041   1.082   2.403  0.8293  0.1671 -0.0678
18599TIP3   OH277287   2.176   5.806  12.956  0.0567  0.2777  0.0850
18599TIP3    H177288   2.253   5.793  13.012 -0.4021  1.5592  1.0477
18599TIP3    H277289   2.136   5.719  12.951  1.2373 -0.2865  0.0507
18600TIP3   OH277290   2.168   3.702   3.638  0.3158  0.9649  0.0479
18600TIP3    H177291   2.248   3.745   3.608  1.0901 -1.1750 -1.1763
18600TIP3    H277292   2.110   3.704   3.562  0.0412  0.6131  0.2465
18601TIP3   OH277293   1.245   5.308   6.176 -0.3295  0.0502 -0.4907
18601TIP3    H177294   1.325   5.292   6.226 -0.7066  1.7130  0.7148
18601TIP3    H277295   1.175   5.302   6.241 -1.2917 -1.8805 -1.6125
18602TIP3   OH277296   4.718   2.780  16.155  0.0039  0.4683 -0.6130
18602TIP3    H177297   4.729   2.729  16.075  0.7758 -0.0415 -0.1963
18602TIP3    H277298   4.769   2.733  16.220 -2.6622 -0.6020  0.8643
18603TIP3   OH277299   6.173   1.203   6.403  0.1054 -0.2742 -0.1156
18603TIP3    H177300   6.221   1.246   6.474 -0.0836  0.1437 -0.2346
18603TIP3    H277301   6.155   1.274   6.341  1.4092 -0.8584 -1.2130
18604TIP3   OH277302   2.270   1.463   0.564  0.2429 -0.0764  0.4829
18604TIP3    H177303   2.244   1.501   0.648  0.7666 -0.8542  1.0007
18604TIP3    H277304   2.228   1.520   0.499  1.0439  1.4433  1.2319
18605TIP3   OH277305   3.875   1.089  15.453 -0.1362  0.0366 -0.3139
18605TIP3    H177306   3.946   1.120  15.509 -0.2501  1.8258 -1.1191
18605TIP3    H277307   3.905   1.106  15.364 -0.4445 -1.7249 -0.7994
18606TIP3   OH277308   4.127   6.823   4.800  0.5773 -0.9035  0.3033
18606TIP3    H177309   4.207   6.804   4.751  0.5737 -1.2588  0.4370
18606TIP3    H277310   4.089   6.898   4.754  0.6692 -1.1186 -0.1292
18607TIP3   OH277311   3.826   5.314   6.626 -0.7542  0.0254  0.2601
18607TIP3    H177312   3.833   5.378   6.555  0.3177 -0.3336  0.0302
18607TIP3    H277313   3.915   5.304   6.660 -1.2695  0.3136  1.7894
18608TIP3   OH277314   3.608   2.525   4.760  0.1230  0.4794  0.0092
18608TIP3    H177315   3.666   2.600   4.747  0.5649 -0.0756 -1.4716
18608TIP3    H277316   3.638   2.460   4.696 -0.7271 -0.6754  0.7393
18609TIP3   OH277317   5.360   5.361  15.206 -0.0853  0.2390  0.4697
18609TIP3    H177318   5.368   5.434  15.145  1.5038  0.6546  1.1390
18609TIP3    H277319   5.394   5.286  15.158 -3.7557 -0.6805 -1.0566
18610TIP3   OH277320   4.539   1.388  10.825  0.2947  0.2773  0.4552
18610TIP3    H177321   4.542   1.296  10.795  2.0243  0.1434  0.9444
18610TIP3    H277322   4.470   1.428  10.771  1.4329 -0.6251 -1.8198
18611TIP3   OH277323   1.776   1.059   5.025  0.2234 -0.0205 -0.5108
18611TIP3    H177324   1.866   1.052   5.058 -0.4669  2.2553  2.2430
18611TIP3    H277325   1.730   0.986   5.068  0.5734 -0.8429 -1.4802
18612TIP3   OH277326   3.469   0.738  16.573 -0.0467  0.2953 -0.0955
18612TIP3    H177327   3.505   0.815  16.618  1.5058 -0.2266 -0.3913
18612TIP3    H277328   3.377   0.760  16.559  0.3661  2.1388 -0.2366
18613TIP3   OH277329   2.462   6.347  12.274  0.0760  0.0027 -0.3275
18613TIP3    H177330   2.498   6.380  12.357  0.9647  0.3781 -0.8384
18613TIP3    H277331   2.372   6.322  12.294  0.3838 -0.2201  0.8238
18614TIP3   OH277332   2.059   5.430   0.742 -0.6238  0.0591 -0.3762
18614TIP3    H177333   1.980   5.378   0.731  0.2715 -0.8636 -3.5949
18614TIP3    H277334   2.129   5.375   0.709  1.0010  1.7882  0.0051
18615TIP3   OH277335   1.493   3.394   2.670  0.0761 -0.2292 -0.2905
18615TIP3    H177336   1.465   3.416   2.581  0.6794  0.2546 -0.3728
18615TIP3    H277337   1.579   3.352   2.658 -0.2784 -1.0549 -0.0037
18616TIP3   OH277338   2.427   6.790   1.013 -0.4639  0.5174  0.0783
18616TIP3    H177339   2.483   6.724   0.973 -1.5111 -1.2986  1.4100
18616TIP3    H277340   2.412   6.855   0.944  1.2118 -0.2458 -1.0587
18617TIP3   OH277341   3.954   5.339  13.461  0.1486  0.0713  0.4773
18617TIP3    H177342   4.005   5.409  13.500  0.6439 -0.0709  0.0907
18617TIP3    H277343   3.908   5.380  13.387  0.7332 -0.0820  0.0162
18618TIP3   OH277344   3.712   3.637   4.351 -0.2017  0.2055  0.3799
18618TIP3    H177345   3.706   3.706   4.285  0.3591 -1.5890 -1.6609
18618TIP3    H277346   3.798   3.650   4.391 -0.5779  1.3542  0.8581
18619TIP3   OH277347   0.124   2.073   5.245 -0.4402 -0.2825  0.1574
18619TIP3    H177348   0.184   2.009   5.207 -1.2848  0.2639 -2.2964
18619TIP3    H277349   0.180   2.133   5.294  1.0498  0.0978 -1.9017
18620TIP3   OH277350   3.031   5.974   1.092 -0.2281  0.0499  0.2094
18620TIP3    H177351   3.081   5.910   1.143  0.9492  0.7385 -0.0260
18620TIP3    H277352   2.944   5.974   1.132  0.1859 -0.6139  1.1593
18621TIP3   OH277353   5.021   0.338   2.302 -0.2234 -0.3431 -0.5954
18621TIP3    H177354   4.930   0.356   2.327  0.0023 -0.6653  0.5169
18621TIP3    H277355   5.053   0.421   2.267  0.3502  1.1899  3.0358
18622TIP3   OH277356   0.378   2.465   2.903  0.0747 -0.0522  0.0308
18622TIP3    H177357   0.333   2.390   2.863 -1.7707  0.5429  0.9090
18622TIP3    H277358   0.427   2.428   2.976 -2.2649 -0.2545  1.6037
18623TIP3   OH277359   4.795   4.765  11.352  0.5824  0.3678  0.3447
18623TIP3    H177360   4.797   4.860  11.354  0.8448  0.3853 -0.3900
18623TIP3    H277361   4.883   4.739  11.324 -0.0768  0.0011 -1.5450
18624TIP3   OH277362   5.196   0.564  13.373  0.2438  0.4242  0.2767
18624TIP3    H177363   5.199   0.491  13.310 -1.1688 -0.4593  1.1837
18624TIP3    H277364   5.282   0.605  13.365  1.3265 -1.7115  0.1684
18625TIP3   OH277365   2.069   3.205  16.261  0.0078  0.1138 -0.0901
18625TIP3    H177366   2.081   3.113  16.238  1.4877  0.5799 -1.3298
18625TIP3    H277367   2.157   3.237  16.280 -0.5069  1.2519  0.4978
18626TIP3   OH277368   3.810   1.375  15.938 -0.1415 -0.5935  0.3430
18626TIP3    H177369   3.787   1.390  15.847  0.8010 -2.4438 -0.2500
18626TIP3    H277370   3.906   1.371  15.939 -0.1346 -0.5563  1.4110
18627TIP3   OH277371   6.657   0.135  11.640 -0.3508 -0.2931  0.2488
18627TIP3    H177372   6.647   0.222  11.679 -1.8886 -0.9523  1.3832
18627TIP3    H277373   6.629   0.074  11.708 -1.7900 -1.5506 -1.3866
18628TIP3   OH277374   6.746   0.146  16.696 -0.4012  0.1263 -0.0310
18628TIP3    H177375   6.800   0.214  16.737  0.2486  0.2617 -1.0906
18628TIP3    H277376   6.757   0.160  16.602 -0.5412 -1.2385 -0.2636
18629TIP3   OH277377   6.479   2.772   1.997 -0.5874  0.2444 -0.3457
18629TIP3    H177378   6.448   2.804   1.913  0.6926 -0.0562 -0.9692
18629TIP3    H277379   6.514   2.850   2.041 -0.3490  0.2421 -0.5267
18630TIP3   OH277380   3.145   1.817   0.205  0.5263  0.1853  0.3816
18630TIP3    H177381   3.065   1.808   0.154  1.1036  1.9123 -0.9354
18630TIP3    H277382   3.161   1.730   0.241 -1.6218 -0.3212  0.2284
18631TIP3   OH277383   3.458   6.270  16.602 -0.7556  0.4933 -0.2800
18631TIP3    H177384   3.537   6.322  16.587  1.8153 -2.6397  1.3687
18631TIP3    H277385   3.438   6.283  16.694  0.1175 -1.5083  0.2471
18632TIP3   OH277386   4.649   1.810   1.612  0.0414  0.2554  0.0161
18632TIP3    H177387   4.637   1.766   1.696  1.0458 -0.4408 -0.1868
18632TIP3    H277388   4.739   1.790   1.587 -0.6183 -0.6924 -1.8467
18633TIP3   OH277389   4.408   2.831  11.604  0.0435 -0.6503  0.0271
18633TIP3    H177390   4.350   2.794  11.671  0.1078 -0.7705  0.0159
18633TIP3    H277391   4.412   2.924  11.625 -1.7745 -0.2615 -1.1721
18634TIP3   OH277392   4.532   4.016   6.148  0.0514 -0.1848  0.0448
18634TIP3    H177393   4.558   4.107   6.130 -0.4969  0.8453  3.6593
18634TIP3    H277394   4.611   3.975   6.182 -0.6244  0.2363  2.2928
18635TIP3   OH277395   5.670   1.594   0.037  0.0013  0.3209  0.5652
18635TIP3    H177396   5.646   1.521  -0.020  0.5507 -1.6352  2.7041
18635TIP3    H277397   5.726   1.650  -0.018 -0.6376 -0.6952 -1.2089
18636TIP3   OH277398   2.193   4.667  15.557 -0.4579 -0.1993  0.1500
18636TIP3    H177399   2.206   4.713  15.640 -0.1231  0.3718 -0.2121
18636TIP3    H277400   2.102   4.686  15.534 -0.1469  0.7910 -0.2947
18637TIP3   OH277401   3.329   1.200   1.596 -0.4819  0.1280  0.5776
18637TIP3    H177402   3.235   1.191   1.576 -0.1310 -0.3564 -1.0350
18637TIP3    H277403   3.341   1.149   1.676 -1.1294 -2.2450 -0.7320
18638TIP3   OH277404   1.096   1.331   2.601 -0.2465  0.1639 -0.3626
18638TIP3    H177405   1.131   1.242   2.612 -0.2824  0.1341 -0.4940
18638TIP3    H277406   1.156   1.373   2.540 -1.4544 -0.4691 -2.0588
18639TIP3   OH277407   5.741   4.453   5.170  0.8297  0.3944 -0.5318
18639TIP3    H177408   5.654   4.426   5.201  0.8739  1.7923  0.9512
18639TIP3    H277409   5.796   4.375   5.183  0.5179  0.4806  1.7410
18640TIP3   OH277410   0.797   4.639   3.872  0.4634  0.0613 -0.3323
18640TIP3    H177411   0.724   4.693   3.902 -0.9113 -1.9379  0.1076
18640TIP3    H277412   0.785   4.634   3.777  1.5188  1.7447 -0.5954
18641TIP3   OH277413   0.780   3.830  13.243  0.4161  0.4682 -0.2851
18641TIP3    H177414   0.791   3.853  13.335 -0.0079  0.8721 -0.3307
18641TIP3    H277415   0.815   3.905  13.195  1.0726  0.0522 -0.4576
18642TIP3   OH277416   5.851   3.994   0.020 -0.2782  0.1399 -0.1384
18642TIP3    H177417   5.893   4.052   0.083 -2.4214  0.0449  1.4869
18642TIP3    H277418   5.880   4.027  -0.065 -0.0775  2.5339  0.7698
18643TIP3   OH277419   0.705   6.361   4.691 -0.9282 -0.2903 -0.3972
18643TIP3    H177420   0.722   6.328   4.603  2.1359 -0.3709  0.1183
18643TIP3    H277421   0.680   6.283   4.741 -0.6360 -0.6011 -0.7318
18644TIP3   OH277422   3.083   4.248  16.646 -0.0286 -0.2369 -0.0351
18644TIP3    H177423   3.056   4.199  16.724  3.0460 -0.5037  0.9603
18644TIP3    H277424   3.085   4.339  16.675  1.6329 -0.3926  0.3977
18645TIP3   OH277425   3.067   5.120   2.693  0.0201 -0.0203  0.5848
18645TIP3    H177426   3.079   5.038   2.741  0.9212 -0.0728  0.2886
18645TIP3    H277427   3.156   5.151   2.676 -0.2749 -0.0776 -1.1917
18646TIP3   OH277428   5.346   1.815  13.588 -0.5905 -0.3269 -0.3116
18646TIP3    H177429   5.332   1.756  13.661 -0.5922 -0.3147 -0.3015
18646TIP3    H277430   5.370   1.899  13.628  0.7708 -0.6809 -0.3415
18647TIP3   OH277431   0.035   0.599  16.752  0.1273 -0.2519  0.1601
18647TIP3    H177432  -0.057   0.591  16.729 -0.1408  1.5086  0.4855
18647TIP3    H277433   0.064   0.679  16.709  1.0774  0.0863  1.3558
18648TIP3   OH277434   2.088   1.862  12.541  0.3955  0.2580 -0.0155
18648TIP3    H177435   2.013   1.840  12.596  1.4997 -0.1802  1.3687
18648TIP3    H277436   2.091   1.958  12.542  0.5992  0.2491  0.9865
18649TIP3   OH277437   6.811   0.435   1.972 -0.3247  1.1585  0.2590
18649TIP3    H177438   6.903   0.459   1.957 -0.0468  0.4426  0.7746
18649TIP3    H277439   6.761   0.509   1.937  0.4817  2.2578  1.3475
18650TIP3   OH277440   1.800   3.024   5.386  0.2120 -0.0172 -0.3096
18650TIP3    H177441   1.785   2.943   5.337  1.7976 -0.8414  0.4998
18650TIP3    H277442   1.837   3.085   5.322  1.3643 -0.7743 -0.3968
18651TIP3   OH277443   1.483   6.418  10.776  0.2657  0.4397  0.0224
18651TIP3    H177444   1.464   6.374  10.859  2.1625 -2.8409 -1.1102
18651TIP3    H277445   1.575   6.444  10.784  0.2388  0.7921 -0.7805
18652TIP3   OH277446   2.307   1.484  12.917 -0.1794  0.5142  0.5579
18652TIP3    H177447   2.392   1.482  12.960  0.6091  0.8575 -0.9134
18652TIP3    H277448   2.327   1.501  12.825 -1.8322  0.4320  0.1495
18653TIP3   OH277449   4.322   6.308  16.628 -0.7775  0.3381  0.1984
18653TIP3    H177450   4.270   6.324  16.706  1.1264  2.4435  1.1570
18653TIP3    H277451   4.412   6.326  16.655  0.7270 -3.9675 -1.1103
18654TIP3   OH277452   3.748   5.715   1.659  0.1203  0.3659  0.5038
18654TIP3    H177453   3.804   5.732   1.584  0.8979  0.2820  1.0524
18654TIP3    H277454   3.676   5.663   1.624 -0.4404  1.7746 -0.5079
18655TIP3   OH277455   6.432   2.177   5.610  0.1239  0.0715  0.2819
18655TIP3    H177456   6.348   2.133   5.601 -0.3137  1.0979 -1.0971
18655TIP3    H277457   6.493   2.120   5.563  0.3388 -0.9413  1.7294
18656TIP3   OH277458   6.119   0.666  13.844  0.2397 -0.4051 -0.4889
18656TIP3    H177459   6.119   0.571  13.854  2.0892 -0.4528 -0.4624
18656TIP3    H277460   6.111   0.681  13.750 -1.3493 -0.5190 -0.3918
18657TIP3   OH277461   1.619   5.259   3.425  0.3661  0.0061 -0.2590
18657TIP3    H177462   1.567   5.180   3.412  0.9270 -0.9062  2.3337
18657TIP3    H277463   1.697   5.245   3.372 -0.3872 -0.3050 -1.3011
18658TIP3   OH277464   4.079   4.589  10.853 -0.1488  0.4508 -0.5579
18658TIP3    H177465   4.076   4.638  10.771 -1.8452  0.0095 -0.7863
18658TIP3    H277466   4.011   4.523  10.845 -1.2114  1.1737  1.6930
18659TIP3   OH277467   0.492   5.046   5.935 -0.0642 -0.1816 -0.0638
18659TIP3    H177468   0.498   4.970   5.993 -0.4476 -0.4937 -0.4316
18659TIP3    H277469   0.442   5.110   5.985 -1.7001 -0.9890 -0.6095
18660TIP3   OH277470   3.416   6.465  13.897  0.7925  0.1181  0.4258
18660TIP3    H177471   3.399   6.557  13.874 -2.4617 -0.4721 -0.0956
18660TIP3    H277472   3.402   6.418  13.814 -0.3609 -1.0579  1.2555
18661TIP3   OH277473   3.313   4.548   2.223  0.5356 -0.0277 -0.1769
18661TIP3    H177474   3.386   4.565   2.282 -0.3296  1.0930  0.6288
18661TIP3    H277475   3.275   4.466   2.254  2.4096 -1.5386 -1.6481
18662TIP3   OH277476   6.177   2.713   3.319  0.0135 -0.5602  0.1100
18662TIP3    H177477   6.254   2.661   3.299  1.2896  0.5499  1.8161
18662TIP3    H277478   6.175   2.782   3.252 -0.0312 -1.1214 -0.4683
18663TIP3   OH277479   5.558   6.610  14.852  0.5418 -0.0852 -0.0985
18663TIP3    H177480   5.537   6.522  14.821 -1.0790 -0.2993  1.4394
18663TIP3    H277481   5.654   6.611  14.857  0.6381 -1.4503 -0.9665
18664TIP3   OH277482   3.594   0.540  11.361 -0.6874  0.0140 -0.3234
18664TIP3    H177483   3.507   0.548  11.322  0.0089  1.0547 -1.7579
18664TIP3    H277484   3.609   0.446  11.370 -0.8258 -0.2925 -2.7971
18665TIP3   OH277485   2.348   2.659  13.736  0.1507  0.5705  0.2531
18665TIP3    H177486   2.430   2.706  13.719  1.2141 -1.0996  0.4870
18665TIP3    H277487   2.372   2.594  13.803 -1.3430 -0.0398  0.2212
18666TIP3   OH277488   1.706   5.030  14.775  0.5482  0.0552 -0.3177
18666TIP3    H177489   1.678   5.085  14.848  1.3931  0.3321 -0.1914
18666TIP3    H277490   1.727   4.945  14.815  0.2998 -0.0226 -0.3503
18667TIP3   OH277491   0.248   6.571   0.440  0.0448 -0.0102  0.2925
18667TIP3    H177492   0.247   6.663   0.468 -0.3079 -0.5632  2.3056
18667TIP3    H277493   0.268   6.522   0.520  0.7115 -1.6763 -0.8304
18668TIP3   OH277494   5.051   6.651   3.970  0.2350 -0.3353 -0.3507
18668TIP3    H177495   5.112   6.577   3.960  1.2634  0.2003  1.5905
18668TIP3    H277496   5.018   6.666   3.881  1.3597 -1.9661 -1.1003
18669TIP3   OH277497   2.883   4.699   5.896  0.1779 -0.1205 -0.2844
18669TIP3    H177498   2.846   4.626   5.946 -0.0799 -0.1389 -0.5042
18669TIP3    H277499   2.964   4.720   5.943 -1.5963  1.9910  2.1451
18670TIP3   OH277500   6.451   2.524  16.564  0.2800  0.1893 -0.4135
18670TIP3    H177501   6.505   2.494  16.637 -0.7619 -2.8538 -0.7708
18670TIP3    H277502   6.468   2.462  16.494 -3.3091 -0.7554 -0.6614
18671TIP3   OH277503   1.634   0.234  14.239 -0.3645  0.5367 -0.1114
18671TIP3    H177504   1.560   0.177  14.260 -0.1464 -0.4921 -1.9453
18671TIP3    H277505   1.648   0.221  14.145  0.9448  2.1588 -0.1786
18672TIP3   OH277506   2.170   3.935  17.114  0.1175  0.2793 -0.4339
18672TIP3    H177507   2.162   3.880  17.192 -0.6363 -1.1434 -1.4708
18672TIP3    H277508   2.157   4.024  17.146  2.9247  0.1125  1.5681
18673TIP3   OH277509   2.280   6.102   2.702  0.2020  0.0414  0.1440
18673TIP3    H177510   2.328   6.050   2.766 -0.2222 -0.2514  0.2243
18673TIP3    H277511   2.289   6.054   2.620 -0.1294 -0.1236  0.2030
18674TIP3   OH277512   0.055   6.395   4.405  0.0806  0.7646  0.8198
18674TIP3    H177513   0.044   6.344   4.325  0.3821  2.3434 -0.2729
18674TIP3    H277514  -0.032   6.397   4.444 -0.3262  0.9100 -0.0650
18675TIP3   OH277515   1.229   3.437   4.196  0.1541 -0.5146 -0.3322
18675TIP3    H177516   1.203   3.465   4.284  1.6389  0.3850 -0.1423
18675TIP3    H277517   1.221   3.341   4.199 -1.5522 -0.3857  0.1730
18676TIP3   OH277518   6.656   2.538  12.734  0.0569 -0.1905 -0.1740
18676TIP3    H177519   6.601   2.487  12.793 -0.5242 -0.1086 -0.6452
18676TIP3    H277520   6.701   2.600  12.791 -1.7343  1.0055  0.0150
18677TIP3   OH277521   4.936   0.194   0.971  0.4323  0.2834  0.0029
18677TIP3    H177522   4.922   0.234   0.885  2.7766  0.5937 -0.2803
18677TIP3    H277523   4.983   0.113   0.953 -0.7650 -0.6636  0.8973
18678TIP3   OH277524   2.791   2.839  11.885  0.3587 -0.4291 -0.0570
18678TIP3    H177525   2.825   2.781  11.953  0.3992  0.6586  0.8716
18678TIP3    H277526   2.798   2.927  11.922  0.5000  0.2000 -1.5196
18679TIP3   OH277527   3.437   2.342   3.438  0.6679 -0.2697 -0.3365
18679TIP3    H177528   3.358   2.289   3.441  1.4259 -1.4366 -0.2136
18679TIP3    H277529   3.488   2.305   3.366  1.2207  0.2753 -0.2371
18680TIP3   OH277530   6.293   1.948  16.097  0.0055 -0.4909  0.0247
18680TIP3    H177531   6.211   1.966  16.143  0.0594 -2.9496  1.2574
18680TIP3    H277532   6.335   2.034  16.089 -2.0263  0.6371  0.6014
18681TIP3   OH277533   6.437   3.659  15.565 -0.6153  0.0031  0.4671
18681TIP3    H177534   6.394   3.667  15.480 -0.6554  2.8168  0.6642
18681TIP3    H277535   6.366   3.658  15.628 -0.5301  2.3116  0.6607
18682TIP3   OH277536   0.777   6.783   6.741 -0.4375  0.1817  0.2496
18682TIP3    H177537   0.762   6.695   6.706  0.0809  0.6651 -1.2696
18682TIP3    H277538   0.694   6.806   6.783 -0.7179 -0.8702  0.3090
18683TIP3   OH277539   3.682   4.515  15.075  0.0449 -0.7963  0.3122
18683TIP3    H177540   3.741   4.479  15.009  0.9502  1.5398 -0.2806
18683TIP3    H277541   3.608   4.550  15.025 -0.1701 -0.6566  0.7208
18684TIP3   OH277542   6.228   1.676  14.804 -0.4340 -0.2377  0.3185
18684TIP3    H177543   6.219   1.614  14.731 -0.2320  0.3635 -0.2321
18684TIP3    H277544   6.224   1.762  14.762  1.7364  0.1272  0.7543
18685TIP3   OH277545   3.076   0.651  12.507  0.2881 -0.8087  0.0705
18685TIP3    H177546   3.046   0.591  12.576  0.5715 -0.5032  0.4608
18685TIP3    H277547   3.171   0.634  12.501  0.6551  0.6369  1.2208
18686TIP3   OH277548   1.015   3.187   3.784 -0.5019 -0.2341  0.1833
18686TIP3    H177549   0.923   3.208   3.767 -0.5562 -1.5010 -1.3369
18686TIP3    H277550   1.064   3.240   3.721 -0.2960 -0.4946  0.1187
18687TIP3   OH277551   5.430   0.401   1.427 -0.2411 -0.3099  0.4001
18687TIP3    H177552   5.480   0.478   1.455 -0.1195  0.6068 -2.0717
18687TIP3    H277553   5.420   0.413   1.333 -4.1407 -1.0465  0.5858
18688TIP3   OH277554   4.797   0.721   1.354 -0.6601 -0.4005 -0.4967
18688TIP3    H177555   4.876   0.774   1.358  0.0978 -1.4646 -0.8541
18688TIP3    H277556   4.733   0.767   1.408  0.0563  0.7150 -0.5868
18689TIP3   OH277557   6.339   3.305  15.801 -0.9196  0.0485  0.3502
18689TIP3    H177558   6.291   3.240  15.852  0.4607  0.7116  2.6511
18689TIP3    H277559   6.324   3.388  15.846  0.0367  0.7614 -0.5626
18690TIP3   OH277560   3.282   4.829  12.346  0.0467  0.0917  0.3788
18690TIP3    H177561   3.339   4.849  12.272  1.2201 -1.3043  0.8584
18690TIP3    H277562   3.211   4.777  12.308  1.2254 -1.5749  0.3410
18691TIP3   OH277563   0.272   1.552  17.113 -0.3793 -0.0360 -0.0959
18691TIP3    H177564   0.307   1.613  17.179 -0.9413  1.5610 -1.1937
18691TIP3    H277565   0.273   1.467  17.156  1.3040  0.5788  1.2054
18692TIP3   OH277566   6.771   0.402  16.405  0.2918 -0.0348 -0.1472
18692TIP3    H177567   6.831   0.463  16.361 -0.3184 -0.0161 -0.9743
18692TIP3    H277568   6.755   0.443  16.490 -0.3026  1.1062 -0.7830
18693TIP3   OH277569   5.564   0.788  11.818  0.1883 -0.8578  0.4482
18693TIP3    H177570   5.548   0.746  11.903 -1.3493 -0.9644  0.1179
18693TIP3    H277571   5.560   0.717  11.755  0.8989 -0.7057  0.2163
18694TIP3   OH277572   0.857   4.415   5.106  0.4218  0.5614 -0.2815
18694TIP3    H177573   0.876   4.323   5.091  0.2803  0.6651 -1.1718
18694TIP3    H277574   0.938   4.451   5.140  0.7558  0.2818 -0.7645
18695TIP3   OH277575   4.095   2.554  11.702 -0.4757  0.0542  0.0540
18695TIP3    H177576   4.128   2.628  11.753 -0.4863  1.2015 -1.5359
18695TIP3    H277577   4.000   2.561  11.707 -0.4867  0.7022 -0.8200
18696TIP3   OH277578   4.555   3.465   0.406 -0.1491  0.0558 -0.2458
18696TIP3    H177579   4.593   3.482   0.320 -2.0710  0.1744 -1.1306
18696TIP3    H277580   4.465   3.438   0.387 -1.4486  2.5642  1.7995
18697TIP3   OH277581   6.095   6.759  16.339  0.3489 -0.8052 -0.6014
18697TIP3    H177582   6.150   6.831  16.369 -0.2839 -0.5655  0.0156
18697TIP3    H277583   6.096   6.766  16.244  2.3341 -1.5275 -0.6742
18698TIP3   OH277584   3.582   0.799   2.284  0.0962  0.2305 -0.0667
18698TIP3    H177585   3.664   0.818   2.239  0.2409  0.3530  0.2391
18698TIP3    H277586   3.608   0.757   2.366 -0.1914 -0.5347 -0.3628
18699TIP3   OH277587   5.664   5.028   4.649  0.8912  0.6430  0.3065
18699TIP3    H177588   5.705   4.983   4.723  1.8402  0.2614 -0.4235
18699TIP3    H277589   5.654   5.118   4.678 -1.3029 -0.0331  1.9018
18700TIP3   OH277590   0.972   6.344  16.753  0.5357 -0.0747 -0.4988
18700TIP3    H177591   0.931   6.425  16.725 -0.9347 -0.4895  0.3484
18700TIP3    H277592   0.923   6.317  16.831  1.0925 -1.6948 -0.6583
18701TIP3   OH277593   0.224   1.246  15.008 -0.1722 -0.0062  0.0462
18701TIP3    H177594   0.288   1.313  15.030 -0.6231  0.3646  0.2413
18701TIP3    H277595   0.256   1.208  14.926  0.2676  0.2052  0.1153
18702TIP3   OH277596   6.036   1.586  15.228  0.1435  0.2792 -0.7260
18702TIP3    H177597   5.996   1.652  15.285  0.3825 -1.1370  1.1713
18702TIP3    H277598   5.988   1.506  15.246  1.0088 -0.4890 -1.6757
18703TIP3   OH277599   5.028   4.729   3.700  0.3027  0.0163  0.0123
18703TIP3    H177600   5.112   4.708   3.660 -0.8413 -2.2361 -1.4299
18703TIP3    H277601   5.029   4.683   3.784  0.3221 -0.4557 -0.2434
18704TIP3   OH277602   4.230   4.909  15.368  0.8607  0.5323  0.5806
18704TIP3    H177603   4.222   4.848  15.295  0.2006  0.7065  0.5074
18704TIP3    H277604   4.204   4.994  15.332 -0.1334  0.4945  1.1924
18705TIP3   OH277605   0.444   6.033   5.589  0.3669  0.1674  0.6068
18705TIP3    H177606   0.530   5.989   5.587  0.3452  0.1370  0.1436
18705TIP3    H277607   0.460   6.115   5.635  0.8137  0.4986 -0.1189
18706TIP3   OH277608   4.421   1.883   1.006 -0.1659  0.4787  0.0197
18706TIP3    H177609   4.431   1.927   1.090 -2.5672 -1.0240  1.2424
18706TIP3    H277610   4.495   1.911   0.954  1.8848  0.8683  2.9194
18707TIP3   OH277611   5.775   0.476   0.973  0.4922 -0.0692  0.5616
18707TIP3    H177612   5.859   0.504   1.009  1.9116 -1.0629 -1.7536
18707TIP3    H277613   5.795   0.396   0.924 -1.1616  1.2669 -2.6165
18708TIP3   OH277614   5.099   3.109   6.087  0.1091  0.3772 -0.2745
18708TIP3    H177615   5.052   3.027   6.103  1.2091 -0.4578 -1.1740
18708TIP3    H277616   5.164   3.114   6.156 -0.7569  1.1611  0.5264
18709TIP3   OH277617   0.464   0.505  15.003 -0.5046  0.8969 -0.1631
18709TIP3    H177618   0.436   0.507  14.911 -1.7554 -1.0231  0.1170
18709TIP3    H277619   0.394   0.549  15.051 -0.2340  1.2059 -0.0533
18710TIP3   OH277620   3.165   0.052  12.071 -0.2954  0.6571  0.6015
18710TIP3    H177621   3.093   0.014  12.122 -0.3516  0.1088  0.1240
18710TIP3    H277622   3.131   0.135  12.041 -0.8419  0.2721  0.1393
18711TIP3   OH277623   1.120   6.555  11.666  0.5656 -0.2602 -0.5459
18711TIP3    H177624   1.048   6.509  11.622 -0.1558  0.2466  0.0680
18711TIP3    H277625   1.190   6.491  11.671  0.3903 -0.5769 -1.7235
18712TIP3   OH277626   1.395   4.698   4.997 -0.0818  0.0447  0.5572
18712TIP3    H177627   1.359   4.611   5.016  1.5946 -0.8914 -0.3414
18712TIP3    H277628   1.402   4.740   5.083 -0.3185 -0.9612  1.0862
18713TIP3   OH277629   1.039   6.024   5.023  0.2171 -0.0545  0.4944
18713TIP3    H177630   0.974   6.095   5.019 -0.3629 -0.6089 -0.2708
18713TIP3    H277631   0.987   5.944   5.028  0.8611 -0.4645  0.7714
18714TIP3   OH277632   6.253   0.968  13.185 -0.0425  0.6304 -1.2366
18714TIP3    H177633   6.344   0.940  13.171 -0.0282 -0.1814  0.2404
18714TIP3    H277634   6.255   1.063  13.174  1.5027  0.9454  1.0070
18715TIP3   OH277635   6.131   3.694  14.295 -0.0793 -0.0922 -0.2824
18715TIP3    H177636   6.131   3.754  14.370  0.0150 -0.7585  0.2580
18715TIP3    H277637   6.162   3.747  14.222 -1.4597  0.9391 -0.1603
18716TIP3   OH277638   3.327   1.713   5.058 -0.2583 -0.5138  0.1059
18716TIP3    H177639   3.327   1.628   5.015  0.8181 -0.8826  0.7826
18716TIP3    H277640   3.244   1.753   5.033 -0.0048 -1.0174 -1.6736
18717TIP3   OH277641   1.193   4.876   1.403  0.3080 -0.1142  0.4109
18717TIP3    H177642   1.264   4.874   1.338  0.1191  0.2008  0.1908
18717TIP3    H277643   1.126   4.931   1.363 -0.0204 -0.3308  0.6627
18718TIP3   OH277644   6.714   5.131  10.642  0.5121  0.6645 -0.0285
18718TIP3    H177645   6.708   5.139  10.547  1.6979  2.2470 -0.0173
18718TIP3    H277646   6.791   5.183  10.665  0.3952  0.0969  1.7750
18719TIP3   OH277647   4.112   1.033  13.390  0.1054 -0.5903 -0.2053
18719TIP3    H177648   4.059   1.080  13.454  0.9509  0.5070 -0.2782
18719TIP3    H277649   4.067   1.047  13.307  1.1918  1.5831 -0.5183
18720TIP3   OH277650   3.315   2.836   2.911 -0.1253 -0.1589  0.7770
18720TIP3    H177651   3.287   2.909   2.856  1.8094  1.6402  2.0214
18720TIP3    H277652   3.406   2.820   2.883 -0.2779 -1.6039  1.0515
18721TIP3   OH277653   5.800   4.607   3.889  0.4246  0.0182  0.2608
18721TIP3    H177654   5.869   4.673   3.899  0.3606  0.1927 -0.4323
18721TIP3    H277655   5.824   4.558   3.810 -0.0693 -0.1302  0.1975
18722TIP3   OH277656   0.017   1.484   1.353  0.4299  0.6120 -0.2131
18722TIP3    H177657  -0.039   1.410   1.375 -1.3504  1.3148 -2.0563
18722TIP3    H277658  -0.024   1.559   1.397  0.1576  1.0604 -1.2074
18723TIP3   OH277659   3.324   5.721   3.965 -0.4942 -0.2669  0.1683
18723TIP3    H177660   3.333   5.648   4.026 -0.3065  0.1255  0.6141
18723TIP3    H277661   3.279   5.683   3.889 -0.7783 -0.7449  0.5671
18724TIP3   OH277662   0.848   0.301   2.687 -0.1055  0.4349 -0.1358
18724TIP3    H177663   0.771   0.350   2.659 -1.1645  0.0974  2.0013
18724TIP3    H277664   0.920   0.365   2.683  0.0186  0.3195 -3.8395
18725TIP3   OH277665   2.457   4.982  16.486  1.0104 -0.0015 -0.5331
18725TIP3    H177666   2.473   5.076  16.485  0.4653  0.0891 -1.2514
18725TIP3    H277667   2.510   4.950  16.559  0.3980  0.9914  0.3803
18726TIP3   OH277668   0.130   4.480   0.197  0.4454  0.4130  0.0534
18726TIP3    H177669   0.183   4.454   0.272 -0.1324 -1.8424 -0.2465
18726TIP3    H277670   0.182   4.454   0.120  1.4240  3.4817 -0.4370
18727TIP3   OH277671   6.574   4.623  14.552 -0.2830  0.5530 -0.0689
18727TIP3    H177672   6.508   4.685  14.585 -0.6099  1.2684 -1.9411
18727TIP3    H277673   6.626   4.601  14.629 -1.2304  1.8285  0.9969
18728TIP3   OH277674   0.734   4.071   3.354 -0.4787 -0.1427 -0.2935
18728TIP3    H177675   0.736   3.997   3.294 -2.0952  0.8274 -1.6250
18728TIP3    H277676   0.777   4.142   3.306 -1.5433  0.5676 -0.2492
18729TIP3   OH277677   2.272   2.213   1.663 -0.0374  0.4524  0.0406
18729TIP3    H177678   2.287   2.304   1.689 -1.3920  0.9645 -0.8479
18729TIP3    H277679   2.290   2.162   1.742  1.2426  1.4331  0.4109
18730TIP3   OH277680   6.376   5.973   1.959 -0.1095 -0.0455 -0.3254
18730TIP3    H177681   6.426   5.893   1.944 -1.5222 -0.5549 -2.8298
18730TIP3    H277682   6.285   5.947   1.950 -0.5847  1.9295 -1.9484
18731TIP3   OH277683   0.823   4.160   3.957  0.2843 -0.1174 -0.0050
18731TIP3    H177684   0.733   4.143   3.984 -0.0242  0.2057 -0.8122
18731TIP3    H277685   0.860   4.072   3.942 -0.1999 -0.2223 -0.6256
18732TIP3   OH277686   4.344   4.508   2.944 -0.6925  0.5158 -0.4355
18732TIP3    H177687   4.320   4.431   2.997  0.2677  1.1561  0.9789
18732TIP3    H277688   4.433   4.490   2.916 -0.5627  0.9835 -0.3283
18733TIP3   OH277689   5.510   4.798  14.663  0.4034 -0.1830  0.2551
18733TIP3    H177690   5.466   4.724  14.705  0.5558  1.1740  3.0520
18733TIP3    H277691   5.581   4.759  14.612  0.9361 -1.9721  2.2404
18734TIP3   OH277692   6.270   4.841  14.471  0.5437 -0.2339 -0.5015
18734TIP3    H177693   6.345   4.827  14.529 -0.9407  1.2961  1.9900
18734TIP3    H277694   6.195   4.811  14.522 -0.5812 -2.5593 -3.2482
18735TIP3   OH277695   4.657   3.842   4.634 -0.3206 -0.3179 -0.5979
18735TIP3    H177696   4.676   3.931   4.604 -1.2981  0.1363  0.0466
18735TIP3    H277697   4.742   3.799   4.640  0.0602  0.2060 -2.0354
18736TIP3   OH277698   2.461   4.036   5.292 -0.4093  0.0090 -0.0658
18736TIP3    H177699   2.406   3.959   5.305 -0.6402  0.1915  0.0403
18736TIP3    H277700   2.539   4.003   5.248 -0.6876 -0.2194 -0.3890
18737TIP3   OH277701   5.091   3.286  11.035 -0.1989  0.9167 -0.5169
18737TIP3    H177702   5.108   3.193  11.023 -0.4141  0.7956  0.1171
18737TIP3    H277703   5.078   3.297  11.129  1.7528  1.9060 -0.2977
18738TIP3   OH277704   4.127   1.246  15.840 -0.3670 -0.0252 -0.1047
18738TIP3    H177705   4.166   1.231  15.754  0.0162 -0.3335  0.1163
18738TIP3    H277706   4.153   1.335  15.864 -0.0672 -0.1118 -0.1019
18739TIP3   OH277707   0.299   4.852   1.178  0.0557  0.3006  0.7351
18739TIP3    H177708   0.303   4.783   1.112  0.8117  0.0451  1.0323
18739TIP3    H277709   0.269   4.930   1.130 -1.5990 -0.4046  0.5652
18740TIP3   OH277710   3.531   4.391  13.929  0.4054  0.0387 -0.1573
18740TIP3    H177711   3.568   4.316  13.975 -0.8176 -0.5592 -0.1240
18740TIP3    H277712   3.520   4.361  13.838 -1.4793 -0.3565  0.1746
18741TIP3   OH277713   5.894   6.588   6.471  0.9476 -0.5629  0.6449
18741TIP3    H177714   5.969   6.566   6.415  2.2394  1.8274  1.2752
18741TIP3    H277715   5.893   6.518   6.537  1.8616 -1.2949 -0.0797
18742TIP3   OH277716   0.786   1.285   2.242  0.7780 -0.4270  0.1840
18742TIP3    H177717   0.788   1.344   2.317 -0.3789  0.8424 -0.7287
18742TIP3    H277718   0.873   1.291   2.203  1.3781 -1.0683  1.3622
18743TIP3   OH277719   3.937   0.924  14.414 -0.1371 -0.3599 -0.1484
18743TIP3    H177720   3.930   1.014  14.446 -0.0292 -0.5448  0.4131
18743TIP3    H277721   3.958   0.873  14.492 -2.4219 -1.2124 -0.0187
18744TIP3   OH277722   5.897   3.975   1.473 -0.5558  0.4971 -0.0640
18744TIP3    H177723   5.878   3.908   1.538  2.2838  0.1655  0.5796
18744TIP3    H277724   5.930   3.927   1.397  1.7626  1.0644  0.5019
18745TIP3   OH277725   2.486   5.213  14.611 -0.4912  0.1498  0.3344
18745TIP3    H177726   2.401   5.234  14.650 -1.5887 -2.9194 -0.0841
18745TIP3    H277727   2.464   5.175  14.526  1.2323 -1.1040  0.3846
18746TIP3   OH277728   3.027   3.707   2.727 -0.3361 -0.1144  0.6696
18746TIP3    H177729   2.954   3.672   2.676  0.2078 -1.5434  0.8195
18746TIP3    H277730   2.991   3.785   2.769 -0.7475  1.2542 -2.0037
18747TIP3   OH277731   0.376   5.133  16.550 -0.6018  0.3621 -0.0864
18747TIP3    H177732   0.436   5.170  16.616 -1.6663  1.7394  0.1682
18747TIP3    H277733   0.313   5.082  16.600  0.6430 -1.5760 -0.4084
18748TIP3   OH277734   6.555   5.707   3.938 -0.2453 -0.5561 -0.1689
18748TIP3    H177735   6.471   5.713   3.984 -0.1555 -0.0582 -0.0675
18748TIP3    H277736   6.598   5.631   3.978 -0.5348 -0.6541 -0.0396
18749TIP3   OH277737   5.175   1.710  13.082 -0.0502  0.0464  0.3086
18749TIP3    H177738   5.178   1.659  13.001  0.7388  0.2023  0.2290
18749TIP3    H277739   5.202   1.647  13.150  0.1522  0.1436  0.3195
18750TIP3   OH277740   2.718   0.205   3.635  0.0531  0.0357 -0.2924
18750TIP3    H177741   2.722   0.115   3.601 -3.2709 -0.7405  0.9188
18750TIP3    H277742   2.647   0.246   3.585  0.3482  1.4219  0.3661
18751TIP3   OH277743   2.497   4.801  16.763  0.6055 -0.4372  0.7090
18751TIP3    H177744   2.450   4.778  16.683  2.4305  0.9480 -0.8530
18751TIP3    H277745   2.588   4.773  16.747  1.0629  0.0575  2.2263
18752TIP3   OH277746   4.574   2.344  17.151  0.0071  0.6979 -0.6688
18752TIP3    H177747   4.583   2.436  17.126 -1.1702  0.8280 -0.6935
18752TIP3    H277748   4.539   2.346  17.240 -0.9909  0.3128 -1.0269
18753TIP3   OH277749   6.419   2.164   4.123  0.4386  0.0274  0.4283
18753TIP3    H177750   6.345   2.195   4.175  1.2369 -0.2473  1.7755
18753TIP3    H277751   6.459   2.096   4.177  1.2020 -0.3859 -0.6346
18754TIP3   OH277752   5.751   6.629  13.104 -0.3719  0.2984  0.0009
18754TIP3    H177753   5.677   6.594  13.056 -0.8978  2.1892 -0.6419
18754TIP3    H277754   5.763   6.568  13.177 -2.2863 -0.2840 -0.1184
18755TIP3   OH277755   2.317   1.133   1.956  0.1832 -0.2621  0.4604
18755TIP3    H177756   2.406   1.100   1.970 -0.2148 -1.6185 -0.0472
18755TIP3    H277757   2.292   1.170   2.040  1.2991  0.3116  0.5574
18756TIP3   OH277758   3.787   4.827  14.410 -0.0826  0.5445  0.0506
18756TIP3    H177759   3.800   4.863  14.322  0.1257  1.0194  0.2782
18756TIP3    H277760   3.692   4.833  14.424 -0.2504 -0.4610 -0.5361
18757TIP3   OH277761   6.377   0.041   1.735  0.4392 -0.0359 -0.0850
18757TIP3    H177762   6.364  -0.041   1.782  2.0780  0.2198  0.8795
18757TIP3    H277763   6.314   0.037   1.663 -1.3974 -0.9229  1.4634
18758TIP3   OH277764   2.229   0.015   6.337  0.2460 -0.3421 -0.4693
18758TIP3    H177765   2.177   0.079   6.289 -1.4946 -1.4950 -0.2275
18758TIP3    H277766   2.302   0.065   6.373  0.7483  0.8574 -2.9380
18759TIP3   OH277767   0.354   0.547   1.722  0.1604  0.4701 -0.7730
18759TIP3    H177768   0.393   0.631   1.746  0.8927  0.1911 -0.9690
18759TIP3    H277769   0.312   0.516   1.802  0.6301  0.6181 -0.4651
18760TIP3   OH277770   0.545   4.637   0.980 -0.1260  0.9177 -0.2361
18760TIP3    H177771   0.555   4.636   0.885 -0.4810  1.2520 -0.2799
18760TIP3    H277772   0.574   4.724   1.006  0.4662  0.6471  0.0201
18761TIP3   OH277773   0.867   0.087  14.051 -0.0788 -0.4437  0.0558
18761TIP3    H177774   0.800   0.126  13.995  1.2397  2.0137  0.0630
18761TIP3    H277775   0.851   0.124  14.138 -0.1446 -1.7195  0.6117
18762TIP3   OH277776   5.866   3.535   3.218 -0.3098 -0.0864  0.5759
18762TIP3    H177777   5.837   3.589   3.291  0.1470 -0.5361  1.0966
18762TIP3    H277778   5.961   3.530   3.227 -0.2850 -0.4519  0.1662
18763TIP3   OH277779   4.148   3.040  16.218 -0.2719  0.2162  0.1096
18763TIP3    H177780   4.190   2.992  16.289  1.3264 -1.3803 -1.7983
18763TIP3    H277781   4.066   2.994  16.202 -0.1719 -0.0133  0.2663
18764TIP3   OH277782   6.092   2.941  11.421 -0.1936  0.5215  0.3217
18764TIP3    H177783   6.140   2.949  11.503  1.1287  0.3384 -0.4059
18764TIP3    H277784   6.120   3.016  11.369 -0.2441  0.0927 -0.3365
18765TIP3   OH277785   4.509   1.680  17.286 -0.6698 -0.5786 -0.2755
18765TIP3    H177786   4.423   1.720  17.283  0.0715  1.0512 -1.2918
18765TIP3    H277787   4.524   1.660  17.378 -2.0700 -0.7760 -0.0794
18766TIP3   OH277788   5.584   4.984  16.050 -0.4272 -0.8508 -0.2208
18766TIP3    H177789   5.575   5.078  16.069 -0.8418 -0.8327 -0.4821
18766TIP3    H277790   5.511   4.943  16.097 -0.3786 -1.0143 -0.2887
18767TIP3   OH277791   3.950   1.481  15.660 -0.1329  0.3656 -0.3976
18767TIP3    H177792   4.030   1.429  15.674  0.3681  1.4367  0.9690
18767TIP3    H277793   3.887   1.418  15.625  0.3293 -1.3012  1.5088
18768TIP3   OH277794   4.896   6.219  12.391  0.2232 -0.1791 -0.4010
18768TIP3    H177795   4.855   6.238  12.307  0.5979  1.1630 -0.2999
18768TIP3    H277796   4.988   6.204  12.370  0.3730  0.4413 -0.2082
18769TIP3   OH277797   1.887   3.672  12.166 -0.7928 -0.2713 -0.3124
18769TIP3    H177798   1.888   3.676  12.262  2.4436  1.4247 -0.2840
18769TIP3    H277799   1.846   3.754  12.139  0.6014  0.4574 -0.3023
18770TIP3   OH277800   2.614   2.647   6.635 -0.9884 -0.0714 -0.2916
18770TIP3    H177801   2.665   2.717   6.595 -5.1612  2.7873 -1.2585
18770TIP3    H277802   2.586   2.592   6.562 -0.4350 -0.8576  0.0680
18771TIP3   OH277803   6.635   5.368  15.178 -0.1527  0.4721  0.0291
18771TIP3    H177804   6.656   5.461  15.186  0.7605  0.4911 -2.0031
18771TIP3    H277805   6.571   5.363  15.106  2.2122 -0.6802 -2.1465
18772TIP3   OH277806   3.977   2.684   4.283 -0.2252  0.4439 -0.1555
18772TIP3    H177807   4.037   2.755   4.306  1.0831 -0.2173 -1.3981
18772TIP3    H277808   4.033   2.609   4.267 -1.4126 -0.3221 -0.9098
18773TIP3   OH277809   1.076   6.452  13.357  0.0429  0.1611 -0.3227
18773TIP3    H177810   1.095   6.485  13.445 -0.0303  1.9168 -0.9113
18773TIP3    H277811   0.981   6.440  13.356  0.1094 -0.4470  0.0066
18774TIP3   OH277812   6.782   1.765   4.867 -0.1262 -0.1939  0.6059
18774TIP3    H177813   6.732   1.847   4.868 -0.3995 -0.3163 -0.8108
18774TIP3    H277814   6.873   1.793   4.870 -0.2209  0.1634  0.3432
18775TIP3   OH277815   6.199   2.948   2.173 -0.1602  0.2660  0.0641
18775TIP3    H177816   6.208   2.866   2.124 -1.1344 -0.6561  1.3638
18775TIP3    H277817   6.238   3.014   2.116  1.7736 -1.2791 -0.4879
18776TIP3   OH277818   6.279   1.623  14.169 -0.0270 -0.6099  0.0199
18776TIP3    H177819   6.350   1.559  14.177  0.6566  0.2666  1.3117
18776TIP3    H277820   6.290   1.659  14.081  0.8977 -0.7615  0.0593
18777TIP3   OH277821   4.815   5.428  16.173  0.1724 -0.2687 -0.2703
18777TIP3    H177822   4.816   5.333  16.156  2.1380 -0.4052  0.3077
18777TIP3    H277823   4.851   5.436  16.261 -0.1469  1.0245 -0.2448
18778TIP3   OH277824   5.168   4.284   6.485  0.6275 -1.1804  0.5713
18778TIP3    H177825   5.077   4.277   6.456  0.0587  1.3210  1.5092
18778TIP3    H277826   5.219   4.291   6.404 -0.3245  0.1642  0.0693
18779TIP3   OH277827   1.063   1.933   4.501  0.0968 -0.7321 -0.2629
18779TIP3    H177828   0.974   1.907   4.476 -1.1291  3.4655 -1.0145
18779TIP3    H277829   1.072   1.903   4.591 -2.0605 -1.3239 -0.1806
18780TIP3   OH277830   0.618   0.254  16.352  0.2587  0.1128  0.2927
18780TIP3    H177831   0.618   0.255  16.447 -0.1810 -0.0216  0.2966
18780TIP3    H277832   0.632   0.162  16.329  2.2375  0.4014  0.2066
18781TIP3   OH277833   2.757   6.580  13.137  0.3014  0.0625 -0.4342
18781TIP3    H177834   2.731   6.493  13.104  0.6299  0.4729 -1.8603
18781TIP3    H277835   2.764   6.569  13.231 -0.1796 -1.3331 -0.5395
18782TIP3   OH277836   3.343   2.471   5.852 -0.6085 -0.1983 -0.2847
18782TIP3    H177837   3.333   2.376   5.850  0.2815 -0.3306  0.7186
18782TIP3    H277838   3.253   2.504   5.844 -0.9431 -1.1150 -0.4939
18783TIP3   OH277839   4.083   5.063  13.571  0.2455  0.7004  0.0144
18783TIP3    H177840   4.080   5.149  13.529  0.5545  0.0638 -1.3596
18783TIP3    H277841   4.174   5.035  13.565 -0.1461 -0.4525 -1.1376
18784TIP3   OH277842   4.647   3.332   1.658  0.2580  0.1169  0.0907
18784TIP3    H177843   4.638   3.240   1.684 -0.8540  0.2230  0.1042
18784TIP3    H277844   4.676   3.327   1.566  0.0442 -0.2411  0.0409
18785TIP3   OH277845   0.007   2.321   6.302 -0.6887 -0.3841  0.2280
18785TIP3    H177846   0.025   2.396   6.246  1.2937 -0.4691  0.6522
18785TIP3    H277847   0.063   2.251   6.267  0.0645 -0.6472  1.8353
18786TIP3   OH277848   4.039   5.803   5.281  0.3109  0.1464 -0.1643
18786TIP3    H177849   4.120   5.843   5.312  0.0998  1.4588 -1.2159
18786TIP3    H277850   3.969   5.851   5.326  0.0733  0.6466 -1.0305
18787TIP3   OH277851   0.754   3.732  16.069  0.2727  0.1643  0.0143
18787TIP3    H177852   0.715   3.716  16.155 -1.4057 -3.5077 -1.2574
18787TIP3    H277853   0.839   3.690  16.073  0.2874  0.1870 -0.0553
18788TIP3   OH277854   2.328   2.345   0.167 -0.0705  0.0299  0.1016
18788TIP3    H177855   2.375   2.399   0.105 -0.2647  0.1048  0.0188
18788TIP3    H277856   2.377   2.263   0.170  0.0719  0.1133  0.0275
18789TIP3   OH277857   1.876   4.106   3.400  0.3361  0.6030 -0.2743
18789TIP3    H177858   1.880   4.130   3.307 -1.4806  0.8854 -0.3287
18789TIP3    H277859   1.787   4.130   3.426  0.2574 -1.0414  1.1051
18790TIP3   OH277860   2.910   0.556  12.044  0.0978  0.1186 -0.3950
18790TIP3    H177861   2.917   0.625  11.978 -0.0256  0.2288 -0.2945
18790TIP3    H277862   2.842   0.588  12.104  0.0530 -0.0824 -0.3393
18791TIP3   OH277863   2.568   6.661   5.364 -1.1219  0.9998  0.2463
18791TIP3    H177864   2.621   6.604   5.420  1.8470  1.7162 -1.6216
18791TIP3    H277865   2.483   6.664   5.407  0.0544 -0.9295  3.0016
18792TIP3   OH277866   6.467   5.183  16.503 -0.6996 -0.0863  0.0373
18792TIP3    H177867   6.467   5.277  16.521  0.7108  0.1521 -1.0520
18792TIP3    H277868   6.515   5.175  16.421 -0.3907 -1.8096  0.3638
18793TIP3   OH277869   3.794   2.882  11.285 -0.2504 -0.4102  0.0291
18793TIP3    H177870   3.790   2.813  11.219 -0.4956  0.8637 -1.3384
18793TIP3    H277871   3.869   2.935  11.260 -0.0978 -0.1252  1.0334
18794TIP3   OH277872   6.424   2.657   3.184 -0.1990  0.0780 -0.3862
18794TIP3    H177873   6.489   2.725   3.163 -0.3646  0.4162  0.1728
18794TIP3    H277874   6.366   2.655   3.108  1.7381 -1.8141 -1.9509
18795TIP3   OH277875   6.306   1.279   2.188  0.5762  0.1211  0.1171
18795TIP3    H177876   6.259   1.362   2.199 -0.3564  0.2458 -3.4975
18795TIP3    H277877   6.397   1.304   2.175  0.4402  0.5032 -0.1141
18796TIP3   OH277878   3.141   2.498   5.255  0.0531  0.3184  0.4670
18796TIP3    H177879   3.104   2.586   5.264  1.0210  0.6800  1.0033
18796TIP3    H277880   3.177   2.479   5.342  0.2660 -0.4181  0.2174
18797TIP3   OH277881   6.506   5.226   6.046 -0.0954 -0.2197  0.5095
18797TIP3    H177882   6.539   5.159   6.106 -0.3220 -2.0214 -1.2822
18797TIP3    H277883   6.562   5.219   5.969  0.4020  2.2832  0.5717
18798TIP3   OH277884   3.926   1.245  11.165  0.3110 -0.3600 -0.1514
18798TIP3    H177885   3.999   1.303  11.142  1.1627 -1.5733 -0.5715
18798TIP3    H277886   3.967   1.160  11.183 -1.1230 -1.5132 -1.9961
18799TIP3   OH277887   0.060   4.797   5.223 -0.0861  0.7929 -0.1294
18799TIP3    H177888   0.133   4.855   5.202  1.8958 -1.7917 -0.8710
18799TIP3    H277889   0.026   4.769   5.138  2.1140 -2.6756 -0.0755
18800TIP3   OH277890   1.841   2.820  15.677  0.7699  0.4523 -0.1395
18800TIP3    H177891   1.839   2.791  15.768 -0.3460 -1.0962 -0.6087
18800TIP3    H277892   1.756   2.793  15.641  1.6232  0.0049 -1.9387
18801TIP3   OH277893   0.090   2.008  14.627  0.0276  0.1589 -0.1205
18801TIP3    H177894   0.036   2.009  14.548 -0.4620 -0.5695  0.1848
18801TIP3    H277895   0.126   1.919  14.630  0.3033  0.2816  0.2925
18802TIP3   OH277896   2.863   1.209   6.550  0.3183  0.0222  0.0411
18802TIP3    H177897   2.949   1.248   6.562  0.5353 -0.1948 -0.7440
18802TIP3    H277898   2.840   1.174   6.636  0.4529  1.1814  0.5609
18803TIP3   OH277899   2.078   2.331   3.170  0.1915  0.5843 -0.0613
18803TIP3    H177900   2.152   2.338   3.229 -0.4852  0.8120  0.7767
18803TIP3    H277901   2.059   2.421   3.144 -0.3765  0.6297  0.4802
18804TIP3   OH277902   3.841   6.405   4.253 -0.2616 -0.1349 -0.2615
18804TIP3    H177903   3.856   6.492   4.290  1.5468  0.0359 -1.2916
18804TIP3    H277904   3.885   6.345   4.313 -0.6156 -0.2449 -0.1086
18805TIP3   OH277905   5.437   5.109  12.770 -0.1516  0.1238  1.2349
18805TIP3    H177906   5.475   5.191  12.799  0.6357  1.1144 -2.0906
18805TIP3    H277907   5.344   5.116  12.791 -0.3557  2.5224 -0.1411
18806TIP3   OH277908   4.428   5.930  14.204  0.7886 -0.2673  0.0440
18806TIP3    H177909   4.428   6.008  14.149 -0.2170  0.6894  1.3135
18806TIP3    H277910   4.395   5.861  14.147 -0.7132  0.7963 -0.4664
18807TIP3   OH277911   4.177   3.780  13.642 -0.4134 -0.1786  0.3007
18807TIP3    H177912   4.130   3.729  13.575 -1.2801  2.1455 -0.9551
18807TIP3    H277913   4.260   3.803  13.601  0.1100 -0.7809  0.9848
18808TIP3   OH277914   2.941   2.500   0.446  0.5736  0.4950 -0.1460
18808TIP3    H177915   2.957   2.406   0.442 -0.8823  0.1258  1.4601
18808TIP3    H277916   3.011   2.533   0.503  1.5510  0.5321 -1.3413
18809TIP3   OH277917   4.464   2.092  13.252 -0.5632  0.3067 -0.4529
18809TIP3    H177918   4.447   2.074  13.345 -2.3252  0.0906 -0.7788
18809TIP3    H277919   4.543   2.042  13.233  1.7588  2.8697  1.6664
18810TIP3   OH277920   3.816   0.510  14.580  0.5098  0.5229  0.4897
18810TIP3    H177921   3.838   0.432  14.630 -1.9855 -0.4672  0.1767
18810TIP3    H277922   3.726   0.496  14.551  0.8676  2.3288 -1.8621
18811TIP3   OH277923   6.366   5.691  15.992 -0.5292 -0.4384  0.0981
18811TIP3    H177924   6.397   5.680  15.902  0.9946  3.3199 -0.0273
18811TIP3    H277925   6.442   5.672  16.046 -0.5408  0.2589  0.3695
18812TIP3   OH277926   1.574   6.108   0.229 -0.1842  0.0899  0.6054
18812TIP3    H177927   1.655   6.073   0.265  0.3721  0.8036  0.0717
18812TIP3    H277928   1.548   6.043   0.163  0.6398  0.4787 -0.1154
18813TIP3   OH277929   0.105   2.171  14.207  0.4400 -0.1803 -0.0194
18813TIP3    H177930   0.058   2.226  14.145  0.0482 -0.0064  0.4272
18813TIP3    H277931   0.039   2.147  14.272  0.3994 -1.8015 -0.6000
18814TIP3   OH277932   5.836   6.243  13.825  0.1562 -0.2847 -0.4111
18814TIP3    H177933   5.754   6.279  13.860  0.5864  0.3151 -0.0032
18814TIP3    H277934   5.900   6.259  13.894  0.4667 -1.4282 -0.4191
18815TIP3   OH277935   0.994   0.674  11.350  0.4808  0.3632  0.2682
18815TIP3    H177936   0.963   0.693  11.261  0.0301  2.1109  0.7638
18815TIP3    H277937   1.054   0.600  11.339 -1.0547 -0.7350 -1.2170
18816TIP3   OH277938   0.881   4.206  11.894  0.6111 -0.2532  0.4543
18816TIP3    H177939   0.895   4.178  11.803 -0.0918 -0.0595  0.2822
18816TIP3    H277940   0.941   4.280  11.905 -0.7865  1.0729 -0.5192
18817TIP3   OH277941   1.889   1.126  14.409  0.7359 -0.0957  0.2400
18817TIP3    H177942   1.867   1.201  14.352 -0.2504 -0.0239  0.6977
18817TIP3    H277943   1.806   1.081  14.423  1.3673 -1.4824 -0.2862
18818TIP3   OH277944   0.288   5.320   0.783  0.0982 -1.0885  0.1896
18818TIP3    H177945   0.258   5.297   0.871  0.4069 -1.5339  0.1841
18818TIP3    H277946   0.383   5.325   0.791  0.0432  0.3052  0.2093
18819TIP3   OH277947   2.512   1.786   4.610  0.2168  0.1175  0.3794
18819TIP3    H177948   2.597   1.816   4.576  0.4550 -1.5261 -0.6225
18819TIP3    H277949   2.466   1.866   4.634  0.1694  1.5080 -3.5813
18820TIP3   OH277950   3.924   3.165   4.159  0.2297  0.3358  0.0379
18820TIP3    H177951   3.855   3.133   4.100  2.1287 -1.2495 -1.4364
18820TIP3    H277952   3.906   3.258   4.168 -1.1903  0.2625 -1.5598
18821TIP3   OH277953   3.372   6.410   5.655  0.0001 -0.1930 -0.1578
18821TIP3    H177954   3.307   6.408   5.585  0.7035 -1.2851 -0.8045
18821TIP3    H277955   3.455   6.425   5.611  0.2579  0.7798  0.6220
18822TIP3   OH277956   5.687   4.906  15.813 -0.4039  0.0282  0.6461
18822TIP3    H177957   5.640   4.937  15.890 -1.1608  0.6048 -0.0309
18822TIP3    H277958   5.756   4.850  15.848 -0.2395  0.9061  1.7778
18823TIP3   OH277959   1.143   5.184   0.718 -0.0740  0.1065  0.0202
18823TIP3    H177960   1.231   5.217   0.738 -0.0519  1.1949 -1.7433
18823TIP3    H277961   1.093   5.262   0.694 -0.7806 -0.8003 -1.5789
18824TIP3   OH277962   1.975   0.592   3.460 -0.2958  0.2478 -0.6901
18824TIP3    H177963   2.017   0.628   3.382  0.9159  0.4815  0.0390
18824TIP3    H277964   2.013   0.504   3.469  0.7669  0.7988  0.4853
18825TIP3   OH277965   3.198   2.478   3.002  0.7815  0.3409 -0.0367
18825TIP3    H177966   3.182   2.398   3.052 -0.7289  0.0899 -0.8400
18825TIP3    H277967   3.245   2.449   2.924  1.9682  0.5432  0.5817
18826TIP3   OH277968   3.412   3.520   2.710  0.3830 -0.2335 -0.1271
18826TIP3    H177969   3.460   3.438   2.712 -1.2419 -1.2321  2.6657
18826TIP3    H277970   3.328   3.501   2.752 -1.5515  2.0101 -2.6280
18827TIP3   OH277971   0.343   4.645  15.055 -0.3335 -0.2970 -0.8863
18827TIP3    H177972   0.387   4.701  14.992  1.1833 -0.3067  0.1230
18827TIP3    H277973   0.257   4.685  15.067  0.1759  0.9651 -1.2917
18828TIP3   OH277974   0.662   4.348  11.669  0.2393  0.0354  0.3189
18828TIP3    H177975   0.735   4.289  11.652  0.4708  0.3930  0.0472
18828TIP3    H277976   0.699   4.415  11.727  0.4380  0.8391 -0.7045
18829TIP3   OH277977   1.627   3.345  16.680  0.2468 -0.5911 -0.2835
18829TIP3    H177978   1.532   3.357  16.687  0.4294 -0.3033  3.1045
18829TIP3    H277979   1.637   3.264  16.631 -1.7426 -0.8344 -0.3742
18830TIP3   OH277980   6.472   1.655   3.928 -0.1469 -0.0101  0.2028
18830TIP3    H177981   6.476   1.561   3.947 -0.3351  0.1413  1.0222
18830TIP3    H277982   6.474   1.660   3.833  1.2537 -0.7816  0.1578
18831TIP3   OH277983   3.985   5.201  14.922  0.3804  0.1448 -0.0476
18831TIP3    H177984   4.080   5.187  14.922  0.6631  1.8607  0.3210
18831TIP3    H277985   3.949   5.118  14.890  1.9669 -0.7086  0.2559
18832TIP3   OH277986   3.163   5.937  15.398  0.3711 -0.3625 -0.1493
18832TIP3    H177987   3.186   6.007  15.338  1.3354  0.4376  1.1268
18832TIP3    H277988   3.123   5.870  15.342 -2.1804  1.8440 -1.2002
18833TIP3   OH277989   6.257   1.879   0.037  0.2246  0.1309 -0.2722
18833TIP3    H177990   6.325   1.835  -0.014  1.8876  0.6474  1.3777
18833TIP3    H277991   6.245   1.963  -0.006 -1.1482 -0.8684 -1.9611
18834TIP3   OH277992   6.017   2.137   5.384  0.2302 -0.0406  0.3270
18834TIP3    H177993   6.033   2.115   5.475 -0.7171 -1.2211  0.2377
18834TIP3    H277994   5.948   2.204   5.387 -0.9719 -1.2471  0.4556
18835TIP3   OH277995   1.461   4.026  11.622  0.2216  0.0987  0.0562
18835TIP3    H177996   1.448   4.067  11.707  0.5958  0.8115 -0.2280
18835TIP3    H277997   1.514   4.088  11.572  0.7421 -0.6920 -0.4037
18836TIP3   OH277998   5.442   3.065  15.503  0.7745 -0.2940 -0.7694
18836TIP3    H177999   5.397   2.997  15.452 -2.3638  0.9105  0.2022
18836TIP3    H278000   5.411   3.148  15.467  1.8220  0.6244  0.3318
18837TIP3   OH278001   5.338   6.040  17.218 -0.5141 -0.3867 -0.2204
18837TIP3    H178002   5.307   6.101  17.285 -1.7156 -0.6802 -0.4828
18837TIP3    H278003   5.430   6.025  17.240 -1.1351 -1.3042  2.0245
18838TIP3   OH278004   2.914   3.795  12.761 -0.6341  0.0798 -0.7414
18838TIP3    H178005   2.868   3.761  12.684 -0.7656  0.7155 -0.9490
18838TIP3    H278006   2.959   3.718  12.798 -2.4495 -0.7153 -0.0934
18839TIP3   OH278007   6.407   3.613  13.915 -0.7274 -0.5028  0.5019
18839TIP3    H178008   6.320   3.574  13.908 -0.2662 -1.4087 -0.2926
18839TIP3    H278009   6.464   3.556  13.864  0.3697  0.0011  1.1200
18840TIP3   OH278010   0.085   0.626  11.782 -0.1707 -0.3408 -1.0305
18840TIP3    H178011   0.130   0.710  11.790 -0.8116 -0.0905  0.2486
18840TIP3    H278012   0.089   0.605  11.689 -0.4550  1.3649 -1.4633
18841TIP3   OH278013   2.989   2.959   4.565  0.3841  0.1626 -0.1622
18841TIP3    H178014   3.008   3.052   4.577 -0.0087  0.0827  1.2994
18841TIP3    H278015   3.074   2.916   4.579  0.2585  0.2015  0.8049
18842TIP3   OH278016   5.009   5.516   2.732 -0.1118 -0.5700  0.1238
18842TIP3    H178017   4.990   5.422   2.736  1.1504 -1.1821 -3.7611
18842TIP3    H278018   4.932   5.553   2.689  0.3658 -0.2512 -0.4696
18843TIP3   OH278019   0.185   5.401  11.767 -0.3606  0.2729  0.3358
18843TIP3    H178020   0.131   5.480  11.759  0.6220  0.9316  0.0539
18843TIP3    H278021   0.235   5.397  11.686 -1.3050 -1.3597 -0.2089
18844TIP3   OH278022   0.899   3.265  13.228  0.5850 -0.3176  0.1412
18844TIP3    H178023   0.903   3.248  13.322 -1.0370 -0.0083  0.2908
18844TIP3    H278024   0.914   3.360  13.220 -1.1291  0.0008  0.2902
18845TIP3   OH278025   5.999   5.546   0.630 -0.2080  0.0804 -0.3196
18845TIP3    H178026   5.911   5.539   0.667 -0.0212 -1.8878 -0.1839
18845TIP3    H278027   6.012   5.641   0.620 -2.3567  0.4300 -0.4275
18846TIP3   OH278028   2.395   6.814   1.317 -0.2565 -0.2860  0.3340
18846TIP3    H178029   2.426   6.806   1.227 -0.5203  0.2941  0.1885
18846TIP3    H278030   2.301   6.829   1.308  0.0054  1.8563  0.6046
18847TIP3   OH278031   1.691   4.411   3.551 -0.2550  0.1251 -0.0681
18847TIP3    H178032   1.616   4.369   3.510 -2.0897  0.8468  2.3057
18847TIP3    H278033   1.712   4.354   3.625 -0.6753  1.6295  1.2585
18848TIP3   OH278034   3.038   0.217   3.908 -0.3492 -0.2612  0.5195
18848TIP3    H178035   2.970   0.203   3.975  0.8544 -0.3059  1.7755
18848TIP3    H278036   3.025   0.145   3.847 -3.1484  1.2190 -0.8282
18849TIP3   OH278037   3.927   3.387  12.791  0.0389 -0.1876 -0.2284
18849TIP3    H178038   3.962   3.299  12.804 -1.4914 -0.7963  0.0025
18849TIP3    H278039   3.919   3.422  12.879 -2.1858 -1.0070 -0.0458
18850TIP3   OH278040   0.987   2.514  17.193 -0.2278  0.0439 -0.6594
18850TIP3    H178041   1.011   2.430  17.233 -1.0129  0.4451  0.7003
18850TIP3    H278042   1.044   2.577  17.237 -0.7012  0.4152 -0.5799
18851TIP3   OH278043   1.916   1.552  15.852  0.9465  0.2053 -0.0306
18851TIP3    H178044   1.975   1.516  15.918  1.3530  0.7766 -0.0764
18851TIP3    H278045   1.945   1.642  15.839 -1.2700  1.2264  1.5081
18852TIP3   OH278046   3.455   6.075   2.358  0.7728 -0.2916  0.2188
18852TIP3    H178047   3.456   5.979   2.348  1.5768 -0.2164 -0.5896
18852TIP3    H278048   3.540   6.096   2.397  1.5286  0.2497 -1.5912
18853TIP3   OH278049   5.174   3.372  13.449  0.0404  0.2618 -0.1806
18853TIP3    H178050   5.220   3.453  13.471  0.0547  0.3025 -0.3614
18853TIP3    H278051   5.097   3.402  13.400 -0.6371  0.2656  0.8343
18854TIP3   OH278052   5.240   0.391   0.740  0.3382  0.0634 -0.1085
18854TIP3    H178053   5.212   0.475   0.703  0.2555  0.2149  0.2941
18854TIP3    H278054   5.169   0.331   0.717 -0.7711  0.6372  1.6500
18855TIP3   OH278055   0.186   2.026   4.576  0.2340  0.0434  0.1543
18855TIP3    H178056   0.197   1.964   4.505 -0.6073 -1.2652  1.1165
18855TIP3    H278057   0.127   2.093   4.541 -0.5428 -0.8283 -0.2646
18856TIP3   OH278058   1.844   5.198   1.906  0.4495  0.4949  0.1549
18856TIP3    H178059   1.847   5.291   1.926  0.4187  0.1091  2.1489
18856TIP3    H278060   1.777   5.163   1.964  0.5143 -0.7940 -0.5112
18857TIP3   OH278061   0.160   1.972   2.066 -0.1793 -0.3696 -0.0745
18857TIP3    H178062   0.167   1.970   2.162  2.3190 -1.4173 -0.2028
18857TIP3    H278063   0.211   2.048   2.040  0.2414 -0.8372 -0.6223
18858TIP3   OH278064   1.999   4.985   4.540  0.4247 -0.5261  0.2988
18858TIP3    H178065   1.939   4.926   4.495  1.1195 -0.5302 -0.6498
18858TIP3    H278066   2.055   4.927   4.591 -0.5308 -0.5046  1.4044
18859TIP3   OH278067   2.628   1.344  14.855  0.1234 -0.3307  0.1682
18859TIP3    H178068   2.590   1.282  14.793 -0.4151 -1.2732  1.3983
18859TIP3    H278069   2.562   1.412  14.864 -0.6215 -1.1616  1.1151
18860TIP3   OH278070   1.771   6.330  11.220  0.4613 -0.4948  0.2026
18860TIP3    H178071   1.677   6.313  11.215  0.1822  0.7128  0.8486
18860TIP3    H278072   1.804   6.308  11.133 -0.6105  0.0487 -0.3692
18861TIP3   OH278073   0.632   3.977   0.448 -0.1781  0.0561  0.7537
18861TIP3    H178074   0.603   3.970   0.539 -0.4732  0.7684  0.7230
18861TIP3    H278075   0.559   4.020   0.403  0.8155  1.6777  0.6231
18862TIP3   OH278076   1.673   5.441  14.320 -0.6500  0.6742  0.1275
18862TIP3    H178077   1.646   5.402  14.403 -0.4098  0.6549  0.1986
18862TIP3    H278078   1.705   5.528  14.343 -0.7253  0.7269  0.0340
18863TIP3   OH278079   0.889   1.949   4.933  0.4575  0.7700 -0.1775
18863TIP3    H178080   0.855   2.021   4.880  0.8758  0.8643 -0.3246
18863TIP3    H278081   0.983   1.966   4.938  0.5539  0.2510 -0.1861
18864TIP3   OH278082   4.934   3.033  14.713 -0.0908 -0.1256  0.3602
18864TIP3    H178083   5.029   3.044  14.725 -0.4751  1.6705  2.2209
18864TIP3    H278084   4.918   2.942  14.740  0.9434 -0.0924  1.1703
18865TIP3   OH278085   4.234   5.139  14.854  0.3317  0.1007  0.0537
18865TIP3    H178086   4.274   5.079  14.791  0.9588  0.2791  0.2715
18865TIP3    H278087   4.302   5.205  14.871  0.5376 -0.4789  1.6461
18866TIP3   OH278088   2.601   2.826   1.988 -0.1388  0.4116  0.5661
18866TIP3    H178089   2.624   2.904   1.937  1.5167 -0.1578  0.4111
18866TIP3    H278090   2.644   2.838   2.072 -0.9942  0.2700  1.0417
18867TIP3   OH278091   0.131   3.731  11.214 -0.4278 -0.4631 -0.3151
18867TIP3    H178092   0.155   3.746  11.122  1.6013 -1.5841 -0.0435
18867TIP3    H278093   0.213   3.741  11.262 -1.1716 -1.2653  1.2015
18868TIP3   OH278094   6.170   3.340  16.971 -0.0106  0.1207  0.4634
18868TIP3    H178095   6.184   3.267  16.910 -1.7342  0.1394  0.0086
18868TIP3    H278096   6.201   3.307  17.055 -2.5401 -1.9131  0.7025
18869TIP3   OH278097   4.903   6.432  13.843 -0.3125 -0.3883  0.1963
18869TIP3    H178098   4.943   6.474  13.920  2.8403  0.3214 -1.6422
18869TIP3    H278099   4.950   6.349  13.834 -1.2609 -0.8642 -0.4995
18870TIP3   OH278100   1.042   2.270  14.833  0.1316  0.1985 -0.3229
18870TIP3    H178101   1.062   2.363  14.841 -1.1806  0.4516  0.1610
18870TIP3    H278102   0.961   2.258  14.882  0.0578 -1.1257 -0.7256
18871TIP3   OH278103   1.697   6.384  15.859 -0.3138 -0.0279  1.1552
18871TIP3    H178104   1.687   6.398  15.953 -1.7280 -0.4909  1.1099
18871TIP3    H278105   1.790   6.366  15.846 -0.1870 -0.4514  2.5352
18872TIP3   OH278106   3.308   2.077   2.009 -0.2435  0.3828 -0.3569
18872TIP3    H178107   3.353   2.149   1.963  1.3061 -0.5897 -0.4301
18872TIP3    H278108   3.314   2.100   2.101 -0.4710  0.7403 -0.4284
18873TIP3   OH278109   4.145   0.428  13.674 -0.2871  0.0392  0.4654
18873TIP3    H178110   4.201   0.384  13.737 -0.2581 -2.6104 -1.2709
18873TIP3    H278111   4.057   0.395  13.692 -1.1969  2.9808  2.1461
18874TIP3   OH278112   4.245   0.059   5.425  0.2870  0.0241 -0.2656
18874TIP3    H178113   4.170   0.027   5.374  0.8078 -0.4526 -0.7476
18874TIP3    H278114   4.206   0.118   5.490 -0.6610 -1.1736  0.3118
18875TIP3   OH278115   0.899   4.256  16.348 -0.0266  0.3808 -0.2433
18875TIP3    H178116   0.851   4.227  16.425  1.0874  1.8577  1.0772
18875TIP3    H278117   0.963   4.318  16.381  1.3430  0.1408 -2.2131
18876TIP3   OH278118   6.452   2.548   6.928 -1.0635 -0.5146 -0.1920
18876TIP3    H178119   6.360   2.574   6.935 -1.1080 -0.3058 -1.2466
18876TIP3    H278120   6.490   2.614   6.869 -1.0863 -2.5725 -2.6925
18877TIP3   OH278121   5.004   3.908  13.572  0.3540 -0.1474 -0.4476
18877TIP3    H178122   5.032   3.894  13.662  0.4441 -0.2145 -0.4857
18877TIP3    H278123   4.955   3.829  13.549 -1.6000  0.8172  0.2737
18878TIP3   OH278124   0.800   1.278  12.808 -0.3325 -0.2382  0.6056
18878TIP3    H178125   0.804   1.319  12.894 -0.2030  1.0287  0.0184
18878TIP3    H278126   0.707   1.261  12.794 -0.4034 -0.0294  0.8144
18879TIP3   OH278127   3.334   5.285  13.729 -0.1628 -0.2433  0.6506
18879TIP3    H178128   3.401   5.275  13.797 -0.2862 -1.2133  0.6423
18879TIP3    H278129   3.383   5.284  13.647  0.0448  1.4934  0.7211
18880TIP3   OH278130   3.882   2.950  16.912 -0.4302 -0.0515  0.0313
18880TIP3    H178131   3.914   2.959  16.822 -0.8295 -0.5534 -0.1599
18880TIP3    H278132   3.960   2.929  16.963 -0.1912  0.2993 -0.1856
18881TIP3   OH278133   6.817   4.285  12.966 -0.3722 -0.3524  0.2737
18881TIP3    H178134   6.908   4.314  12.974  0.0525 -1.5900  0.1743
18881TIP3    H278135   6.796   4.247  13.052 -0.2274 -1.5528 -0.1971
18882TIP3   OH278136   2.571   3.426   5.685 -0.8222 -0.2048 -0.7615
18882TIP3    H178137   2.492   3.448   5.735  0.0007  0.6753  0.2023
18882TIP3    H278138   2.606   3.349   5.730 -1.1644 -0.6449 -1.2388
18883TIP3   OH278139   4.608   5.839  12.597 -0.2393 -0.4769 -0.4305
18883TIP3    H178140   4.610   5.916  12.540  3.3968 -0.5610 -0.6453
18883TIP3    H278141   4.577   5.873  12.681 -1.8720  0.4608 -1.3484
18884TIP3   OH278142   1.819   0.316   4.548  0.1888 -0.4740 -1.0469
18884TIP3    H178143   1.820   0.223   4.527  0.3938 -1.0790  1.3500
18884TIP3    H278144   1.760   0.355   4.483 -0.8187 -2.4548 -1.3929
18885TIP3   OH278145   3.030   1.223   3.170  0.5730  0.0166  0.3696
18885TIP3    H178146   3.026   1.180   3.084 -0.7054  0.8485 -0.0089
18885TIP3    H278147   3.006   1.154   3.232  1.4117 -0.5669  0.0622
18886TIP3   OH278148   4.174   5.803  13.696 -0.5621  0.0080 -0.4882
18886TIP3    H178149   4.219   5.876  13.740 -1.8136  0.3298  0.3009
18886TIP3    H278150   4.201   5.725  13.745 -1.2701  0.2671  0.3495
18887TIP3   OH278151   4.580   6.820   1.305 -0.0947  0.1001  0.1288
18887TIP3    H178152   4.646   6.776   1.251 -0.0320  0.2293  0.0973
18887TIP3    H278153   4.549   6.753   1.365  2.4744  0.7822  2.4501
18888TIP3   OH278154   3.211   4.030  13.309 -0.0983 -0.5536 -0.4842
18888TIP3    H178155   3.178   4.076  13.386 -1.3609  0.3003 -1.5019
18888TIP3    H278156   3.140   3.971  13.284  0.6138 -1.4078 -0.5558
18889TIP3   OH278157   6.503   5.874   5.303  0.0928 -0.3761 -0.0414
18889TIP3    H178158   6.412   5.870   5.333  0.6177  1.2545  1.9957
18889TIP3    H278159   6.500   5.928   5.224 -0.5844  0.7234  0.7153
18890TIP3   OH278160   1.924   4.589  14.364 -0.1403  0.7714 -0.3204
18890TIP3    H178161   2.001   4.646  14.356 -0.3122  1.2791  1.2328
18890TIP3    H278162   1.903   4.591  14.457 -1.7392  0.2248 -0.6392
18891TIP3   OH278163   2.754   1.807  15.399 -0.1997  0.4584  0.2444
18891TIP3    H178164   2.708   1.728  15.370 -0.7134  0.4158  1.1197
18891TIP3    H278165   2.799   1.779  15.480  0.7393  0.7088 -0.1759
18892TIP3   OH278166   5.348   6.339   1.281  0.0714 -0.6613  0.2415
18892TIP3    H178167   5.295   6.349   1.202 -2.2834  3.6390  2.0270
18892TIP3    H278168   5.404   6.417   1.284  2.5259 -2.3033  1.3195
18893TIP3   OH278169   3.964   2.744  13.847  0.6065  0.2797  0.0234
18893TIP3    H178170   3.973   2.838  13.831 -0.3693  0.4130  0.2275
18893TIP3    H278171   3.928   2.710  13.765 -0.2102  0.2808  0.3752
18894TIP3   OH278172   6.652   5.644   5.254  0.1858 -0.0402 -0.1552
18894TIP3    H178173   6.734   5.694   5.255 -0.1720  0.5503 -0.2701
18894TIP3    H278174   6.583   5.710   5.253 -0.3051 -0.5299  0.4079
18895TIP3   OH278175   1.400   5.231   2.926 -0.0424 -0.3237  0.0776
18895TIP3    H178176   1.416   5.187   3.010 -0.8150  1.1459  1.0629
18895TIP3    H278177   1.305   5.243   2.923  0.0710  0.5688 -0.4853
18896TIP3   OH278178   2.260   0.938  11.192  0.0949  0.0273 -0.0527
18896TIP3    H178179   2.295   1.027  11.192  0.4557 -0.1061  0.7503
18896TIP3    H278180   2.331   0.884  11.158  0.1349 -0.0504  0.1555
18897TIP3   OH278181   1.469   2.878   0.995 -0.1688 -0.4845 -1.0437
18897TIP3    H178182   1.433   2.887   1.084  1.9585  0.5628 -0.2027
18897TIP3    H278183   1.464   2.967   0.958  1.7548 -0.1963 -0.7428
18898TIP3   OH278184   3.104   6.584   3.118 -0.1756  0.1259 -0.0322
18898TIP3    H178185   3.033   6.567   3.180  0.5838  0.4228  0.9392
18898TIP3    H278186   3.161   6.507   3.125  0.0667  0.2946 -0.1536
18899TIP3   OH278187   0.715   6.564   3.171  0.4279  0.4424 -1.1976
18899TIP3    H178188   0.761   6.648   3.169  1.4382 -0.0806 -0.9112
18899TIP3    H278189   0.783   6.499   3.152 -0.3712 -0.3032 -1.5834
18900TIP3   OH278190   1.148   3.553   6.095  0.8643 -0.0539 -0.1490
18900TIP3    H178191   1.199   3.625   6.057  1.0250  0.2995  0.7176
18900TIP3    H278192   1.112   3.589   6.176 -1.3367 -0.0750 -1.0522
18901TIP3   OH278193   0.421   6.130   4.123 -0.8973 -0.1129 -0.5370
18901TIP3    H178194   0.347   6.071   4.132  1.0526 -2.7909 -0.7404
18901TIP3    H278195   0.473   6.093   4.052 -0.8450  3.4581 -2.6001
18902TIP3   OH278196   3.007   0.034   0.152  0.1033  0.1126  0.3203
18902TIP3    H178197   2.937   0.097   0.169  0.0550  0.7354 -1.8781
18902TIP3    H278198   3.081   0.089   0.123  0.1830 -0.7856 -1.2664
18903TIP3   OH278199   2.602   0.621  16.510  0.0330 -0.0201 -0.9364
18903TIP3    H178200   2.533   0.626  16.443 -0.7072  0.7147 -0.1529
18903TIP3    H278201   2.575   0.685  16.576 -0.1521 -1.8698  0.8825
18904TIP3   OH278202   5.960   6.077  13.330 -0.2584 -0.9599 -0.5359
18904TIP3    H178203   5.871   6.109  13.346 -0.7262 -1.7318 -1.4685
18904TIP3    H278204   5.995   6.137  13.263  0.4665  0.2109  0.8406
18905TIP3   OH278205   0.785   2.626   1.189  0.5298  0.0538  0.0780
18905TIP3    H178206   0.778   2.706   1.137  0.6016  0.0328  0.0358
18905TIP3    H278207   0.755   2.651   1.276  3.6806  1.0074  1.0056
18906TIP3   OH278208   4.645   0.360   0.147 -0.3732 -0.2091  0.0802
18906TIP3    H178209   4.578   0.351   0.079  1.6805  1.9907 -2.4667
18906TIP3    H278210   4.719   0.308   0.115  0.4699  0.4773  0.8523
18907TIP3   OH278211   6.743   0.241   3.437 -0.6118  0.6943  0.6481
18907TIP3    H178212   6.792   0.301   3.493  0.3140  0.1285  0.4581
18907TIP3    H278213   6.741   0.158   3.485  0.7295  0.0216 -0.4024
18908TIP3   OH278214   4.823   1.533   2.419  0.1448 -0.0632 -0.1471
18908TIP3    H178215   4.821   1.576   2.504  2.4259  0.7792 -0.4603
18908TIP3    H278216   4.766   1.586   2.364  1.6576  1.7007 -0.1019
18909TIP3   OH278217   6.443   6.529  16.463 -0.5722 -0.1798  0.4488
18909TIP3    H178218   6.492   6.519  16.544  0.3260  0.6959  0.0501
18909TIP3    H278219   6.424   6.623  16.458 -2.0053 -0.4511  0.4134
18910TIP3   OH278220   3.206   2.440   1.769 -0.1490 -0.4696  0.0902
18910TIP3    H178221   3.294   2.402   1.776  1.2462  2.6044  0.9901
18910TIP3    H278222   3.168   2.397   1.692  3.0204 -0.3117 -1.7378
18911TIP3   OH278223   3.084   5.335  12.788 -0.1124 -0.4351  0.4844
18911TIP3    H178224   3.066   5.354  12.696 -0.9790 -1.2786  0.4640
18911TIP3    H278225   2.998   5.338  12.831  0.3111  0.2367  1.3272
18912TIP3   OH278226   2.824   1.248  11.240  0.6830 -0.5636  0.1108
18912TIP3    H178227   2.767   1.290  11.304  0.7017 -1.5679  0.8188
18912TIP3    H278228   2.764   1.204  11.180  0.5887  1.7519 -1.6344
18913TIP3   OH278229   3.241   4.664   3.099  0.0512  0.0744 -0.0995
18913TIP3    H178230   3.168   4.612   3.134  0.6659  0.4845  1.9513
18913TIP3    H278231   3.274   4.711   3.175 -0.0465  2.9942 -1.7518
18914TIP3   OH278232   6.588   2.698  13.438  0.5488 -0.0622 -0.7240
18914TIP3    H178233   6.599   2.787  13.403 -2.0546  0.0403 -1.4915
18914TIP3    H278234   6.604   2.641  13.363  0.8650 -0.1954 -0.5590
18915TIP3   OH278235   2.675   1.013  16.807  0.8408  0.4127 -0.3222
18915TIP3    H178236   2.699   1.097  16.768  0.5486  0.9540  0.6190
18915TIP3    H278237   2.647   1.035  16.896 -1.1393 -0.4288 -0.6803
18916TIP3   OH278238   4.353   6.574   0.840  0.1644 -0.1841 -0.6142
18916TIP3    H178239   4.262   6.545   0.850  0.0774  0.5477  0.9563
18916TIP3    H278240   4.357   6.611   0.752 -1.6327  1.6471  0.0102
18917TIP3   OH278241   3.647   5.598  15.267  0.8929  0.6272  0.4899
18917TIP3    H178242   3.659   5.616  15.173 -1.7589  0.2754  0.0020
18917TIP3    H278243   3.650   5.502  15.273 -1.1006  0.4936  0.3087
18918TIP3   OH278244   6.638   4.588  14.831  0.1389  0.0299 -0.4511
18918TIP3    H178245   6.634   4.598  14.926 -0.1450  1.0176 -0.5512
18918TIP3    H278246   6.714   4.533  14.815  0.6149  0.4552  0.3169
18919TIP3   OH278247   3.863   5.634  12.284  0.1765  0.0086 -0.3070
18919TIP3    H178248   3.858   5.729  12.294 -1.1054 -0.1386  0.8039
18919TIP3    H278249   3.790   5.612  12.226 -0.4871 -0.4246  0.6661
18920TIP3   OH278250   5.144   5.617  15.550 -0.9188  0.0461  0.6389
18920TIP3    H178251   5.235   5.642  15.563 -0.5566 -0.1494 -1.1797
18920TIP3    H278252   5.134   5.536  15.601 -0.1263  0.1715  1.0108
18921TIP3   OH278253   5.179   3.234   0.538  0.5449 -0.6941 -0.2020
18921TIP3    H178254   5.212   3.212   0.451  0.8219 -0.8484 -0.0578
18921TIP3    H278255   5.244   3.198   0.598 -0.0205 -1.2415  0.0935
18922TIP3   OH278256   6.638   5.441  15.842  0.2276  0.2743 -0.0036
18922TIP3    H178257   6.727   5.475  15.830 -0.1791  1.0913 -0.8854
18922TIP3    H278258   6.582   5.519  15.835 -0.5627 -0.2493  0.4025
18923TIP3   OH278259   1.000   1.578  11.579  0.0208  0.1975 -0.5239
18923TIP3    H178260   1.053   1.651  11.612 -1.0374  0.7191  0.0926
18923TIP3    H278261   1.058   1.502  11.583  0.9433  0.8838 -0.5694
18924TIP3   OH278262   5.086   3.429   4.906 -0.0806 -0.1850  0.0812
18924TIP3    H178263   4.995   3.431   4.874  0.8582 -0.8557 -3.0151
18924TIP3    H278264   5.084   3.370   4.981 -2.6726  2.2453  2.1486
18925TIP3   OH278265   1.157   5.488  10.966  0.5312  0.0644 -0.0864
18925TIP3    H178266   1.159   5.492  10.871  3.4188 -1.1180 -0.1556
18925TIP3    H278267   1.247   5.470  10.992 -0.5297 -1.9271  2.7557
18926TIP3   OH278268   0.342   3.310  13.454 -0.1205 -0.1476  0.2632
18926TIP3    H178269   0.361   3.222  13.486  0.0062  0.4437  1.9027
18926TIP3    H278270   0.427   3.345  13.427  0.2290  0.2974  1.8441
18927TIP3   OH278271   3.549   4.824  15.403 -0.1167 -0.1350 -0.0476
18927TIP3    H178272   3.571   4.788  15.489  0.6234  2.2260  0.8269
18927TIP3    H278273   3.456   4.844  15.409  0.2501  1.4913  0.8453
18928TIP3   OH278274   0.695   5.159   1.131  0.0193 -0.8919 -0.1259
18928TIP3    H178275   0.618   5.192   1.178 -1.3086 -1.0454 -2.0566
18928TIP3    H278276   0.765   5.219   1.154 -0.6271 -0.7854  1.7644
18929TIP3   OH278277   3.998   2.864   4.608 -0.0779  0.2132 -0.3842
18929TIP3    H178278   4.083   2.866   4.564 -0.7193 -0.6746 -1.7206
18929TIP3    H278279   3.946   2.931   4.563  0.0569  1.1583  0.8058
18930TIP3   OH278280   0.573   0.047  13.551 -0.5025  0.1056 -0.3625
18930TIP3    H178281   0.574   0.010  13.463 -4.2477  0.9819 -0.9612
18930TIP3    H278282   0.544   0.138  13.538 -1.1474  0.2549  1.7489
18931TIP3   OH278283   0.328   3.529   3.101  0.5261 -0.2514  0.0263
18931TIP3    H178284   0.319   3.544   3.007  0.7696  1.3533  0.2166
18931TIP3    H278285   0.238   3.518   3.133  0.4241 -0.5226 -0.3573
18932TIP3   OH278286   2.366   1.722   5.210 -0.2793 -0.4948 -0.3097
18932TIP3    H178287   2.298   1.660   5.235  0.3812 -1.7720 -1.5256
18932TIP3    H278288   2.437   1.705   5.272 -0.3304 -0.5194 -0.2570
18933TIP3   OH278289   2.868   4.548   0.564 -0.1790  0.0363  0.2120
18933TIP3    H178290   2.885   4.614   0.631 -1.6861  0.9741 -0.2643
18933TIP3    H278291   2.946   4.550   0.508  0.6483 -0.0256  1.3411
18934TIP3   OH278292   4.414   3.178   4.152 -0.4806 -0.2385  0.5643
18934TIP3    H178293   4.469   3.255   4.142 -2.5537  1.1682 -0.7223
18934TIP3    H278294   4.361   3.196   4.230  0.5916 -1.4619  1.6379
18935TIP3   OH278295   3.230   0.969   5.344 -0.1080  0.0036 -0.1097
18935TIP3    H178296   3.208   0.951   5.435 -0.5847 -1.5849 -0.5103
18935TIP3    H278297   3.147   0.959   5.297 -0.0490  1.6450 -0.6367
18936TIP3   OH278298   2.788   5.273  12.779 -0.0110  0.1205 -0.0219
18936TIP3    H178299   2.701   5.276  12.740  0.5724  0.5218 -1.3593
18936TIP3    H278300   2.846   5.256  12.705  1.0100 -0.6390  0.9192
18937TIP3   OH278301   2.323   2.865   0.233 -0.2220 -0.7734 -0.3241
18937TIP3    H178302   2.320   2.961   0.233 -0.2614 -0.6775 -3.3164
18937TIP3    H278303   2.257   2.839   0.297  0.6767  1.1405  1.5185
18938TIP3   OH278304   1.459   5.592  13.899 -0.1921 -0.1353 -0.0985
18938TIP3    H178305   1.422   5.506  13.877 -2.7220  1.1999 -1.4554
18938TIP3    H278306   1.393   5.633  13.954 -0.2955  1.9120 -1.6312
18939TIP3   OH278307   2.283   0.888   0.193  0.5186  0.3935  0.6338
18939TIP3    H178308   2.355   0.883   0.130  0.4939  0.2230  0.6191
18939TIP3    H278309   2.216   0.940   0.148  0.0928 -0.5760  0.1178
18940TIP3   OH278310   0.618   0.695   2.843  0.2191 -0.2816  0.5683
18940TIP3    H178311   0.676   0.751   2.894 -1.6670  1.8402  0.5360
18940TIP3    H278312   0.599   0.621   2.900  1.0204  0.2192  1.5074
18941TIP3   OH278313   6.193   1.141   1.735  0.0653  0.7818 -0.3331
18941TIP3    H178314   6.118   1.085   1.753 -0.9129  2.0651 -0.2073
18941TIP3    H278315   6.181   1.216   1.793  1.9562  0.6048  0.3459
18942TIP3   OH278316   4.403   2.804   5.026 -0.4306 -0.4406 -0.0401
18942TIP3    H178317   4.479   2.846   4.985  1.0774 -1.3759  1.6735
18942TIP3    H278318   4.440   2.740   5.086 -2.5780 -0.6482  1.1680
18943TIP3   OH278319   3.133   4.051  15.087  0.1752  0.5722  0.1079
18943TIP3    H178320   3.050   4.054  15.040  0.3916  2.1168 -0.2347
18943TIP3    H278321   3.150   3.958  15.100 -1.3619  0.2154 -0.2392
18944TIP3   OH278322   5.143   4.713  15.994  0.0730 -0.0897 -0.7655
18944TIP3    H178323   5.153   4.720  15.899 -0.3570 -0.7927 -0.8643
18944TIP3    H278324   5.116   4.801  16.021  0.1903  0.1131 -1.2887
18945TIP3   OH278325   4.374   6.083  15.822  0.2061  0.0441 -0.1038
18945TIP3    H178326   4.297   6.038  15.788  1.1135 -0.7925 -1.1523
18945TIP3    H278327   4.373   6.065  15.916 -1.1680  0.5372 -0.0044
18946TIP3   OH278328   0.710   3.266  12.002  0.9943 -0.3822 -0.0997
18946TIP3    H178329   0.690   3.173  11.988  0.9795 -0.5043  0.7027
18946TIP3    H278330   0.693   3.306  11.917 -0.7698 -0.8149  0.0041
18947TIP3   OH278331   3.087   6.286  15.584 -0.0142  0.0802 -0.3135
18947TIP3    H178332   3.053   6.295  15.495  3.2520  0.8108 -1.6448
18947TIP3    H278333   3.180   6.267  15.572  0.2479 -1.4486  2.9793
18948TIP3   OH278334   4.176   5.462   1.360 -0.2021  0.5537  0.2517
18948TIP3    H178335   4.125   5.462   1.279  1.2345  0.6830 -0.6826
18948TIP3    H278336   4.243   5.395   1.347 -0.9310 -0.5928  2.0131
18949TIP3   OH278337   1.782   6.112  12.686 -0.4201 -0.7673 -0.2015
18949TIP3    H178338   1.700   6.154  12.713  0.7772  0.7470  1.3193
18949TIP3    H278339   1.848   6.151  12.742  1.2339 -2.6690 -0.7032
18950TIP3   OH278340   3.374   0.678  16.028  0.0602  0.1310  0.0628
18950TIP3    H178341   3.319   0.624  15.971 -0.4328  0.0124  0.6364
18950TIP3    H278342   3.396   0.755  15.975 -1.2895  0.5412  0.0662
18951TIP3   OH278343   2.893   5.397   3.788 -0.3765  0.8780  0.3046
18951TIP3    H178344   2.825   5.441   3.838 -0.2323  0.7765  0.5948
18951TIP3    H278345   2.964   5.383   3.851 -0.0359  1.0987 -0.0257
18952TIP3   OH278346   0.678   4.972  14.914 -0.4127  0.4466 -0.1896
18952TIP3    H178347   0.700   4.985  15.007  1.2808  2.2898 -0.7745
18952TIP3    H278348   0.715   5.049  14.870  0.5432 -1.2915 -2.6361
18953TIP3   OH278349   2.988   0.099  13.320  0.0138  0.0786  0.3003
18953TIP3    H178350   2.893   0.108  13.325  0.1756  2.2109  0.6916
18953TIP3    H278351   3.018   0.114  13.410  0.7420 -0.1660  0.1039
18954TIP3   OH278352   1.621   3.552   0.223 -0.2049 -0.8217  0.0668
18954TIP3    H178353   1.530   3.562   0.196  0.1625  1.6050 -0.4821
18954TIP3    H278354   1.672   3.555   0.142  0.4134 -1.8441  0.3898
18955TIP3   OH278355   0.963   1.538   6.203  0.2364  0.0063 -0.0711
18955TIP3    H178356   0.929   1.453   6.173  1.1437 -0.4208  0.0733
18955TIP3    H278357   0.885   1.593   6.213 -0.2443 -0.3923 -1.4517
18956TIP3   OH278358   1.061   2.528  13.952 -0.3322 -0.2968  0.6488
18956TIP3    H178359   0.984   2.507  14.004 -1.2715 -0.9252 -0.9016
18956TIP3    H278360   1.096   2.443  13.925  0.5143 -0.0013  0.8018
18957TIP3   OH278361   5.372   4.325   2.559  0.2450 -0.2049 -0.2074
18957TIP3    H178362   5.304   4.392   2.562 -0.7845 -1.2254  1.3048
18957TIP3    H278363   5.362   4.284   2.474  1.1217  1.7305 -1.3033
18958TIP3   OH278364   2.631   6.006  16.611 -0.3118 -0.0386  0.0820
18958TIP3    H178365   2.563   5.939  16.619 -0.4373 -0.2177 -1.8098
18958TIP3    H278366   2.677   5.983  16.530  1.5173  0.5392  0.9217
18959TIP3   OH278367   0.272   5.452  15.935  0.0259 -0.6948 -0.4868
18959TIP3    H178368   0.330   5.465  16.010  0.0342  0.4568 -0.6825
18959TIP3    H278369   0.202   5.396  15.968 -1.2339  1.6549  1.0602
18960TIP3   OH278370   5.066   0.063   5.647 -0.6711  0.0470 -0.3559
18960TIP3    H178371   5.057   0.080   5.553 -0.3953  2.5400 -0.0050
18960TIP3    H278372   4.977   0.047   5.678 -0.8738  0.0952 -0.9128
18961TIP3   OH278373   1.074   1.826   6.318 -0.4133 -0.6601 -0.2128
18961TIP3    H178374   1.004   1.771   6.355 -0.6177  0.4772  1.1774
18961TIP3    H278375   1.032   1.874   6.247 -0.6991 -0.9340 -0.2341
18962TIP3   OH278376   1.724   2.305   1.572  0.4641 -0.1074 -0.7084
18962TIP3    H178377   1.702   2.256   1.493 -1.2297 -0.5710  0.0152
18962TIP3    H278378   1.816   2.282   1.589  0.4209 -1.1325 -1.7275
18963TIP3   OH278379   4.448   2.867   4.728  0.0349  0.2132 -0.2938
18963TIP3    H178380   4.417   2.779   4.750  2.4037 -0.2088  1.7899
18963TIP3    H278381   4.529   2.878   4.778  0.0947  3.4151 -0.8329
18964TIP3   OH278382   3.403   0.819  11.282  0.6796  0.1126 -0.2577
18964TIP3    H178383   3.397   0.894  11.222  4.4723  0.5690 -0.3093
18964TIP3    H278384   3.432   0.747  11.226  2.2266  0.0163  0.6182
18965TIP3   OH278385   1.192   1.337  15.860  0.0324 -0.1312  0.0768
18965TIP3    H178386   1.108   1.327  15.815 -0.4121  0.9047  0.6251
18965TIP3    H278387   1.246   1.266  15.826 -1.4752 -1.6484  0.6778
18966TIP3   OH278388   5.366   5.739  12.455  0.0422  0.4089 -0.2372
18966TIP3    H178389   5.457   5.751  12.428 -0.0633  0.0802 -0.7408
18966TIP3    H278390   5.365   5.654  12.498 -0.2782 -0.1771 -1.3696
18967TIP3   OH278391   2.046   4.212  15.795  0.6630  0.3794 -0.0127
18967TIP3    H178392   2.056   4.245  15.706  0.0615  1.7934  0.4278
18967TIP3    H278393   2.045   4.290  15.850  0.6306 -0.4555  1.2035
18968TIP3   OH278394   2.827   1.608   5.899 -0.4097  0.7084  0.3314
18968TIP3    H178395   2.910   1.576   5.864 -0.6456  1.2551 -0.7401
18968TIP3    H278396   2.852   1.679   5.958 -0.1652  1.4945 -0.7001
18969TIP3   OH278397   4.046   5.701  13.981 -0.2179  0.6958  0.0608
18969TIP3    H178398   4.101   5.646  13.926  0.7387  1.4960  0.1903
18969TIP3    H278399   3.959   5.694  13.942  0.3605  0.9500 -1.3502
18970TIP3   OH278400   6.382   2.938   4.372  0.0764 -0.4679  0.0010
18970TIP3    H178401   6.408   3.025   4.344  0.4599 -0.2908  0.8631
18970TIP3    H278402   6.315   2.952   4.438  0.8552 -0.7687  0.8868
18971TIP3   OH278403   2.067   0.582  10.510 -1.1488  0.6844 -0.1835
18971TIP3    H178404   2.075   0.486  10.506 -1.2753  0.6989 -1.0516
18971TIP3    H278405   2.116   0.607  10.588  0.0649  0.0297 -0.7016
18972TIP3   OH278406   3.683   6.406  16.979  0.4657 -0.0563  0.2982
18972TIP3    H178407   3.684   6.375  17.069  1.7270 -3.8453 -0.8086
18972TIP3    H278408   3.775   6.424  16.958  0.8792 -3.1265 -1.1928
18973TIP3   OH278409   4.279   0.458   3.600  0.4966  0.0547 -0.0272
18973TIP3    H178410   4.302   0.511   3.523  0.4061 -1.7113 -1.3450
18973TIP3    H278411   4.184   0.448   3.595  0.3616  0.7272  0.8993
18974TIP3   OH278412   1.962   4.479  12.039 -0.3980  0.0438  0.1127
18974TIP3    H178413   1.893   4.470  12.104  0.5151 -0.8528  1.0023
18974TIP3    H278414   1.997   4.390  12.029  0.6606  0.4852 -0.2736
18975TIP3   OH278415   6.240   6.646  13.624  0.2716 -0.1126 -0.2960
18975TIP3    H178416   6.294   6.713  13.665 -1.0686  0.2001  1.0313
18975TIP3    H278417   6.200   6.599  13.697  0.2158 -1.5810 -1.2206
18976TIP3   OH278418   4.807   1.795   1.133  0.4031 -0.4843  0.4160
18976TIP3    H178419   4.798   1.874   1.187 -1.0549  0.0991 -0.6151
18976TIP3    H278420   4.749   1.732   1.174 -1.1290  0.1341 -0.7183
18977TIP3   OH278421   0.268   6.727  12.696 -0.8439 -0.3152  0.5082
18977TIP3    H178422   0.233   6.696  12.613  1.6867  0.2357 -0.8485
18977TIP3    H278423   0.193   6.727  12.755 -2.7629 -0.5468 -1.8005
18978TIP3   OH278424   5.731   3.713  10.808 -0.3902 -0.5306  0.6508
18978TIP3    H178425   5.650   3.714  10.860 -0.6977 -0.0411  0.1730
18978TIP3    H278426   5.724   3.633  10.755 -0.5049 -0.5497  0.6928
18979TIP3   OH278427   1.319   4.442   4.645  0.6442 -0.1770  0.3015
18979TIP3    H178428   1.244   4.462   4.701  1.2345 -1.5588  1.6577
18979TIP3    H278429   1.282   4.389   4.574  0.1395  0.2039  0.2769
18980TIP3   OH278430   0.473   2.862  12.462 -0.0033 -0.3633 -0.1396
18980TIP3    H178431   0.410   2.797  12.432 -0.8826  0.0861  0.6567
18980TIP3    H278432   0.493   2.837  12.552  2.3167 -1.4920 -0.8836
18981TIP3   OH278433   6.800   6.157  15.040  0.3240  0.1234  0.2948
18981TIP3    H178434   6.752   6.182  15.119 -0.1793 -0.9509  0.3357
18981TIP3    H278435   6.782   6.228  14.978  2.6064  2.2103  1.8355
18982TIP3   OH278436   3.484   3.288   1.521 -0.0105  0.7597  0.2578
18982TIP3    H178437   3.436   3.205   1.514  0.2732  0.6264 -0.1960
18982TIP3    H278438   3.530   3.295   1.437  2.0353  0.1010  1.2593
18983TIP3   OH278439   0.958   6.102   0.248  0.3789 -0.8933 -0.2691
18983TIP3    H178440   0.983   6.015   0.218  1.4389 -0.6992  0.0303
18983TIP3    H278441   0.947   6.092   0.343  0.9501 -0.5979 -0.1716
18984TIP3   OH278442   6.258   5.632  14.336  0.4492  0.4064 -0.0232
18984TIP3    H178443   6.300   5.678  14.409  1.7666 -0.9409  0.1331
18984TIP3    H278444   6.325   5.631  14.267  0.3834 -1.0071 -0.1037
18985TIP3   OH278445   1.776   1.910  12.974 -0.5362 -0.1810  0.2390
18985TIP3    H178446   1.780   2.005  12.966 -0.3967 -0.3111 -1.8335
18985TIP3    H278447   1.780   1.893  13.068 -1.0425  1.8718  0.6781
18986TIP3   OH278448   2.926   6.302  15.365  0.1331  0.4266 -0.1207
18986TIP3    H178449   2.857   6.240  15.344 -1.6701  1.8985  1.1641
18986TIP3    H278450   2.947   6.344  15.282  1.6006 -1.9818 -1.0841
18987TIP3   OH278451   4.179   1.443   1.044  0.1863  1.1329  0.7087
18987TIP3    H178452   4.228   1.372   1.086  1.1836  1.6457  0.4324
18987TIP3    H278453   4.245   1.509   1.023 -0.4937  1.4922 -0.4089
18988TIP3   OH278454   4.141   1.070   5.200 -0.6148 -0.5570  0.5701
18988TIP3    H178455   4.131   0.975   5.189 -0.3986 -0.5138 -0.0607
18988TIP3    H278456   4.207   1.080   5.268 -0.2476 -0.8666  0.2661
18989TIP3   OH278457   3.908   3.436   1.711 -0.6550  0.3547 -0.4941
18989TIP3    H178458   3.904   3.503   1.780 -0.3494  1.0382 -1.1294
18989TIP3    H278459   3.931   3.484   1.632 -0.8046 -0.4538 -1.0421
18990TIP3   OH278460   1.187   6.152   3.472 -0.0591  0.4425  0.0865
18990TIP3    H178461   1.195   6.194   3.387 -0.7179 -4.0065 -2.5309
18990TIP3    H278462   1.103   6.106   3.468  1.3530 -2.6051  1.6847
18991TIP3   OH278463   5.061   3.659  14.188 -0.6087  0.0667 -0.2081
18991TIP3    H178464   5.120   3.630  14.118 -1.3769  0.4153 -1.0200
18991TIP3    H278465   5.096   3.744  14.215  0.9348 -0.9813  1.3373
18992TIP3   OH278466   5.268   4.340  15.668 -0.0353  0.1113  0.9397
18992TIP3    H178467   5.283   4.339  15.762 -1.8786  0.7088  1.2730
18992TIP3    H278468   5.184   4.295  15.656 -0.0973  0.5310 -0.3504
18993TIP3   OH278469   3.105   0.310  13.062  0.2049 -0.5232 -0.0182
18993TIP3    H178470   3.142   0.378  13.119  1.8309 -1.5027  0.1512
18993TIP3    H278471   3.035   0.271  13.115 -0.7551  0.9767 -0.1171
18994TIP3   OH278472   5.293   4.354   1.511  0.6428 -0.0145 -0.9875
18994TIP3    H178473   5.207   4.389   1.535  1.0010 -1.1678  2.4167
18994TIP3    H278474   5.283   4.259   1.516  2.6803 -0.1935  2.2341
18995TIP3   OH278475   3.530   1.798   4.687  0.0970 -0.3851  0.0885
18995TIP3    H178476   3.490   1.736   4.748 -0.1492 -0.9411 -0.6080
18995TIP3    H278477   3.592   1.848   4.740  2.6668 -3.3247  0.1629
18996TIP3   OH278478   3.471   0.125  15.065 -0.0956 -0.1608  1.0016
18996TIP3    H178479   3.474   0.161  15.153  0.8997  1.7397  0.2618
18996TIP3    H278480   3.557   0.085  15.052  0.7148  1.6858  0.1496
18997TIP3   OH278481   2.063   0.729  10.910 -0.1200  0.0233 -0.0693
18997TIP3    H178482   2.106   0.643  10.911  0.8647  0.4603 -1.2989
18997TIP3    H278483   2.102   0.773  10.835 -1.5955  1.0621 -0.2544
18998TIP3   OH278484   2.794   5.059  16.850  0.2505 -0.0040  0.2213
18998TIP3    H178485   2.859   5.071  16.781  0.5344 -0.0666  0.4770
18998TIP3    H278486   2.827   4.985  16.902 -0.9225 -1.2481 -0.7170
18999TIP3   OH278487   2.072   3.065   4.980  0.3795 -0.4411 -0.1771
18999TIP3    H178488   2.029   3.045   4.897 -0.6627 -0.2574  0.2973
18999TIP3    H278489   2.105   2.981   5.011  1.0752 -0.4564 -0.9289
19000TIP3   OH278490   1.040   1.200   2.113  0.3288  0.0418 -0.0656
19000TIP3    H178491   1.052   1.152   2.031  0.0109 -1.2971  0.6395
19000TIP3    H278492   1.126   1.236   2.133  0.4755  0.1326 -0.8240
19001TIP3   OH278493   0.108   6.696   5.371 -0.4263  0.2540  0.2858
19001TIP3    H178494   0.189   6.652   5.347 -0.3818 -0.4703  1.6564
19001TIP3    H278495   0.129   6.789   5.369  0.1299  0.1244 -0.3830
19002TIP3   OH278496   3.419   5.504   4.497  0.1167 -0.3660 -0.2265
19002TIP3    H178497   3.346   5.565   4.491 -0.1499 -0.7911 -1.4676
19002TIP3    H278498   3.490   5.556   4.534 -0.5288  0.3021  0.0997
19003TIP3   OH278499   5.795   3.832   1.210 -0.0229 -0.3063 -0.2782
19003TIP3    H178500   5.837   3.918   1.212  0.5216 -0.4824 -2.0358
19003TIP3    H278501   5.711   3.848   1.167 -1.0164 -0.2583  1.6231
19004TIP3   OH278502   1.107   0.252  16.064  0.1964 -0.1299 -0.0635
19004TIP3    H178503   1.168   0.293  16.126  0.4942 -1.0041  0.2299
19004TIP3    H278504   1.049   0.199  16.119  0.3646 -0.7885 -0.5169
19005TIP3   OH278505   4.661   6.024  12.129 -0.2818 -0.4517 -0.6874
19005TIP3    H178506   4.673   6.118  12.144 -0.6434 -0.7221  1.5562
19005TIP3    H278507   4.589   5.999  12.187 -0.1531 -2.1477 -1.1999
19006TIP3   OH278508   3.872   2.976   4.413 -0.7044  0.2502 -0.2319
19006TIP3    H178509   3.800   2.998   4.354 -1.8604 -1.6208  0.3547
19006TIP3    H278510   3.938   2.935   4.358 -1.2445 -0.3735 -0.4321
19007TIP3   OH278511   0.663   1.873   6.149 -0.0133  0.5279 -0.2785
19007TIP3    H178512   0.644   1.799   6.207  1.3866 -1.3379 -2.0508
19007TIP3    H278513   0.627   1.949   6.195  0.1471 -0.9515  2.5392
19008TIP3   OH278514   0.167   5.348  12.181 -0.0496  0.1627 -0.0707
19008TIP3    H178515   0.098   5.414  12.178 -0.4039 -0.1273  1.1553
19008TIP3    H278516   0.160   5.301  12.098 -0.5803  0.8736 -0.4345
19009TIP3   OH278517   2.213   6.564   2.916 -0.5275 -0.0157 -0.4176
19009TIP3    H178518   2.277   6.527   2.855  0.3110 -0.0651  0.4750
19009TIP3    H278519   2.208   6.501   2.988 -2.2526 -0.4473 -0.8745
19010TIP3   OH278520   6.820   1.126   5.989 -0.7381  0.2404 -0.0782
19010TIP3    H178521   6.760   1.140   5.916  0.3639  1.9576 -0.7275
19010TIP3    H278522   6.772   1.069   6.049 -1.1736 -2.3844 -2.6945
19011TIP3   OH278523   0.072   6.587   0.970  0.5317  0.3967  0.3177
19011TIP3    H178524  -0.021   6.565   0.959  0.7329 -0.1350 -0.4569
19011TIP3    H278525   0.076   6.636   1.052 -0.4635  0.6118  0.2506
19012TIP3   OH278526   4.982   4.403  15.421  0.4961 -0.1547  0.0950
19012TIP3    H178527   4.890   4.395  15.393  0.2396  1.4225  0.3572
19012TIP3    H278528   4.980   4.385  15.515  0.1043  1.6815  0.4776
19013TIP3   OH278529   5.043   4.874   4.462 -0.6682 -0.3504 -0.4665
19013TIP3    H178530   5.094   4.933   4.407 -0.5628 -1.2597 -1.3909
19013TIP3    H278531   4.957   4.916   4.467 -0.1195  0.7238  0.3311
19014TIP3   OH278532   0.610   5.491  13.646  0.2843 -0.0995  0.0167
19014TIP3    H178533   0.550   5.417  13.658 -1.4611  1.2147 -0.1859
19014TIP3    H278534   0.613   5.504  13.551  0.2782  0.3231  0.0745
19015TIP3   OH278535   4.457   5.324  14.358  0.3754  0.0934 -0.4931
19015TIP3    H178536   4.390   5.371  14.407  0.1008  0.3461 -1.0930
19015TIP3    H278537   4.540   5.358  14.390  0.2067  0.0782 -0.0395
19016TIP3   OH278538   5.496   2.718   0.902  0.0863  0.9005  0.6790
19016TIP3    H178539   5.525   2.751   0.817  3.2943  0.0187  1.3196
19016TIP3    H278540   5.512   2.790   0.963  0.1587  0.6636  0.9387
19017TIP3   OH278541   6.437   5.269  13.441 -0.1416  0.1082 -0.1716
19017TIP3    H178542   6.514   5.315  13.475  1.6494 -2.7513  0.0627
19017TIP3    H278543   6.437   5.287  13.347 -0.6920  2.0765  0.1656
19018TIP3   OH278544   3.967   4.286  13.464 -0.1862 -0.1923 -0.5403
19018TIP3    H178545   3.940   4.248  13.380  0.8073  1.3375 -1.5953
19018TIP3    H278546   4.018   4.363  13.440  1.5009 -0.6181  1.4605
19019TIP3   OH278547   6.099   4.036  14.631  0.5538  0.2313  0.2419
19019TIP3    H178548   6.006   4.054  14.617 -0.2205 -2.1114  1.8594
19019TIP3    H278549   6.130   4.111  14.682 -0.5525  0.8020  0.1082
19020TIP3   OH278550   1.579   4.172   3.214  0.0292 -0.0007 -0.2103
19020TIP3    H178551   1.589   4.133   3.300 -1.1923  0.9351  0.3891
19020TIP3    H278552   1.593   4.100   3.152  0.4265 -0.7798  0.7716
19021TIP3   OH278553   5.145   0.620  15.425 -0.4050  0.5035 -0.0481
19021TIP3    H178554   5.162   0.702  15.471 -0.2794  1.1808 -1.2531
19021TIP3    H278555   5.150   0.643  15.332 -2.8511 -0.3328 -0.4659
19022TIP3   OH278556   3.451   5.606  10.651  0.8411 -0.4938  0.7247
19022TIP3    H178557   3.424   5.534  10.594  2.2063 -0.5749  0.1234
19022TIP3    H278558   3.547   5.603  10.649  1.0885  2.8801 -1.3792
19023TIP3   OH278559   3.517   0.900   5.497 -0.2952  0.0342  0.3031
19023TIP3    H178560   3.470   0.982   5.486 -0.7091 -0.2668 -0.1884
19023TIP3    H278561   3.507   0.879   5.590 -2.1882 -0.6524 -0.0124
19024TIP3   OH278562   1.288   3.593  14.124  0.3306  0.3802 -0.0668
19024TIP3    H178563   1.358   3.550  14.074  1.0370  1.2478  0.1487
19024TIP3    H278564   1.215   3.532  14.120  0.7495 -0.0771 -1.1976
19025TIP3   OH278565   6.463   3.817  11.509 -0.5399  0.0763 -0.8530
19025TIP3    H178566   6.549   3.830  11.470 -0.6495  0.1301 -1.0759
19025TIP3    H278567   6.448   3.723  11.503  0.8481 -0.4494  1.9904
19026TIP3   OH278568   5.223   0.412   2.488 -0.2673  0.1447  0.5324
19026TIP3    H178569   5.221   0.357   2.409  1.5325 -0.6197  0.9650
19026TIP3    H278570   5.165   0.485   2.468 -0.0129 -0.1347 -1.4278
19027TIP3   OH278571   2.138   5.945   5.639  0.0421 -0.1199 -0.0183
19027TIP3    H178572   2.074   5.977   5.703  0.6486 -0.2306  0.6622
19027TIP3    H278573   2.085   5.907   5.569 -0.7668  3.3968 -1.4875
19028TIP3   OH278574   6.303   2.441   2.090  0.2515 -0.5741 -0.2585
19028TIP3    H178575   6.388   2.416   2.054 -0.4800 -0.8376 -1.9236
19028TIP3    H278576   6.240   2.402   2.030 -1.0508 -0.1418  0.7801
19029TIP3   OH278577   3.193   5.509  14.823  0.1267 -0.0095 -0.0903
19029TIP3    H178578   3.115   5.527  14.877 -1.6852 -1.4978 -2.0536
19029TIP3    H278579   3.265   5.547  14.873 -2.1685  4.4552  0.3601
19030TIP3   OH278580   6.418   3.958  12.399 -0.0668 -0.1514 -0.2539
19030TIP3    H178581   6.483   4.011  12.352  0.6853 -0.6023  0.2538
19030TIP3    H278582   6.467   3.880  12.427 -0.7423 -0.3331  0.4474
19031TIP3   OH278583   3.185   4.189   2.163 -0.1026  0.1556  0.0141
19031TIP3    H178584   3.103   4.202   2.117 -0.2994 -0.0299  0.3086
19031TIP3    H278585   3.197   4.094   2.165 -0.7340  0.0811  1.4315
19032TIP3   OH278586   3.364   0.228  11.070  0.1940  0.0870  0.5564
19032TIP3    H178587   3.334   0.158  11.012  1.6329  0.5714 -0.8329
19032TIP3    H278588   3.300   0.298  11.056  0.2995  0.0515 -0.1316
19033TIP3   OH278589   4.960   3.048  10.712 -0.5990  0.0840  0.3866
19033TIP3    H178590   4.954   3.044  10.616  0.3550 -1.7202  0.3524
19033TIP3    H278591   5.054   3.047  10.731 -0.7813 -0.8924  1.3513
19034TIP3   OH278592   3.267   1.286  14.149 -0.7239  0.3946 -0.4419
19034TIP3    H178593   3.335   1.302  14.215 -1.0717  0.9919 -0.2168
19034TIP3    H278594   3.188   1.325  14.187 -1.1496 -0.1202 -0.7887
19035TIP3   OH278595   6.447   5.005   4.294 -0.1698 -0.0939 -0.1886
19035TIP3    H178596   6.478   5.033   4.381 -2.4743 -0.3580  0.7829
19035TIP3    H278597   6.352   5.007   4.301 -0.4515 -2.9602 -1.7905
19036TIP3   OH278598   5.608   2.168   3.492  0.8184 -0.2847  0.0124
19036TIP3    H178599   5.550   2.236   3.457  2.1049  0.3315 -1.0574
19036TIP3    H278600   5.568   2.142   3.574 -1.1697 -0.1899 -0.8654
19037TIP3   OH278601   5.320   3.169   4.063  0.3832 -0.9495  0.1968
19037TIP3    H178602   5.412   3.143   4.067  0.2165 -1.7384 -0.6429
19037TIP3    H278603   5.291   3.172   4.154  2.3894  3.8374  0.9306
19038TIP3   OH278604   1.871   3.159   2.853 -0.1133  0.1369 -0.0481
19038TIP3    H178605   1.777   3.179   2.856 -0.2489 -0.5896  1.0799
19038TIP3    H278606   1.881   3.101   2.778 -0.7509 -0.6604  0.4714
19039TIP3   OH278607   5.440   5.237  11.612 -0.1692 -0.1958 -0.4800
19039TIP3    H178608   5.392   5.225  11.530 -0.5442 -0.0950 -0.2802
19039TIP3    H278609   5.462   5.148  11.641  0.1591 -0.2197 -0.8028
19040TIP3   OH278610   6.191   4.388  13.647 -0.1311 -0.4043  0.1848
19040TIP3    H178611   6.258   4.319  13.649  0.4445  0.0589 -1.2371
19040TIP3    H278612   6.112   4.346  13.681  0.0591 -1.9626 -1.1537
19041TIP3   OH278613   4.953   4.456  16.462  0.0797 -0.1655 -0.7449
19041TIP3    H178614   5.041   4.430  16.491 -0.1540  0.5840  0.7180
19041TIP3    H278615   4.894   4.402  16.514 -0.3473  0.5877 -0.4386
19042TIP3   OH278616   4.611   4.600  16.113 -0.0420  0.2305  0.2350
19042TIP3    H178617   4.704   4.618  16.124  0.3513 -1.7812  0.6520
19042TIP3    H278618   4.590   4.541  16.186 -1.5325  0.2764 -0.1342
19043TIP3   OH278619   0.799   0.790   0.925 -0.2567 -0.1566 -0.0035
19043TIP3    H178620   0.863   0.846   0.969 -0.1427  1.1529 -1.7349
19043TIP3    H278621   0.852   0.726   0.876 -0.3856 -1.9539  2.0536
19044TIP3   OH278622   6.191   4.776   5.660 -0.0787  0.1525  0.5445
19044TIP3    H178623   6.107   4.811   5.628 -0.5484 -0.3077  1.2472
19044TIP3    H278624   6.250   4.851   5.659 -0.4720  0.4686 -0.0285
19045TIP3   OH278625   3.398   5.364  16.371  0.3880  0.2500 -0.0096
19045TIP3    H178626   3.471   5.405  16.326 -2.0180  1.0617 -3.5965
19045TIP3    H278627   3.359   5.306  16.306 -1.9291 -0.4945  1.8739
19046TIP3   OH278628   0.753   1.772   3.021  0.2840 -0.3734 -0.5754
19046TIP3    H178629   0.807   1.851   3.027  0.5873 -0.3012 -3.2171
19046TIP3    H278630   0.810   1.708   2.979 -0.3604 -1.6349  0.4189
19047TIP3   OH278631   6.142   1.357   5.814  0.8711 -0.2909  0.7421
19047TIP3    H178632   6.076   1.427   5.802  1.4254 -0.1766 -2.9095
19047TIP3    H278633   6.096   1.289   5.863 -1.4312  0.5330 -0.1144
19048TIP3   OH278634   6.436   2.379   3.097 -0.4936  0.2902  0.5707
19048TIP3    H178635   6.435   2.464   3.140  0.4845 -0.1912  1.5959
19048TIP3    H278636   6.344   2.363   3.075 -0.6755  1.6564  0.2232
19049TIP3   OH278637   4.654   4.558   0.734  0.2389 -0.6085  0.1814
19049TIP3    H178638   4.730   4.541   0.678  0.7512 -1.1756  1.0426
19049TIP3    H278639   4.691   4.570   0.821 -0.6937 -1.2402  0.6693
19050TIP3   OH278640   5.346   0.296   2.257  0.6374  0.5370 -0.2992
19050TIP3    H178641   5.291   0.271   2.183  0.4668 -1.6969  0.5077
19050TIP3    H278642   5.429   0.252   2.241  0.2353 -0.9301  1.3339
19051TIP3   OH278643   2.823   4.747  12.074  0.5637 -0.4090 -0.4088
19051TIP3    H178644   2.796   4.818  12.016  1.7059  1.0267  0.7264
19051TIP3    H278645   2.853   4.678  12.015  0.4020  0.4549 -1.5365
19052TIP3   OH278646   3.252   2.254   4.745 -0.1819 -0.1690  0.2002
19052TIP3    H178647   3.226   2.164   4.723 -0.1775 -0.2193  0.4001
19052TIP3    H278648   3.328   2.271   4.688 -0.8037  0.0738 -0.5703
19053TIP3   OH278649   2.506   5.089  15.830  0.2628  0.1713  0.1686
19053TIP3    H178650   2.425   5.136  15.809 -0.5090 -0.1688  2.1531
19053TIP3    H278651   2.478   5.020  15.890  1.6683 -1.6152 -1.1214
19054TIP3   OH278652   2.704   3.228   0.527  0.0896  0.6436 -0.2174
19054TIP3    H178653   2.703   3.168   0.453  0.5102 -2.4017  2.0673
19054TIP3    H278654   2.797   3.248   0.541  0.0619  0.7227 -0.1418
19055TIP3   OH278655   3.782   3.532   4.847 -0.2072 -0.4137 -0.5239
19055TIP3    H178656   3.809   3.598   4.784  0.8844  1.0511  1.3838
19055TIP3    H278657   3.864   3.490   4.874 -0.6185 -0.8063  0.1376
19056TIP3   OH278658   4.996   5.987   0.731 -0.2126 -0.1618 -0.0144
19056TIP3    H178659   5.082   5.963   0.698  0.2500 -1.1979  1.8275
19056TIP3    H278660   4.957   5.905   0.760 -0.3519  0.6616  2.4372
19057TIP3   OH278661   3.617   0.868  15.680  0.2585 -0.3712  0.2696
19057TIP3    H178662   3.610   0.961  15.659 -1.6048 -0.4317  0.4867
19057TIP3    H278663   3.653   0.828  15.600  1.1668  0.5150  0.2083
19058TIP3   OH278664   5.686   5.054   0.994 -0.5669  0.0456 -0.1963
19058TIP3    H178665   5.717   5.023   0.909 -1.2964 -2.0283  0.2356
19058TIP3    H278666   5.593   5.072   0.981 -1.0748 -1.8655  0.5124
19059TIP3   OH278667   3.276   4.287  12.625 -0.3783  0.3016 -0.0537
19059TIP3    H178668   3.304   4.290  12.534 -2.5835 -0.3707 -0.8215
19059TIP3    H278669   3.194   4.336  12.627 -1.7001 -1.8254  1.0022
19060TIP3   OH278670   1.676   1.812   2.280  0.0525  0.3442  0.2409
19060TIP3    H178671   1.733   1.885   2.305  1.3031 -0.1660 -0.9729
19060TIP3    H278672   1.705   1.788   2.192 -1.1017 -0.8772  0.1571
19061TIP3   OH278673   3.295   6.102  12.719 -0.2558 -0.1706 -0.2294
19061TIP3    H178674   3.323   6.156  12.793  0.7605 -1.4886  0.4136
19061TIP3    H278675   3.352   6.128  12.647  0.0962 -0.2432  0.0205
19062TIP3   OH278676   6.103   6.656   2.293 -0.2889  0.1467 -0.3256
19062TIP3    H178677   6.047   6.712   2.347  0.3719  1.0158 -0.5063
19062TIP3    H278678   6.184   6.648   2.342 -0.2077 -0.2650 -0.5228
19063TIP3   OH278679   6.170   0.620  13.565  0.0122 -0.6467 -0.1824
19063TIP3    H178680   6.215   0.705  13.568 -0.9402 -0.1484  1.4123
19063TIP3    H278681   6.104   0.631  13.496  1.2870 -0.8699 -1.4817
19064TIP3   OH278682   0.462   0.822  11.347 -0.0641  0.2117  0.2286
19064TIP3    H178683   0.455   0.727  11.359 -1.3705  0.2479 -0.0304
19064TIP3    H278684   0.541   0.847  11.394  0.5478 -1.0698 -0.0942
19065TIP3   OH278685   5.401   3.896  12.191  0.1046  0.2117 -0.3831
19065TIP3    H178686   5.446   3.976  12.217 -0.3529  0.0077  1.1227
19065TIP3    H278687   5.462   3.852  12.132  0.2959  1.7238 -1.3789
19066TIP3   OH278688   2.446   2.780   0.002  0.2661 -0.5624  0.6043
19066TIP3    H178689   2.528   2.737   0.027 -0.0036 -1.2648  0.2964
19066TIP3    H278690   2.407   2.807   0.086  0.6624 -0.4878  0.7683
19067TIP3   OH278691   2.368   5.956   3.086 -0.0446  0.0016 -0.4176
19067TIP3    H178692   2.290   6.005   3.110  0.0862  0.3346 -0.6734
19067TIP3    H278693   2.340   5.899   3.014 -0.3536 -0.7582  0.2860
19068TIP3   OH278694   3.904   1.604  16.354  0.8562  0.2563  0.7123
19068TIP3    H178695   3.840   1.666  16.390  0.1048 -0.5197  0.7430
19068TIP3    H278696   3.884   1.521  16.398 -0.0164 -0.7024 -1.3925
19069TIP3   OH278697   6.493   2.724   0.819  0.3849  1.0649  0.3860
19069TIP3    H178698   6.518   2.633   0.831 -0.7719  0.7109  0.2637
19069TIP3    H278699   6.398   2.721   0.805  0.6526  1.9937 -2.3512
19070TIP3   OH278700   6.561   1.073  16.860  0.6479 -0.0269  0.4568
19070TIP3    H178701   6.647   1.034  16.843  0.3159 -0.6017  0.0778
19070TIP3    H278702   6.540   1.120  16.780  1.4898  1.8041  1.2642
19071TIP3   OH278703   1.091   1.608   2.644 -0.1932 -0.0430 -0.0630
19071TIP3    H178704   1.099   1.514   2.659 -1.7136 -0.1440  0.2170
19071TIP3    H278705   0.997   1.623   2.633  0.0497  1.4111 -0.3450
19072TIP3   OH278706   4.249   4.030   3.196  0.6030  0.0879 -0.0207
19072TIP3    H178707   4.335   4.049   3.235 -0.8284  3.1777  2.0822
19072TIP3    H278708   4.227   3.943   3.228  2.6852 -0.5287 -0.1406
19073TIP3   OH278709   2.184   6.527  15.186 -0.5441 -0.7415  0.1372
19073TIP3    H178710   2.112   6.566  15.137 -0.8277 -0.6526  0.6183
19073TIP3    H278711   2.182   6.571  15.271  1.3756  0.7534 -0.5233
19074TIP3   OH278712   6.783   4.704   5.005 -0.1739 -0.2831  0.4456
19074TIP3    H178713   6.707   4.755   4.976 -0.7810 -2.5044 -2.3561
19074TIP3    H278714   6.749   4.647   5.075  0.1464  1.8653  2.4796
19075TIP3   OH278715   5.848   6.083  14.153  0.2445 -0.0903 -0.0103
19075TIP3    H178716   5.900   6.055  14.229  0.0205 -1.6999 -0.4107
19075TIP3    H278717   5.888   6.166  14.126 -0.6672  1.3877  2.8095
19076TIP3   OH278718   4.053   2.209  14.984 -0.0206  0.0422 -0.2371
19076TIP3    H178719   4.101   2.130  14.959 -0.3960 -0.1112 -0.4830
19076TIP3    H278720   4.020   2.244  14.902 -0.5776 -0.0167 -0.0459
19077TIP3   OH278721   0.582   5.072  11.453 -0.4479 -0.4899  0.2609
19077TIP3    H178722   0.610   5.133  11.385  0.4060  0.1962  1.2035
19077TIP3    H278723   0.518   5.121  11.504  1.1568  0.1219  1.7876
19078TIP3   OH278724   2.951   4.943   2.005  0.5582  0.1004 -0.9103
19078TIP3    H178725   3.010   4.992   2.062  1.1310  0.1808 -1.5575
19078TIP3    H278726   3.008   4.882   1.958 -0.0116 -0.5034 -0.8341
19079TIP3   OH278727   6.668   2.341  11.541 -0.0635 -0.3127 -0.6614
19079TIP3    H178728   6.654   2.249  11.518  0.1408 -0.3161 -0.7709
19079TIP3    H278729   6.763   2.349  11.550  0.0697  0.2829 -2.2834
19080TIP3   OH278730   5.346   5.003  15.475 -0.4405  0.6076  0.1743
19080TIP3    H178731   5.419   4.956  15.514  0.9402  1.9952 -0.6107
19080TIP3    H278732   5.271   4.982  15.531  0.1320 -2.2136  0.0387
19081TIP3   OH278733   5.282   4.212   2.965  0.4893  0.0500 -0.1301
19081TIP3    H178734   5.313   4.124   2.944 -1.2043 -0.3657 -1.0542
19081TIP3    H278735   5.301   4.223   3.058  1.5973 -0.8970 -0.2244
19082TIP3   OH278736   2.567   4.165  14.436 -0.1383  0.2401  0.0882
19082TIP3    H178737   2.523   4.174  14.520 -1.2343  1.7309 -0.6116
19082TIP3    H278738   2.656   4.135  14.459 -0.1421  1.4404  1.8341
19083TIP3   OH278739   1.206   5.345   1.813 -0.1963  0.6586 -0.3645
19083TIP3    H178740   1.168   5.293   1.884 -2.7292  0.7322 -1.5423
19083TIP3    H278741   1.171   5.306   1.733  1.2409  1.5953 -1.5129
19084TIP3   OH278742   2.006   5.912  11.487  0.0764  0.3568  0.5666
19084TIP3    H178743   2.098   5.917  11.512 -0.0407  1.3048  0.8578
19084TIP3    H278744   1.977   6.003  11.482 -0.8469  0.0753  0.4710
19085TIP3   OH278745   4.879   4.618  16.050 -0.1037 -0.6379  0.3563
19085TIP3    H178746   4.971   4.625  16.027  0.1919  0.9853  1.8823
19085TIP3    H278747   4.838   4.582  15.971  1.5582  0.2175 -0.9653
19086TIP3   OH278748   6.720   3.544   5.497 -0.5537  0.2120  0.2491
19086TIP3    H178749   6.656   3.511   5.434  1.0897 -0.4543 -1.1357
19086TIP3    H278750   6.759   3.620   5.454  2.4431 -1.7576 -0.8085
19087TIP3   OH278751   6.249   0.711   0.444 -0.4438 -0.0709  0.1147
19087TIP3    H178752   6.298   0.646   0.394  0.1773 -0.0142  0.6314
19087TIP3    H278753   6.316   0.755   0.497 -1.1559 -0.5918  1.4929
19088TIP3   OH278754   4.328   4.056  11.222 -0.2475  0.1977 -0.2781
19088TIP3    H178755   4.339   4.039  11.128 -1.1379  0.8269 -0.4996
19088TIP3    H278756   4.343   4.150  11.232 -0.1396  0.1326  0.2250
19089TIP3   OH278757   6.290   6.284  12.953  0.0722  0.8731  0.3497
19089TIP3    H178758   6.371   6.234  12.956 -0.4666  0.0163  2.1829
19089TIP3    H278759   6.237   6.239  12.887 -0.2061 -0.7732  1.5973
19090TIP3   OH278760   6.159   0.615  11.327 -0.5210  0.1940  0.0715
19090TIP3    H178761   6.162   0.664  11.245 -0.2601 -0.1300 -0.1161
19090TIP3    H278762   6.177   0.525  11.301 -1.6107 -0.1148  0.3247
19091TIP3   OH278763   5.454   3.136   2.819 -0.5152  0.5105 -0.2391
19091TIP3    H178764   5.427   3.099   2.903  2.3591  1.1506  1.0736
19091TIP3    H278765   5.454   3.061   2.759  1.0519 -0.7890  1.2983
19092TIP3   OH278766   6.443   6.348   5.481  0.5553  0.6756 -0.0456
19092TIP3    H178767   6.395   6.266   5.492 -0.5902  0.8010 -3.2071
19092TIP3    H278768   6.458   6.379   5.570 -0.7946 -1.9079  1.1850
19093TIP3   OH278769   6.014   5.676  15.453  0.3229 -0.2993  0.0427
19093TIP3    H178770   6.096   5.696  15.499  0.6079 -1.7982  0.2288
19093TIP3    H278771   6.039   5.676  15.360  0.5037 -0.5562  0.0876
19094TIP3   OH278772   1.660   5.895  14.991 -0.0610 -0.4790 -0.0570
19094TIP3    H178773   1.720   5.844  15.046 -0.7334 -1.2047  0.0098
19094TIP3    H278774   1.574   5.857  15.006 -0.4482  0.1160 -0.6769
19095TIP3   OH278775   6.248   5.420  15.226  0.4128  0.0471 -0.3594
19095TIP3    H178776   6.212   5.369  15.298  1.0127 -0.9546 -0.7498
19095TIP3    H278777   6.342   5.403  15.228  0.5908  0.9066 -0.6877
19096TIP3   OH278778   0.634   5.702  14.356 -0.3488 -0.0372 -0.1329
19096TIP3    H178779   0.689   5.780  14.343 -1.1613  0.2843 -1.8900
19096TIP3    H278780   0.588   5.691  14.273 -0.8109 -1.9792  0.3296
19097TIP3   OH278781   3.574   0.298   0.256  0.3854  0.4476 -0.1882
19097TIP3    H178782   3.586   0.205   0.275  1.5327  0.7116  0.4832
19097TIP3    H278783   3.534   0.334   0.336  1.9543  0.9029  0.4452
19098TIP3   OH278784   6.404   1.865   0.269  0.0384  1.1251  0.5788
19098TIP3    H178785   6.342   1.892   0.201 -2.3872 -0.3575  2.0850
19098TIP3    H278786   6.460   1.800   0.225 -0.4361  1.3630 -0.4208
19099TIP3   OH278787   2.391   3.967  14.791 -0.4489 -0.0944 -0.3591
19099TIP3    H178788   2.403   3.916  14.711 -0.6330 -0.7333  0.0115
19099TIP3    H278789   2.428   3.911  14.860 -0.0046  0.5840 -0.0365
19100TIP3   OH278790   2.370   3.290  16.121  0.3584  0.1030  0.1994
19100TIP3    H178791   2.340   3.354  16.056 -1.6684  0.2833  1.2313
19100TIP3    H278792   2.463   3.278  16.101  0.1590  1.2862 -1.7502
19101TIP3   OH278793   0.992   4.921  14.571 -0.4300  0.0530  0.0190
19101TIP3    H178794   1.083   4.924  14.541  0.5066 -0.2250  2.5390
19101TIP3    H278795   0.962   4.833  14.551  1.3365 -1.3134  2.7597
19102TIP3   OH278796   1.439   6.574   4.113  0.2787  0.0900  0.0234
19102TIP3    H178797   1.418   6.487   4.148  2.2052 -0.2441  0.4689
19102TIP3    H278798   1.427   6.634   4.186 -1.0059  0.2228 -0.2714
19103TIP3   OH278799   0.510   3.385  12.893 -0.1620 -0.1922 -0.3776
19103TIP3    H178800   0.486   3.460  12.948  0.5473  0.8526 -1.4353
19103TIP3    H278801   0.605   3.379  12.901 -0.3247 -1.7789  0.6574
19104TIP3   OH278802   5.190   4.106   1.979  0.8548 -0.1242  0.1371
19104TIP3    H178803   5.285   4.102   1.971  0.8764 -0.4730  0.5383
19104TIP3    H278804   5.161   4.016   1.969  0.6491 -0.1577  0.9305
19105TIP3   OH278805   5.028   4.670  14.832  0.2223  0.1860 -0.4341
19105TIP3    H178806   4.971   4.612  14.781  0.7939  0.5185 -1.4846
19105TIP3    H278807   5.022   4.637  14.922 -0.1805 -0.9221 -0.8536
19106TIP3   OH278808   6.483   2.601  11.309 -0.5011 -0.0275  0.1191
19106TIP3    H178809   6.569   2.605  11.350 -1.7988 -0.7611  3.2265
19106TIP3    H278810   6.462   2.507  11.305 -2.2179  0.1836  2.1240
19107TIP3   OH278811   0.341   0.961  12.880 -0.2152 -0.3481 -0.2852
19107TIP3    H178812   0.257   0.974  12.923  0.2003  0.4736  0.3137
19107TIP3    H278813   0.336   1.013  12.800 -0.2364 -0.2153 -0.1973
19108TIP3   OH278814   4.276   3.199  13.172  0.5162  0.6477 -0.4785
19108TIP3    H178815   4.275   3.158  13.086  0.3711  0.9998 -0.6466
19108TIP3    H278816   4.283   3.126  13.233  1.3151  0.4379 -0.8135
19109TIP3   OH278817   5.243   0.555  14.122 -0.6965  0.7905  0.3342
19109TIP3    H178818   5.169   0.586  14.070 -0.1057  1.0536 -0.3654
19109TIP3    H278819   5.211   0.555  14.212 -1.1209  2.1721  0.2014
19110TIP3   OH278820   4.987   2.340  15.034 -0.6365 -0.9811 -0.0801
19110TIP3    H178821   4.931   2.412  15.006 -0.5570 -1.0372 -0.3792
19110TIP3    H278822   5.007   2.360  15.126 -0.4488 -0.5100 -0.2200
19111TIP3   OH278823   3.007   6.811   4.687  0.3247 -0.0835  0.6366
19111TIP3    H178824   2.986   6.892   4.642  3.4413  0.3243 -0.3365
19111TIP3    H278825   2.983   6.742   4.625 -1.4655  0.0787  1.0963
19112TIP3   OH278826   6.532   6.448  13.658 -0.0806  0.1331  0.4536
19112TIP3    H178827   6.510   6.537  13.631 -0.5669 -0.2036 -0.2696
19112TIP3    H278828   6.554   6.456  13.751 -1.9096  0.7231  0.8778
19113TIP3   OH278829   3.333   3.136   6.077  0.4790  0.1844 -0.1552
19113TIP3    H178830   3.263   3.151   6.013  0.7521  1.7037 -0.1455
19113TIP3    H278831   3.345   3.041   6.078 -1.6994 -0.1511 -0.0215
19114TIP3   OH278832   6.338   1.715   1.580 -0.5144 -0.2231  0.0730
19114TIP3    H178833   6.273   1.646   1.566 -0.1182 -0.5103 -0.3736
19114TIP3    H278834   6.340   1.763   1.498 -0.6408  0.2036  0.3151
19115TIP3   OH278835   0.967   4.338   5.729 -0.6426  0.2513 -0.3548
19115TIP3    H178836   0.965   4.277   5.655 -0.2126  1.2311 -1.2084
19115TIP3    H278837   0.877   4.367   5.738 -1.2365 -1.8397  1.2571
19116TIP3   OH278838   0.459   2.604   2.014  0.5935  0.1639  0.1986
19116TIP3    H178839   0.404   2.587   1.938  0.6172 -1.7035  0.5553
19116TIP3    H278840   0.419   2.555   2.085  1.1499  1.0475  1.1536
19117TIP3   OH278841   6.373   3.836  12.767 -0.1747  0.4306 -0.3126
19117TIP3    H178842   6.307   3.897  12.801 -0.6878  1.0255 -2.2781
19117TIP3    H278843   6.331   3.794  12.692  0.8410 -0.9878 -0.1183
19118TIP3   OH278844   0.319   2.435  13.331 -0.1245  0.2749 -0.8270
19118TIP3    H178845   0.369   2.371  13.281 -0.1353  0.3810 -0.9727
19118TIP3    H278846   0.372   2.515  13.329  0.3171  0.0166  0.1124
19119TIP3   OH278847   5.749   1.439  13.435  0.1195  0.5075  0.4467
19119TIP3    H178848   5.705   1.355  13.447 -1.6252  1.0389 -1.6151
19119TIP3    H278849   5.704   1.499  13.495 -0.1904  0.4630  0.2589
19120TIP3   OH278850   6.148   0.752   1.417 -0.3038 -0.3293 -0.4415
19120TIP3    H178851   6.231   0.705   1.429 -0.5310 -1.1189 -1.7950
19120TIP3    H278852   6.162   0.837   1.460  0.5098 -1.1799  1.0647
19121TIP3   OH278853   2.286   3.768   1.280 -0.3139  0.0074 -0.1495
19121TIP3    H178854   2.202   3.753   1.325 -0.3642 -0.2732 -0.3346
19121TIP3    H278855   2.289   3.863   1.267 -0.8524 -0.0317 -0.6176
19122TIP3   OH278856   6.444   5.656  16.996  0.1339  0.2977  0.2535
19122TIP3    H178857   6.360   5.619  16.969  0.6831 -0.9266  0.1551
19122TIP3    H278858   6.508   5.589  16.972  1.2229  1.5396 -0.3658
19123TIP3   OH278859   3.976   1.508  11.731 -0.0301 -0.0668  0.1847
19123TIP3    H178860   3.986   1.585  11.675 -1.8650 -0.5274 -0.8669
19123TIP3    H278861   3.996   1.434  11.673  0.3364 -0.4493  0.7952
19124TIP3   OH278862   1.104   3.541  17.253 -0.0336  0.4616 -0.4825
19124TIP3    H178863   1.079   3.570  17.165  1.5781  1.5308 -0.6385
19124TIP3    H278864   1.024   3.551  17.305 -0.2094  2.9351 -1.1111
19125TIP3   OH278865   4.143   2.141   1.173  0.1740  0.7065  0.0674
19125TIP3    H178866   4.225   2.184   1.197 -0.1643  0.4321  1.8730
19125TIP3    H278867   4.143   2.060   1.224 -0.6712  0.1132 -0.8376
19126TIP3   OH278868   3.196   1.202  11.171 -0.7004  0.0235  0.3342
19126TIP3    H178869   3.290   1.192  11.159 -0.2994  1.0684  2.2989
19126TIP3    H278870   3.185   1.289  11.208 -2.3680 -0.3863  0.9202
19127TIP3   OH278871   0.327   0.645   1.475  0.4842 -1.3612  0.0813
19127TIP3    H178872   0.343   0.611   1.564  0.5764  1.7641  1.3729
19127TIP3    H278873   0.408   0.691   1.453  0.1805 -1.4977 -1.3598
19128TIP3   OH278874   2.969   1.555   0.758  0.0084 -0.0872 -0.3699
19128TIP3    H178875   3.051   1.603   0.747  0.8480 -1.5159 -0.6341
19128TIP3    H278876   2.955   1.554   0.853 -1.3829  2.7790 -0.4551
19129TIP3   OH278877   3.551   5.691   1.880 -0.2596 -0.2598 -0.2086
19129TIP3    H178878   3.613   5.703   1.808  0.0506  2.1796  0.3647
19129TIP3    H278879   3.603   5.654   1.951  0.1211  0.0370 -0.3296
19130TIP3   OH278880   1.710   4.323   2.886 -0.0522  0.1457  0.5169
19130TIP3    H178881   1.622   4.289   2.868 -0.1227  0.2742  0.6196
19130TIP3    H278882   1.748   4.338   2.799  0.2182 -0.7996  0.4533
19131TIP3   OH278883   6.379   3.607  15.130  0.6523 -0.2964 -0.0785
19131TIP3    H178884   6.435   3.685  15.119  0.8772 -0.5398 -0.7032
19131TIP3    H278885   6.369   3.599  15.224  0.7958  0.3750  0.0049
19132TIP3   OH278886   3.085   6.230  14.497 -0.3126 -0.2407  0.1845
19132TIP3    H178887   3.080   6.265  14.586  0.8772 -1.1408  0.6314
19132TIP3    H278888   3.014   6.165  14.493  0.7913 -1.5922  1.1651
19133TIP3   OH278889   6.537   3.405  14.286 -0.1650 -0.0444  0.5014
19133TIP3    H178890   6.481   3.482  14.274  0.2270  0.3600  1.1747
19133TIP3    H278891   6.490   3.334  14.244  0.1603  0.8508 -1.4908
19134TIP3   OH278892   4.909   3.545   3.595 -0.9006  0.6238 -0.7521
19134TIP3    H178893   4.819   3.526   3.620 -0.9409 -0.8245 -1.8851
19134TIP3    H278894   4.908   3.545   3.500  0.1797  1.2359 -0.7818
19135TIP3   OH278895   6.773   3.818  13.513 -0.4813  0.1519 -0.3929
19135TIP3    H178896   6.837   3.887  13.531 -0.0273 -0.7360  1.7425
19135TIP3    H278897   6.744   3.835  13.424  2.6943  0.5906 -1.4668
19136TIP3   OH278898   0.300   0.196   0.799  0.1390  0.3321 -0.2194
19136TIP3    H178899   0.336   0.114   0.834 -0.5617  0.1875  0.1906
19136TIP3    H278900   0.256   0.236   0.874  0.5630  1.1459 -0.3900
19137TIP3   OH278901   6.116   4.946   2.286  0.4780 -0.0591 -0.2661
19137TIP3    H178902   6.047   4.912   2.342 -0.6939  1.5731 -0.6513
19137TIP3    H278903   6.097   4.909   2.199  0.8542 -0.6277 -0.1113
19138TIP3   OH278904   0.411   5.187   6.500 -0.6014  0.0572 -0.4441
19138TIP3    H178905   0.471   5.251   6.538 -0.7044 -1.3548  2.4077
19138TIP3    H278906   0.324   5.217   6.527 -0.6737 -1.0246  0.6080
19139TIP3   OH278907   6.227   6.672   5.043  0.3686  0.1623 -0.3025
19139TIP3    H178908   6.235   6.685   5.138  1.4056 -0.6892 -0.2500
19139TIP3    H278909   6.316   6.648   5.015 -0.2414 -1.1089 -1.2407
19140TIP3   OH278910   3.706   5.075  15.093 -0.3898 -0.5184  0.5396
19140TIP3    H178911   3.738   4.998  15.045 -0.6038 -0.3020  0.0490
19140TIP3    H278912   3.616   5.086  15.063 -1.5039 -2.0436  3.0165
19141TIP3   OH278913   2.141   6.795   1.744  0.4837 -0.4535 -0.1945
19141TIP3    H178914   2.184   6.870   1.785  1.7968 -0.0532 -2.1877
19141TIP3    H278915   2.181   6.718   1.786 -0.4814 -0.0977  1.4701
19142TIP3   OH278916   1.047   4.958  13.682  0.0520  0.9937 -0.5431
19142TIP3    H178917   1.078   4.918  13.764  2.5653  0.2227 -1.7693
19142TIP3    H278918   0.985   4.894  13.647 -1.2570  1.4531  0.8397
19143TIP3   OH278919   0.867   1.565  15.710  0.5817  0.1996  0.1570
19143TIP3    H178920   0.878   1.477  15.747 -0.4111  0.3132  0.7690
19143TIP3    H278921   0.954   1.604  15.714  0.8905 -0.5008  0.5233
19144TIP3   OH278922   6.162   1.057  15.912  0.5320  0.7224 -0.2128
19144TIP3    H178923   6.244   1.066  15.865  0.9885  0.5214  0.5371
19144TIP3    H278924   6.124   0.976  15.879  2.3445 -1.1229  1.9885
19145TIP3   OH278925   5.247   3.139   0.267  0.1736 -0.5539  0.2968
19145TIP3    H178926   5.323   3.149   0.208  0.7137  0.0865  1.0795
19145TIP3    H278927   5.182   3.200   0.232  1.2151  1.3225  1.4684
19146TIP3   OH278928   4.755   1.478  15.140 -0.1020 -0.3993 -0.0374
19146TIP3    H178929   4.713   1.559  15.168 -0.3185 -0.3798 -0.4177
19146TIP3    H278930   4.715   1.410  15.195 -1.4563 -0.5393 -1.1501
19147TIP3   OH278931   2.675   5.736   5.510 -0.1700  0.0891  0.6279
19147TIP3    H178932   2.631   5.793   5.573  1.4363  0.3660  1.5223
19147TIP3    H278933   2.628   5.653   5.516  0.8540 -0.3777  3.3192
19148TIP3   OH278934   3.457   0.023  10.835 -0.1341 -0.1249 -0.8162
19148TIP3    H178935   3.404   0.034  10.755  0.4637  0.7196 -1.1176
19148TIP3    H278936   3.543   0.059  10.811  0.0527  0.1344  0.2060
19149TIP3   OH278937   1.578   4.055  13.188 -0.9702  0.1328  0.0903
19149TIP3    H178938   1.577   3.993  13.261  1.3170 -0.7204 -0.5041
19149TIP3    H278939   1.546   4.006  13.113  2.0476 -0.9170 -0.6790
19150TIP3   OH278940   5.698   0.048  16.834  0.0815  0.8979  0.1911
19150TIP3    H178941   5.699   0.116  16.767  0.6542  0.2587 -0.4611
19150TIP3    H278942   5.714  -0.034  16.787 -1.7792  0.1356  0.7985
19151TIP3   OH278943   2.325   6.433  17.219 -0.1118 -0.1835  0.2095
19151TIP3    H178944   2.403   6.407  17.267 -0.5570 -0.5803  0.7223
19151TIP3    H278945   2.277   6.352  17.205 -0.8647  0.1703  0.6762
19152TIP3   OH278946   2.168   5.171   2.806 -0.2154 -0.2139  0.2870
19152TIP3    H178947   2.126   5.192   2.890 -1.2611 -0.2069 -0.2171
19152TIP3    H278948   2.239   5.235   2.798  1.6468 -1.8672  2.3711
19153TIP3   OH278949   1.773   5.561  16.328  0.2051 -0.6078 -0.0938
19153TIP3    H178950   1.817   5.491  16.377  0.3236  0.7740  1.8892
19153TIP3    H278951   1.711   5.599  16.390  1.0421  1.8713 -0.6492
19154TIP3   OH278952   1.290   1.401  16.571 -0.0684  0.3377 -0.1650
19154TIP3    H178953   1.213   1.407  16.628  0.5592  0.5332  0.6946
19154TIP3    H278954   1.363   1.396  16.632  0.8135  2.6616 -0.9208
19155TIP3   OH278955   4.196   2.467  13.038 -0.4740  0.2142  0.6592
19155TIP3    H178956   4.272   2.413  13.019  0.5913  1.6145  0.7458
19155TIP3    H278957   4.162   2.433  13.121 -1.0896 -1.6142 -0.3114
19156TIP3   OH278958   6.770   5.234  10.395  0.6295  0.3003 -0.2011
19156TIP3    H178959   6.763   5.325  10.364  1.5237  0.2447 -0.5963
19156TIP3    H278960   6.851   5.202  10.356  0.3833 -0.6353  0.0392
19157TIP3   OH278961   4.878   0.731   3.158 -0.1577 -0.1328 -0.6251
19157TIP3    H178962   4.946   0.664   3.156 -0.9510 -1.1313  1.8863
19157TIP3    H278963   4.926   0.814   3.159  1.0690 -0.8092  1.0320
19158TIP3   OH278964   3.876   2.996   5.260  0.4867 -0.3749 -0.2238
19158TIP3    H178965   3.823   2.973   5.336  1.0112 -1.3453 -0.1353
19158TIP3    H278966   3.955   2.942   5.269 -0.2467 -1.9334 -2.4379
19159TIP3   OH278967   4.839   3.291   5.219  0.0179  0.0117  0.0381
19159TIP3    H178968   4.885   3.276   5.136  0.5240  1.7304 -0.0154
19159TIP3    H278969   4.844   3.206   5.264 -0.8571 -1.1575 -1.9344
19160TIP3   OH278970   5.835   4.124  13.053  0.1007 -0.2282  0.1444
19160TIP3    H178971   5.916   4.175  13.051  0.5126 -0.7481  2.0248
19160TIP3    H278972   5.806   4.122  12.962  1.9540  0.3427 -0.5026
19161TIP3   OH278973   5.956   2.078  14.214 -0.2112  0.4643  0.5779
19161TIP3    H178974   5.954   2.131  14.294 -0.7433  0.0434  0.8496
19161TIP3    H278975   5.939   2.140  14.143  0.6992  0.9206  0.7329
19162TIP3   OH278976   5.724   1.103  14.454  0.5577  0.7326  0.2578
19162TIP3    H178977   5.802   1.048  14.467 -0.0825 -0.3798 -0.3601
19162TIP3    H278978   5.732   1.133  14.363  0.2417  0.5552  0.1700
19163TIP3   OH278979   5.700   4.177   2.031 -0.1724  0.1392  1.1919
19163TIP3    H178980   5.774   4.237   2.020 -0.0063  0.3864  3.2925
19163TIP3    H278981   5.688   4.171   2.125 -2.9554  0.2245  0.9150
19164TIP3   OH278982   4.166   6.224   1.922  0.1324 -0.5911 -0.1498
19164TIP3    H178983   4.244   6.277   1.936  0.0500 -0.7170  0.8581
19164TIP3    H278984   4.192   6.136   1.947 -0.0916 -0.7985 -0.6326
19165TIP3   OH278985   0.225   3.513  12.444 -0.3729 -0.2467 -0.0243
19165TIP3    H178986   0.316   3.544  12.443 -0.6785  0.9229  2.3053
19165TIP3    H278987   0.173   3.592  12.428 -1.0342 -0.2854  1.7074
19166TIP3   OH278988   0.714   5.929  12.710 -0.4936  0.2637 -0.5976
19166TIP3    H178989   0.633   5.950  12.757 -0.7714  1.2229 -1.4629
19166TIP3    H278990   0.771   6.004  12.724 -0.5931  0.5904 -1.7791
19167TIP3   OH278991   0.633   6.185  13.012 -0.5330  0.1773  0.2369
19167TIP3    H178992   0.728   6.198  13.008 -0.4713 -0.0436  0.8189
19167TIP3    H278993   0.604   6.244  13.081 -1.4473  3.4526 -2.6891
19168TIP3   OH278994   0.541   2.165   1.231 -0.7415 -0.1899 -0.4037
19168TIP3    H178995   0.498   2.079   1.235 -0.5383 -0.2635  0.5826
19168TIP3    H278996   0.554   2.189   1.323  2.0976 -0.5681 -0.6288
19169TIP3   OH278997   4.167   0.421  16.268 -0.2765 -0.1370 -0.2291
19169TIP3    H178998   4.096   0.427  16.333 -0.5865 -0.5554 -0.5211
19169TIP3    H278999   4.247   0.420  16.320 -0.4641  0.6102  0.0937
19170TIP3   OH279000   0.494   2.254   2.261 -0.0472  0.3429 -0.4345
19170TIP3    H179001   0.451   2.332   2.224 -0.5960 -0.4589 -1.5624
19170TIP3    H279002   0.584   2.282   2.279 -0.8089  1.8437  1.2780
19171TIP3   OH279003   3.342   4.307   0.651 -0.2437  0.1796 -0.0589
19171TIP3    H179004   3.360   4.219   0.685 -0.1178 -0.0355 -0.6764
19171TIP3    H279005   3.387   4.310   0.567 -1.7732  0.1954 -0.9028
19172TIP3   OH279006   3.836   4.328   5.344 -0.5668  0.0483  0.6368
19172TIP3    H179007   3.863   4.418   5.327 -0.3938  0.0991  1.1512
19172TIP3    H279008   3.919   4.279   5.350 -0.6633 -0.1586  0.2752
19173TIP3   OH279009   0.218   6.531  15.489 -0.4352 -0.4216  0.1861
19173TIP3    H179010   0.190   6.442  15.510  0.4428 -0.7996 -0.1986
19173TIP3    H279011   0.188   6.584  15.563  0.8416 -1.3866  1.4336
19174TIP3   OH279012   5.155   6.305   6.409  0.0834  0.1659 -0.0242
19174TIP3    H179013   5.135   6.365   6.480  0.9483  0.2763  0.1405
19174TIP3    H279014   5.214   6.354   6.351  1.5832 -0.7990  0.6020
19175TIP3   OH279015   0.955   5.060  13.322 -0.6737 -0.3749 -0.1078
19175TIP3    H179016   0.994   5.144  13.297 -0.6100 -0.2579  0.3688
19175TIP3    H279017   1.029   5.008  13.353 -0.9671  0.1190  1.5436
19176TIP3   OH279018   1.587   6.224  12.924  0.0975  0.0537  0.2923
19176TIP3    H179019   1.544   6.169  12.859  0.3087 -0.9783  0.9933
19176TIP3    H279020   1.635   6.289  12.873  0.4442 -0.8663 -0.5877
19177TIP3   OH279021   3.252   6.438   5.354 -0.0545 -0.2748  0.0632
19177TIP3    H179022   3.190   6.505   5.381  0.4263 -0.2758  1.2146
19177TIP3    H279023   3.206   6.388   5.286 -1.0661  0.1189  0.4491
19178TIP3   OH279024   3.428   1.133  16.065 -0.2650  0.3164 -0.0993
19178TIP3    H179025   3.453   1.189  16.138 -1.1037 -0.2005  0.6077
19178TIP3    H279026   3.348   1.172  16.030  0.2179  0.6531 -0.8619
19179TIP3   OH279027   3.142   3.928   4.529  0.3907  0.5995 -0.1857
19179TIP3    H179028   3.175   3.839   4.540 -1.2409  0.1784  1.9293
19179TIP3    H279029   3.205   3.983   4.576  1.6368  0.6835 -1.8575
19180TIP3   OH279030   4.834   3.986  16.222  0.4393 -0.1579  0.2597
19180TIP3    H179031   4.872   4.066  16.257 -0.2094  0.0124  0.5920
19180TIP3    H279032   4.767   3.961  16.286  0.6513 -0.9779  0.1716
19181TIP3   OH279033   5.425   4.828   0.766  0.1122  0.0933 -0.0369
19181TIP3    H179034   5.503   4.868   0.729  0.6647  0.2261  1.2216
19181TIP3    H279035   5.361   4.828   0.694  0.6103  1.7894 -0.5251
19182TIP3   OH279036   0.892   3.531  12.641  0.3367 -0.2259 -0.2407
19182TIP3    H179037   0.962   3.537  12.707  0.6407 -0.8520 -0.5066
19182TIP3    H279038   0.830   3.600  12.667  1.1463  0.4786 -0.1225
19183TIP3   OH279039   4.155   2.797  14.966 -0.2323 -0.1539 -0.0405
19183TIP3    H179040   4.081   2.848  14.932  0.3998 -0.7773 -2.4601
19183TIP3    H279041   4.231   2.829  14.918  0.6971 -1.1609  0.7192
19184TIP3   OH279042   0.385   0.069  11.864 -0.0779 -0.1201 -0.1684
19184TIP3    H179043   0.430  -0.002  11.818 -2.3081 -2.0116  0.3339
19184TIP3    H279044   0.401   0.147  11.811 -0.4974 -1.7051 -2.8437
19185TIP3   OH279045   0.050   1.337  16.888  0.5798  0.0024  0.0508
19185TIP3    H179046   0.087   1.255  16.856  0.0249 -0.9838  1.8080
19185TIP3    H279047   0.108   1.363  16.960  0.0644  0.4868  0.3008
19186TIP3   OH279048   1.545   4.012  12.327  0.4822  0.3179  0.2675
19186TIP3    H179049   1.635   4.028  12.301  1.1837 -0.4433  2.0572
19186TIP3    H279050   1.540   4.043  12.418 -0.1618 -2.3266  1.2501
19187TIP3   OH279051   4.880   2.027  15.505  0.9307  0.9659  0.4651
19187TIP3    H179052   4.857   1.983  15.587 -0.5222  1.3718  0.3060
19187TIP3    H279053   4.901   1.955  15.445 -2.6133  0.2339 -0.1639
19188TIP3   OH279054   4.575   5.913   3.402 -0.2540 -0.0137 -0.2642
19188TIP3    H179055   4.590   5.827   3.441 -0.4100  0.3993  0.7273
19188TIP3    H279056   4.642   5.920   3.334  0.7656 -0.2959  0.6821
19189TIP3   OH279057   6.496   3.137   2.118  0.1175 -0.3647 -0.6709
19189TIP3    H179058   6.580   3.184   2.120 -0.3896  0.5596  0.4442
19189TIP3    H279059   6.445   3.182   2.050  0.1961 -0.3078 -0.6928
19190TIP3   OH279060   3.558   3.539  15.538  0.0993  0.4455  0.3344
19190TIP3    H179061   3.519   3.514  15.454  1.1162 -0.0209 -0.0166
19190TIP3    H279062   3.599   3.623  15.521 -3.4070  2.5947  1.5424
19191TIP3   OH279063   6.774   1.936   0.192  0.5858  0.0045  0.8712
19191TIP3    H179064   6.715   1.925   0.118 -1.0611 -1.4626  2.3184
19191TIP3    H279065   6.839   1.866   0.182  0.5095 -0.0390  0.6869
19192TIP3   OH279066   0.790   5.459  15.833 -0.3052  0.0996  0.4904
19192TIP3    H179067   0.884   5.474  15.839 -0.1464 -0.8209  0.3338
19192TIP3    H279068   0.774   5.440  15.740 -0.9409  2.1181  0.1341
19193TIP3   OH279069   2.039   1.106  16.233  0.0635  0.0972 -0.3038
19193TIP3    H179070   1.982   1.148  16.168 -1.4488  0.5367  1.2272
19193TIP3    H279071   2.006   1.138  16.317  0.8232 -1.8308  0.7743
19194TIP3   OH279072   3.296   6.741   2.357  0.0159  0.0305  0.3687
19194TIP3    H179073   3.222   6.688   2.329  2.0612 -1.5895 -2.5601
19194TIP3    H279074   3.278   6.828   2.323 -0.1057 -0.6200 -1.3333
19195TIP3   OH279075   0.908   5.351  16.390  0.3842  0.3995 -0.0077
19195TIP3    H179076   0.825   5.356  16.436 -0.4304 -1.3766 -1.2016
19195TIP3    H279077   0.891   5.390  16.304  0.3974 -1.1303 -0.7313
19196TIP3   OH279078   6.140   4.001   4.301 -0.2296 -0.2823 -0.3833
19196TIP3    H179079   6.172   4.088   4.325  0.2811 -0.4021 -0.6177
19196TIP3    H279080   6.141   3.952   4.383 -2.8719  0.6261  0.2709
19197TIP3   OH279081   3.497   6.137   5.700 -0.2220 -0.2164  0.2261
19197TIP3    H179082   3.466   6.120   5.789 -1.1480 -1.4555 -0.2949
19197TIP3    H279083   3.427   6.189   5.660  0.0386  0.0538  0.1206
19198TIP3   OH279084   1.173   3.547   4.436  0.3804  0.3178  0.3810
19198TIP3    H179085   1.182   3.519   4.527  0.3391  0.3843  0.4057
19198TIP3    H279086   1.091   3.597   4.434  0.0885 -0.1721  0.1788
19199TIP3   OH279087   3.820   2.030  12.394 -0.6738 -0.0231  0.3944
19199TIP3    H179088   3.873   2.000  12.467 -1.3490 -1.2366  0.4114
19199TIP3    H279089   3.729   2.026  12.426 -1.0878 -1.6830 -0.8059
19200TIP3   OH279090   6.175   5.054  14.310  0.2436  0.2857 -0.2134
19200TIP3    H179091   6.251   5.099  14.274  1.2600 -0.9256  0.3429
19200TIP3    H279092   6.211   4.980  14.359 -0.7577  3.0262  5.4870
19201TIP3   OH279093   5.265   4.784   5.466 -0.0806  0.2435  0.4495
19201TIP3    H179094   5.351   4.822   5.484  0.3238 -0.9032  1.0116
19201TIP3    H279095   5.212   4.807   5.542  0.1887 -0.3538  0.8287
19202TIP3   OH279096   4.746   6.723  13.069 -0.3439 -0.9909  0.4846
19202TIP3    H179097   4.840   6.707  13.058  0.2551 -0.1757  3.5132
19202TIP3    H279098   4.707   6.636  13.076  0.3007 -1.3198  0.0906
19203TIP3   OH279099   4.038   6.150  14.337 -0.4337  0.6122 -0.0752
19203TIP3    H179100   4.114   6.200  14.309 -0.0345  0.7478  1.2056
19203TIP3    H279101   4.033   6.077  14.274 -0.3554  1.6050 -1.2744
19204TIP3   OH279102   2.785   0.629  10.497  0.2614  0.0802  0.0613
19204TIP3    H179103   2.747   0.704  10.542  0.3212  0.5423 -0.6422
19204TIP3    H279104   2.779   0.651  10.404 -1.9451 -1.8030 -0.3444
19205TIP3   OH279105   5.195   2.036   6.052 -0.8222  0.1232 -0.2276
19205TIP3    H179106   5.176   2.125   6.024 -1.6287  0.2853  0.7480
19205TIP3    H279107   5.130   1.982   6.008 -1.2533  0.2115  0.2881
19206TIP3   OH279108   6.356   6.075   0.841  0.0455 -0.7536  0.0431
19206TIP3    H179109   6.341   6.149   0.900  1.6949 -1.7373  1.8145
19206TIP3    H279110   6.269   6.040   0.822 -0.5161 -0.5508  2.0922
19207TIP3   OH279111   2.662   5.345  15.880  0.6750  0.2231  0.5010
19207TIP3    H179112   2.707   5.319  15.960  0.7479 -1.1274  0.0542
19207TIP3    H279113   2.616   5.266  15.852 -1.0893  1.2420  0.3355
19208TIP3   OH279114   5.849   0.591  12.001  0.4631 -0.1130  0.0903
19208TIP3    H179115   5.813   0.674  11.970  1.5233  0.6999  0.9443
19208TIP3    H279116   5.939   0.590  11.968  0.6446 -0.6439  0.5889
19209TIP3   OH279117   2.135   0.102   5.232 -0.3165  0.1117  0.0507
19209TIP3    H179118   2.103   0.163   5.165  0.5041  0.1049 -0.3582
19209TIP3    H279119   2.063   0.095   5.294 -1.0313  0.2601 -0.7407
19210TIP3   OH279120   4.191   1.351   1.548 -0.0543 -0.1156 -0.8049
19210TIP3    H179121   4.199   1.447   1.555 -0.6824 -0.0548 -0.8898
19210TIP3    H279122   4.144   1.337   1.467 -0.7687 -0.4581 -0.3405
19211TIP3   OH279123   2.172   6.669  16.983  0.0841 -0.6463 -0.8420
19211TIP3    H179124   2.155   6.721  17.062  0.0905 -1.1978 -0.4761
19211TIP3    H279125   2.086   6.655  16.944  0.2955  2.3936 -2.7465
19212TIP3   OH279126   5.115   5.446  15.756 -0.4500 -0.2143 -0.0943
19212TIP3    H179127   5.197   5.399  15.750  0.3693  1.3428 -1.9346
19212TIP3    H279128   5.135   5.522  15.812 -0.9994 -0.5055  0.5128
19213TIP3   OH279129   1.915   1.554  12.781 -0.4554  0.4536  0.3420
19213TIP3    H179130   1.921   1.554  12.877  1.7502 -0.1580  0.2591
19213TIP3    H279131   1.925   1.645  12.756  2.1032  0.3381  0.6384
19214TIP3   OH279132   4.884   3.905  12.793  0.2900 -0.6124 -0.1468
19214TIP3    H179133   4.969   3.930  12.757  0.5559  0.0264  0.9027
19214TIP3    H279134   4.868   3.966  12.864 -1.3973 -0.2613 -0.7737
19215TIP3   OH279135   0.259   6.419  12.853 -0.1073  0.2856 -0.5325
19215TIP3    H179136   0.332   6.431  12.913 -0.5933  0.2938  0.0666
19215TIP3    H279137   0.211   6.502  12.856 -1.4180 -0.4695  0.8319
19216TIP3   OH279138   0.934   6.799  10.860  0.3792  1.0670 -0.4814
19216TIP3    H179139   0.896   6.784  10.773 -1.5115 -2.6687  0.7604
19216TIP3    H279140   0.943   6.711  10.897  0.5112  2.5286  3.3429
19217TIP3   OH279141   3.719   0.929   0.730  0.0268 -0.5846 -0.0691
19217TIP3    H179142   3.721   0.849   0.783 -1.5468 -1.0346 -0.6320
19217TIP3    H279143   3.788   0.917   0.666  0.0623 -1.3185  0.0966
19218TIP3   OH279144   4.349   1.348  15.023 -0.1410 -0.6369 -0.4430
19218TIP3    H179145   4.395   1.264  15.012  0.6262 -0.1193 -1.3693
19218TIP3    H279146   4.302   1.361  14.940  0.4214  0.2378 -0.6385
19219TIP3   OH279147   6.341   5.114  13.766  0.5373  0.3878 -0.2517
19219TIP3    H179148   6.373   5.067  13.690  0.9005 -0.8701  0.6582
19219TIP3    H279149   6.370   5.063  13.841 -2.1009  0.0876  0.6980
19220TIP3   OH279150   2.499   3.598   2.359 -0.1030 -0.0965 -0.4293
19220TIP3    H179151   2.553   3.669   2.393 -0.1723 -0.4619  0.4703
19220TIP3    H279152   2.421   3.598   2.414  0.8689 -2.2965  1.1424
19221TIP3   OH279153   4.243   6.352  17.216  0.2808 -0.3227 -0.2785
19221TIP3    H179154   4.324   6.313  17.248  2.1844  0.9055 -3.1453
19221TIP3    H279155   4.249   6.444  17.243 -0.0767 -0.1861 -0.6555
19222TIP3   OH279156   6.375   4.456  16.549  0.3395 -0.1217 -0.1700
19222TIP3    H179157   6.363   4.550  16.547  1.1368  0.0445  1.5625
19222TIP3    H279158   6.416   4.436  16.464 -2.0757  0.6774 -1.6354
19223TIP3   OH279159   3.510   1.059   1.779  0.1139 -0.4079  0.0407
19223TIP3    H179160   3.536   1.022   1.863 -1.9310 -0.1947  0.8123
19223TIP3    H279161   3.508   0.984   1.719 -1.9866 -1.2903  1.1033
19224TIP3   OH279162   0.520   2.260   4.854  0.0169 -0.1695 -0.1302
19224TIP3    H179163   0.489   2.228   4.769 -0.5147  0.4728 -0.1929
19224TIP3    H279164   0.487   2.350   4.858  2.3563  0.7756 -0.4416
19225TIP3   OH279165   0.900   2.504  16.775 -0.1110  0.2389 -0.3452
19225TIP3    H179166   0.935   2.501  16.686  2.3775 -0.5958  0.5772
19225TIP3    H279167   0.970   2.467  16.830 -1.3232  1.2436  2.0369
19226TIP3   OH279168   3.558   3.267   2.748 -0.4836  0.4908  0.2750
19226TIP3    H179169   3.551   3.213   2.670  0.2959 -2.7347  2.2479
19226TIP3    H279170   3.638   3.318   2.735 -0.0896 -0.3724 -0.8218
19227TIP3   OH279171   5.194   2.394  11.954  0.0076  0.4152 -0.8295
19227TIP3    H179172   5.197   2.299  11.964  0.8958  0.4639 -0.5318
19227TIP3    H279173   5.163   2.407  11.864 -0.0610 -0.1539 -0.8920
19228TIP3   OH279174   2.307   5.271  15.728 -0.2928  0.4652 -0.5211
19228TIP3    H179175   2.229   5.262  15.783 -0.3966 -1.6968 -0.9186
19228TIP3    H279176   2.354   5.347  15.764 -1.3649  0.3399  1.2479
19229TIP3   OH279177   0.409   3.323  11.677 -0.3854 -0.0538  0.2580
19229TIP3    H179178   0.468   3.248  11.682 -1.1975 -0.7657 -0.4365
19229TIP3    H279179   0.451   3.383  11.615 -0.4515 -0.6086 -0.3260
19230TIP3   OH279180   3.391   1.113   5.155 -0.6075 -0.7167 -0.1641
19230TIP3    H179181   3.372   1.190   5.207 -0.2972 -1.1574  0.6200
19230TIP3    H279182   3.367   1.039   5.211 -0.9700 -1.1965 -0.9235
19231TIP3   OH279183   4.800   2.141  13.313 -0.0535  0.4008  0.3102
19231TIP3    H179184   4.767   2.226  13.284 -0.5236  0.0219 -0.2903
19231TIP3    H279185   4.747   2.077  13.265 -0.8770 -0.2589  2.0152
19232TIP3   OH279186   1.158   5.102  16.609 -0.5663  0.2160  0.2744
19232TIP3    H179187   1.227   5.167  16.619 -0.5180  0.1275  0.5137
19232TIP3    H279188   1.099   5.117  16.683 -2.5696  2.4074 -1.6314
19233TIP3   OH279189   4.247   0.961   3.892 -0.2046 -0.1338  0.1357
19233TIP3    H179190   4.263   0.867   3.892 -0.3115 -0.1714 -1.1878
19233TIP3    H279191   4.156   0.970   3.863 -0.1334  0.3825  0.0640
19234TIP3   OH279192   5.966   5.626   3.136 -0.0558 -0.2095 -0.6257
19234TIP3    H179193   5.991   5.681   3.211  0.1706 -1.4773  0.2618
19234TIP3    H279194   5.930   5.688   3.073  2.1803  1.2740 -0.5810
19235TIP3   OH279195   4.742   3.948  12.172  0.2068  0.1752 -0.0675
19235TIP3    H179196   4.760   4.032  12.213 -0.0545 -0.1057  0.6465
19235TIP3    H279197   4.817   3.893  12.197  0.9698  0.5089 -1.4995
19236TIP3   OH279198   3.744   5.461  12.929 -0.2679  0.2157 -0.1734
19236TIP3    H179199   3.738   5.507  13.013  1.2755  0.3916 -0.1308
19236TIP3    H279200   3.801   5.387  12.947 -0.4403 -0.1049 -0.9317
19237TIP3   OH279201   5.964   1.149  12.044  0.5177 -0.2463 -0.2340
19237TIP3    H179202   6.045   1.149  11.994 -0.3826  0.3484 -1.7789
19237TIP3    H279203   5.899   1.113  11.984 -0.7052  0.8937  0.3477
19238TIP3   OH279204   1.480   0.421  15.269 -0.1253 -0.1184  0.2792
19238TIP3    H179205   1.572   0.421  15.242  0.0479  2.7914  0.5255
19238TIP3    H279206   1.460   0.514  15.286 -2.6368 -0.8439  1.8580
19239TIP3   OH279207   5.268   0.178  10.977 -0.3643 -0.3737  0.0678
19239TIP3    H179208   5.280   0.180  11.072  1.6083 -0.7724 -0.1375
19239TIP3    H279209   5.218   0.257  10.957 -0.0197  0.1822  1.3300
19240TIP3   OH279210   4.855   0.082  11.459 -0.5511 -0.0418  0.1374
19240TIP3    H179211   4.797   0.158  11.463  0.5385  0.7888  0.3839
19240TIP3    H279212   4.926   0.102  11.520 -0.6951 -1.6583  0.8984
19241TIP3   OH279213   1.898   3.239  13.472 -0.1805 -0.2044 -0.3931
19241TIP3    H179214   1.899   3.334  13.486 -1.9855 -0.3202  0.8786
19241TIP3    H279215   1.990   3.213  13.472  0.4148  1.6918 -1.9835
19242TIP3   OH279216   5.661   4.571  16.951  0.2979  0.2886  0.1312
19242TIP3    H179217   5.623   4.485  16.972 -0.3160  0.5616  0.1417
19242TIP3    H279218   5.681   4.609  17.037  1.7225 -0.3454  0.1081
19243TIP3   OH279219   4.289   5.016   1.547  0.1547  0.1350  0.2203
19243TIP3    H179220   4.338   5.046   1.623 -0.7100  1.3011  0.3481
19243TIP3    H279221   4.212   4.972   1.584  0.9191 -1.4562  0.0191
19244TIP3   OH279222   4.431   4.632  13.138  0.1424 -0.0258 -0.0163
19244TIP3    H179223   4.421   4.716  13.093 -0.9784 -0.1440 -0.0324
19244TIP3    H279224   4.367   4.575  13.095  0.2955 -0.6429  0.5639
19245TIP3   OH279225   1.998   3.838   2.474 -0.0252  0.3414  0.2243
19245TIP3    H179226   1.968   3.774   2.409 -2.6619  1.7355 -0.0702
19245TIP3    H279227   1.930   3.837   2.541  1.8222  0.1286  2.2074
19246TIP3   OH279228   3.255   6.448  16.466 -0.1248 -0.0091 -0.2521
19246TIP3    H179229   3.315   6.398  16.521  2.0369  1.5144 -1.1035
19246TIP3    H279230   3.187   6.478  16.526 -0.1334 -1.8315  0.7300
19247TIP3   OH279231   0.699   3.250  13.804 -0.2175  0.7981 -0.1619
19247TIP3    H179232   0.734   3.214  13.886 -0.7740  2.1922  0.7354
19247TIP3    H279233   0.614   3.207  13.793  1.2527 -1.9550 -1.8944
19248TIP3   OH279234   6.282   1.052   5.590  0.8744  0.1710 -0.6297
19248TIP3    H179235   6.205   1.080   5.542  1.0028  1.3358 -0.1993
19248TIP3    H279236   6.300   0.963   5.559 -1.2297 -0.5266  0.0046
19249TIP3   OH279237   3.103   0.462  13.314 -0.6040 -0.3478 -0.0397
19249TIP3    H179238   3.154   0.425  13.386 -2.3568 -0.4779  1.1701
19249TIP3    H279239   3.012   0.455  13.342 -1.2196  1.5291 -1.3579
19250TIP3   OH279240   3.657   1.353  11.618  0.7955  0.0312 -0.0351
19250TIP3    H179241   3.721   1.375  11.551  1.1954  1.9708  0.9164
19250TIP3    H279242   3.572   1.373  11.577  0.9983  0.6150 -0.1779
19251TIP3   OH279243   0.724   5.522  12.948  0.1942  0.1543  0.0815
19251TIP3    H179244   0.809   5.487  12.924 -1.1108 -0.9094 -3.6999
19251TIP3    H279245   0.693   5.465  13.018  2.6241  0.7905  1.7892
19252TIP3   OH279246   4.117   3.161  12.900  0.0745  0.0886  0.7965
19252TIP3    H179247   4.171   3.082  12.896 -0.3667 -0.1891  0.0318
19252TIP3    H279248   4.175   3.231  12.871 -0.4431 -0.4928 -1.9183
19253TIP3   OH279249   1.851   1.563   5.097  0.1147  0.7066 -0.5282
19253TIP3    H179250   1.840   1.476   5.058  0.6891  0.1660  0.4807
19253TIP3    H279251   1.795   1.562   5.174  1.4008  0.6076  0.4345
19254TIP3   OH279252   2.204   2.655  13.072  0.3136 -0.5942  0.1463
19254TIP3    H179253   2.222   2.647  13.166 -1.5755 -0.4605  0.5689
19254TIP3    H279254   2.280   2.701  13.036  1.5308 -1.5331  1.4216
19255TIP3   OH279255   2.496   4.341   5.387 -0.2334  0.2468 -0.1302
19255TIP3    H179256   2.539   4.256   5.390  0.5295  0.6162 -0.0302
19255TIP3    H279257   2.408   4.324   5.356 -0.2711 -0.6456  0.4474
19256TIP3   OH279258   3.240   4.666  16.883  0.3878 -0.2951  0.2650
19256TIP3    H179259   3.177   4.595  16.897 -0.1152 -0.3932 -2.1646
19256TIP3    H279260   3.267   4.691  16.972 -3.2083 -0.0786  1.4699
19257TIP3   OH279261   3.136   5.852  12.997  0.9617 -0.4212 -0.1439
19257TIP3    H179262   3.127   5.762  13.028  1.0598 -0.5836 -0.5833
19257TIP3    H279263   3.096   5.905  13.066 -0.2258 -0.8921 -0.4462
19258TIP3   OH279264   1.575   4.897   5.556 -0.1360  0.0885  0.4369
19258TIP3    H179265   1.633   4.941   5.617  1.1121  0.6231 -1.0779
19258TIP3    H279266   1.558   4.961   5.487  0.3084 -1.2049 -0.9206
19259TIP3   OH279267   5.547   1.692  13.907  0.3390  0.2949  0.0640
19259TIP3    H179268   5.628   1.685  13.956  1.2370  0.9354 -1.2662
19259TIP3    H279269   5.529   1.786  13.904 -0.2135  0.1902 -0.0312
19260TIP3   OH279270   1.292   4.733  12.730 -0.1806 -0.1817  0.9925
19260TIP3    H179271   1.227   4.662  12.728 -0.4289  0.0318  1.3247
19260TIP3    H279272   1.283   4.771  12.817  0.8209 -0.5380  1.2622
19261TIP3   OH279273   5.338   2.328  15.191  0.1372  0.2539 -0.1901
19261TIP3    H179274   5.292   2.411  15.199  0.9398  0.5557  1.6435
19261TIP3    H279275   5.377   2.313  15.277  2.4529 -0.5686 -1.2813
19262TIP3   OH279276   2.979   6.571   2.865  0.3556 -0.1654 -0.0312
19262TIP3    H179277   2.930   6.654   2.862  1.6492  0.6266 -2.4408
19262TIP3    H279278   3.043   6.583   2.935 -0.4030  0.3064  0.5887
19263TIP3   OH279279   6.122   5.789   0.318  0.3522 -0.9173 -0.0027
19263TIP3    H179280   6.204   5.837   0.327  0.7755 -1.8727  1.5789
19263TIP3    H279281   6.054   5.855   0.333  0.7181  0.1015 -2.2857
19264TIP3   OH279282   5.916   5.084   4.352  0.7880 -0.1117  0.1916
19264TIP3    H179283   5.867   5.166   4.348  0.6339 -0.1526  1.0130
19264TIP3    H279284   5.851   5.018   4.378  0.4871 -0.8821 -2.2838
19265TIP3   OH279285   6.003   2.239  12.278  0.6506 -0.4734 -0.0172
19265TIP3    H179286   6.024   2.159  12.230 -0.9812  0.0665 -1.7713
19265TIP3    H279287   5.911   2.229  12.304  1.0436 -0.0593  1.6615
19266TIP3   OH279288   2.963   4.810   3.797  0.3317  0.0209  0.1313
19266TIP3    H179289   2.914   4.820   3.716 -1.7568  1.4128  1.4650
19266TIP3    H279290   2.936   4.725   3.832 -1.4854  0.8849  0.9837
19267TIP3   OH279291   1.132   2.695  16.791 -0.4428  0.3160  0.0979
19267TIP3    H179292   1.107   2.720  16.880  0.2723  3.2258 -0.4191
19267TIP3    H279293   1.049   2.687  16.744 -0.7683  2.2862  0.2439
19268TIP3   OH279294   1.462   3.476  14.848  0.0591  0.3731  0.7653
19268TIP3    H179295   1.450   3.515  14.934 -0.2216 -1.4708  1.6116
19268TIP3    H279296   1.525   3.405  14.862  0.3351  0.3009 -0.6413
19269TIP3   OH279297   2.615   2.461  11.811  0.0629 -0.2034 -0.0028
19269TIP3    H179298   2.616   2.500  11.899  2.4779 -0.1592  0.0128
19269TIP3    H279299   2.547   2.394  11.816 -1.4119  1.2820  1.1939
19270TIP3   OH279300   6.048   5.143   0.260 -0.4896 -0.7540  0.1114
19270TIP3    H179301   6.000   5.225   0.268 -2.7380 -1.9528 -0.3939
19270TIP3    H279302   6.068   5.136   0.167  0.4433 -0.4216  0.2720
19271TIP3   OH279303   0.334   0.555   4.120  0.0303  0.1722  0.0593
19271TIP3    H179304   0.332   0.601   4.204  3.4420  0.9655 -0.1502
19271TIP3    H279305   0.398   0.485   4.132 -0.5737 -0.6869 -1.4516
19272TIP3   OH279306   1.853   2.506   5.103  0.1264 -0.2916 -0.2402
19272TIP3    H179307   1.909   2.451   5.049  0.2666 -0.6997  0.3079
19272TIP3    H279308   1.899   2.589   5.109 -0.2582  0.0257 -1.3707
19273TIP3   OH279309   2.496   4.498  13.505  0.0867  0.3888 -0.1839
19273TIP3    H179310   2.527   4.418  13.547  0.5248  0.7585  0.2086
19273TIP3    H279311   2.474   4.556  13.578 -1.7189  0.0846 -0.4310
19274TIP3   OH279312   2.639   4.919   2.008 -0.5553  1.0507 -0.0044
19274TIP3    H179313   2.734   4.910   2.019 -0.8080 -1.3348  0.7314
19274TIP3    H279314   2.616   4.995   2.063  0.8782  1.5415 -0.0449
19275TIP3   OH279315   3.109   6.782   4.946 -1.0653 -0.5034 -0.6479
19275TIP3    H179316   3.062   6.800   4.865 -1.2842 -1.3274 -0.7133
19275TIP3    H279317   3.059   6.712   4.988 -0.4459 -0.7116 -0.2434
19276TIP3   OH279318   5.296   3.533   2.143  0.5100 -0.2426 -0.1050
19276TIP3    H179319   5.293   3.584   2.223  1.5136  1.1312 -0.8983
19276TIP3    H279320   5.390   3.524   2.123  0.2658  0.6123 -1.8110
19277TIP3   OH279321   4.226   1.545  11.410  0.4836  0.1659  0.1288
19277TIP3    H179322   4.231   1.453  11.438 -2.4811  0.0934  0.7410
19277TIP3    H279323   4.181   1.542  11.326 -1.2950  1.0925  0.9839
19278TIP3   OH279324   4.083   2.578   0.359  0.3618  0.1516 -0.3879
19278TIP3    H179325   4.131   2.639   0.304 -0.4442  0.8757 -0.3180
19278TIP3    H279326   3.993   2.610   0.357  0.0779 -0.5617  0.3136
19279TIP3   OH279327   5.890   6.351  14.889  0.7632 -0.0969 -0.3788
19279TIP3    H179328   5.939   6.354  14.807 -1.2004  0.6139 -1.5988
19279TIP3    H279329   5.910   6.266  14.926  2.6132  0.0275 -0.9840
19280TIP3   OH279330   5.497   5.455   1.055  0.0070 -0.1871  0.7921
19280TIP3    H179331   5.502   5.534   1.001  2.7092 -1.3210 -0.8542
19280TIP3    H279332   5.476   5.385   0.992  0.9286 -1.2104  1.5731
19281TIP3   OH279333   3.987   6.159  15.958  0.2745 -0.0091 -0.0577
19281TIP3    H179334   3.987   6.064  15.958  1.4262 -0.0437 -1.5579
19281TIP3    H279335   4.064   6.183  16.010  1.3881  0.0287 -1.6679
19282TIP3   OH279336   4.920   1.952  11.235  0.0856 -0.8114 -0.8538
19282TIP3    H179337   4.875   2.022  11.280  3.3935  1.7902 -1.2002
19282TIP3    H279338   4.896   1.963  11.143 -1.7537 -2.1798 -0.6026
19283TIP3   OH279339   4.303   2.933   1.178 -0.0529 -0.2904  0.2931
19283TIP3    H179340   4.284   2.905   1.089 -0.5965  1.5562 -0.1964
19283TIP3    H279341   4.386   2.980   1.171 -0.6404  0.8085  0.5531
19284TIP3   OH279342   1.508   0.786   3.830 -0.3210  0.0815  0.3216
19284TIP3    H179343   1.578   0.729   3.861  0.0006  1.1131  1.5718
19284TIP3    H279344   1.446   0.726   3.788  0.5622 -1.0378  0.5526
19285TIP3   OH279345   5.982   5.195  13.274 -0.3776  0.4067  0.1274
19285TIP3    H179346   6.034   5.253  13.219 -0.1525 -0.3650 -0.4910
19285TIP3    H279347   6.038   5.177  13.350  0.0792 -0.0587 -0.3177
19286TIP3   OH279348   3.577   1.146   6.433  0.0996 -0.2895 -0.0634
19286TIP3    H179349   3.545   1.235   6.415 -0.6980 -0.7254 -0.8760
19286TIP3    H279350   3.503   1.089   6.412  0.4762 -1.1249  0.8280
19287TIP3   OH279351   0.871   3.933  14.693  0.1049  0.4288  0.4803
19287TIP3    H179352   0.798   3.904  14.748 -0.9210  0.8293 -0.6470
19287TIP3    H279353   0.836   3.933  14.604  2.0357 -1.2263 -0.3597
19288TIP3   OH279354   3.155   5.590  16.169 -0.2207 -0.3474 -0.1295
19288TIP3    H179355   3.246   5.606  16.146  0.6008 -1.2634  2.1590
19288TIP3    H279356   3.121   5.536  16.098  1.5253 -1.3736 -0.2487
19289TIP3   OH279357   0.090   4.128   0.276  0.5358  0.1454 -0.5222
19289TIP3    H179358   0.029   4.065   0.315  0.1620 -0.1025 -1.4913
19289TIP3    H279359   0.177   4.094   0.299  0.3468  0.5427  0.9273
19290TIP3   OH279360   0.538   4.695   5.695  0.4100 -0.1181 -0.1967
19290TIP3    H179361   0.464   4.739   5.737 -0.0721 -1.1048  0.0043
19290TIP3    H279362   0.500   4.650   5.620  0.8444 -0.4474 -0.2212
19291TIP3   OH279363   6.265   4.513  13.900 -0.3241 -0.2141  0.0277
19291TIP3    H179364   6.347   4.473  13.927  1.3309  2.8733  0.0300
19291TIP3    H279365   6.253   4.485  13.809  1.4131  0.2299 -0.3727
19292TIP3   OH279366   2.874   2.074   0.138  0.4404 -0.4355 -0.3298
19292TIP3    H179367   2.958   2.120   0.136  0.1891  0.0096 -0.7065
19292TIP3    H279368   2.817   2.129   0.191  0.8433 -1.5512  1.3439
19293TIP3   OH279369   4.141   1.453   2.525 -0.0721  0.0639  0.7024
19293TIP3    H179370   4.093   1.370   2.523 -1.3032  0.7158  1.6325
19293TIP3    H279371   4.144   1.481   2.434  0.5772 -1.1212  0.3480
19294TIP3   OH279372   2.932   4.750   0.749  0.3317 -0.6566  0.1547
19294TIP3    H179373   2.899   4.821   0.693  0.2054  0.2298  1.3059
19294TIP3    H279374   2.887   4.764   0.833  1.7571 -0.9381  0.9910
19295TIP3   OH279375   1.693   1.783   3.087  0.0018 -0.0806  0.1176
19295TIP3    H179376   1.629   1.793   3.158  0.7555 -1.3931  1.0191
19295TIP3    H279377   1.643   1.742   3.016 -0.8535  1.5911 -0.3079
19296TIP3   OH279378   4.172   5.636   3.109 -0.0116  0.1235 -0.8610
19296TIP3    H179379   4.185   5.675   3.023  1.6237  0.8789 -0.3228
19296TIP3    H279380   4.158   5.543   3.092  0.7045  0.2023 -1.9280
19297TIP3   OH279381   1.465   3.756  15.340  0.0249  0.4390  0.2593
19297TIP3    H179382   1.414   3.782  15.416 -3.2553 -1.5000 -1.0735
19297TIP3    H279383   1.498   3.669  15.362  2.5132  1.4497  0.8860
19298TIP3   OH279384   0.629   5.972  11.978 -0.2535  0.2592  0.2907
19298TIP3    H179385   0.635   5.887  11.934 -1.7428 -0.3676  1.1995
19298TIP3    H279386   0.716   6.010  11.970  0.5150 -1.4634  0.0688
19299TIP3   OH279387   5.556   3.279  11.805 -0.1609 -0.3116 -0.0752
19299TIP3    H179388   5.567   3.184  11.796 -0.7302 -0.4431  0.5693
19299TIP3    H279389   5.611   3.315  11.735 -1.4469 -1.1585 -1.5916
19300TIP3   OH279390   2.382   5.598  15.938  0.3832  0.2416  0.2004
19300TIP3    H179391   2.432   5.656  15.881 -0.8780  1.0254 -0.1479
19300TIP3    H279392   2.293   5.598  15.902  0.2532 -1.6557  0.3912
19301TIP3   OH279393   0.675   6.523  16.013  0.4566  0.1335 -0.6812
19301TIP3    H179394   0.656   6.606  15.968 -1.2113 -0.1899 -0.6352
19301TIP3    H279395   0.628   6.457  15.963  0.2944 -0.5306  0.3225
19302TIP3   OH279396   6.327   4.897  13.326  0.2288  0.6344  0.5705
19302TIP3    H179397   6.290   4.893  13.238 -1.0239  1.5246  1.0273
19302TIP3    H279398   6.421   4.880  13.314 -0.1668 -0.8346 -0.7293
19303TIP3   OH279399   5.813   0.360   1.418 -0.2006  0.0507  0.6716
19303TIP3    H179400   5.776   0.281   1.456  0.1260  0.2914  1.5364
19303TIP3    H279401   5.739   0.421   1.412 -0.4715 -0.3427 -0.0853
19304TIP3   OH279402   5.387   3.247  12.148 -0.4852 -0.7774 -0.1404
19304TIP3    H179403   5.461   3.307  12.133  1.1761 -2.8099 -0.4460
19304TIP3    H279404   5.358   3.268  12.236 -0.0127  0.5381 -0.2640
19305TIP3   OH279405   4.404   4.965   3.843 -0.4012  0.1531 -0.2511
19305TIP3    H179406   4.374   5.040   3.791 -0.4862  1.1118  1.1163
19305TIP3    H279407   4.497   4.983   3.858 -0.3601 -0.1584 -0.1369
19306TIP3   OH279408   2.297   2.315   0.946 -0.0977 -0.5296  0.1796
19306TIP3    H179409   2.349   2.322   0.866  0.6716 -0.0842  0.6961
19306TIP3    H279410   2.213   2.354   0.924 -0.2507 -1.3451 -0.7080
19307TIP3   OH279411   0.237   5.465  14.730 -0.3446 -0.3142  0.3717
19307TIP3    H179412   0.315   5.425  14.769  0.1392 -0.5348 -0.7679
19307TIP3    H279413   0.252   5.559  14.737 -0.3244 -0.3521  0.8338
19308TIP3   OH279414   3.177   0.105  12.706 -0.9215 -0.3975  0.0177
19308TIP3    H179415   3.186   0.133  12.798 -0.5701 -1.9082  0.4708
19308TIP3    H279416   3.141   0.017  12.712  0.9802 -1.3132 -1.2082
19309TIP3   OH279417   4.106   1.664   0.533 -0.1447 -0.3235  0.6933
19309TIP3    H179418   4.085   1.699   0.620  1.6366  0.5193  0.8137
19309TIP3    H279419   4.025   1.676   0.483  0.1431  3.4913  0.8911
19310TIP3   OH279420   2.728   6.550  13.769 -0.4065 -0.0171 -0.0940
19310TIP3    H179421   2.758   6.482  13.829 -1.6774 -1.2103 -0.7624
19310TIP3    H279422   2.739   6.632  13.818  0.3424 -0.7732  1.0416
19311TIP3   OH279423   6.348   5.982   0.329 -0.1362  0.3088  0.3896
19311TIP3    H179424   6.408   5.909   0.344  0.1500  0.9018  2.5043
19311TIP3    H279425   6.405   6.055   0.305 -0.4369 -0.1345 -1.9155
19312TIP3   OH279426   3.226   0.692  14.127  0.2723 -0.1183 -0.2410
19312TIP3    H179427   3.223   0.712  14.033  2.2983 -0.2022 -0.3659
19312TIP3    H279428   3.299   0.631  14.136 -1.2790 -1.9007  1.1112
19313TIP3   OH279429   2.835   5.793   0.425  0.5599 -0.5153 -0.1551
19313TIP3    H179430   2.930   5.781   0.420  0.5405 -0.2790 -2.0312
19313TIP3    H279431   2.798   5.712   0.391  0.1509 -0.0635 -0.8321
19314TIP3   OH279432   4.715   4.672  10.678 -0.3006 -0.1067  0.3853
19314TIP3    H179433   4.671   4.756  10.663 -2.3671 -0.9479  1.4288
19314TIP3    H279434   4.705   4.656  10.771 -0.2895 -1.7159  0.1266
19315TIP3   OH279435   3.215   5.965   6.538  0.2219  0.3019  0.4946
19315TIP3    H179436   3.189   5.946   6.628  0.1401  0.7553  0.5675
19315TIP3    H279437   3.206   6.060   6.530 -2.2451  0.0356 -0.7441
19316TIP3   OH279438   4.809   0.219   5.684 -0.3986 -0.4900 -0.1017
19316TIP3    H179439   4.745   0.233   5.614 -1.2274  1.5607  0.9986
19316TIP3    H279440   4.883   0.275   5.660  0.6336 -2.0564 -0.8168
19317TIP3   OH279441   2.059   4.462   3.110  0.3640  0.4135  0.0197
19317TIP3    H179442   1.965   4.445   3.120  0.7795 -0.9585  2.6616
19317TIP3    H279443   2.067   4.500   3.023 -2.7165  1.2486 -0.0466
19318TIP3   OH279444   5.735   0.246  14.763  0.2754 -0.9420 -0.0442
19318TIP3    H179445   5.660   0.215  14.814 -0.3282 -2.1407 -1.5728
19318TIP3    H279446   5.696   0.295  14.691  1.0401 -0.3246 -0.0453
19319TIP3   OH279447   0.859   2.936  15.323 -0.2636  0.2388 -0.2891
19319TIP3    H179448   0.924   2.872  15.294  0.2148  0.5999 -0.0130
19319TIP3    H279449   0.834   2.983  15.243  1.0452  1.2228 -0.1457
19320TIP3   OH279450   2.659   2.770   5.722  0.8395 -0.0348  0.1553
19320TIP3    H179451   2.568   2.757   5.696  1.1483  0.0283 -1.0011
19320TIP3    H279452   2.676   2.699   5.784 -0.9307  1.7866  2.9926
19321TIP3   OH279453   2.835   1.885   6.018 -0.3058  0.0791  0.1447
19321TIP3    H179454   2.776   1.921   5.951 -0.5433 -3.2732 -1.6304
19321TIP3    H279455   2.910   1.945   6.018 -1.4181  1.5691 -1.2754
19322TIP3   OH279456   1.621   5.831   5.468 -0.2063 -0.3642 -0.4637
19322TIP3    H179457   1.584   5.755   5.513  0.4656 -0.2349  0.3165
19322TIP3    H279458   1.581   5.906   5.512  0.1975 -0.2435 -0.2993
19323TIP3   OH279459   6.480   2.752   5.298  0.6564 -0.3887 -0.0942
19323TIP3    H179460   6.544   2.700   5.249  1.6295  0.5591  0.1302
19323TIP3    H279461   6.505   2.843   5.282  0.5537 -0.0422  1.5548
19324TIP3   OH279462   4.598   6.815   0.233 -0.6100 -0.0583 -0.0970
19324TIP3    H179463   4.550   6.743   0.271 -1.3062  0.7977  0.6824
19324TIP3    H279464   4.652   6.775   0.164  1.5288 -1.8470  2.4148
19325TIP3   OH279465   1.478   1.166   2.603  0.1856 -0.1293  0.2895
19325TIP3    H179466   1.540   1.176   2.530  0.4799 -0.3137  0.5108
19325TIP3    H279467   1.531   1.131   2.675 -0.0333  0.3654  0.6964
19326TIP3   OH279468   2.331   3.271   0.920 -0.5379  0.4356 -0.4276
19326TIP3    H179469   2.389   3.346   0.910  0.3735 -0.3739 -1.4134
19326TIP3    H279470   2.389   3.197   0.936 -1.2298 -0.4856 -1.9295
19327TIP3   OH279471   0.176   3.821   5.685  0.0762 -0.3241 -0.0007
19327TIP3    H179472   0.186   3.756   5.615  0.5443  1.5818 -1.8179
19327TIP3    H279473   0.263   3.860   5.693 -0.2059  0.1161  1.0166
19328TIP3   OH279474   5.227   5.407   1.047 -0.5563  0.3448  0.6280
19328TIP3    H179475   5.201   5.480   0.990  0.4761  0.6471  0.5277
19328TIP3    H279476   5.292   5.445   1.106  2.0661 -1.0253 -1.1545
19329TIP3   OH279477   0.609   6.490  12.352  0.1670  0.3965  0.3202
19329TIP3    H179478   0.563   6.518  12.431  1.8925  2.8969  0.5413
19329TIP3    H279479   0.572   6.543  12.282 -1.2767 -1.7307 -0.6466
19330TIP3   OH279480   1.459   4.221  17.259 -0.0980 -0.2875  0.0740
19330TIP3    H179481   1.398   4.235  17.187  0.1010 -2.1115 -0.4955
19330TIP3    H279482   1.527   4.164  17.223 -0.1629 -1.5068  1.7548
19331TIP3   OH279483   1.504   5.135   5.366 -0.1561  0.6585 -0.1721
19331TIP3    H179484   1.414   5.116   5.340  0.2266 -2.1236  0.2492
19331TIP3    H279485   1.555   5.121   5.287  0.1615 -0.2731  0.1861
19332TIP3   OH279486   2.042   0.079  15.070 -0.4114 -0.4524 -0.4136
19332TIP3    H179487   2.020  -0.014  15.064 -1.1790 -0.5445  2.2279
19332TIP3    H279488   1.965   0.119  15.111  0.8071  0.9009  0.6527
19333TIP3   OH279489   3.364   6.255  15.540  0.2179 -0.3272 -0.2369
19333TIP3    H179490   3.391   6.191  15.474  0.8680 -1.1967  0.8183
19333TIP3    H279491   3.439   6.261  15.599 -1.1328 -1.3744  1.7294
19334TIP3   OH279492   0.978   6.715   5.201  0.2674 -0.7875 -0.2157
19334TIP3    H179493   0.921   6.751   5.133  2.3567 -1.6552 -2.5761
19334TIP3    H279494   1.058   6.767   5.194  0.5608 -0.9339  1.6183
19335TIP3   OH279495   3.611   0.210  14.004  0.6936  0.9500 -0.0715
19335TIP3    H179496   3.689   0.202  14.059  1.6610  1.1980 -1.3548
19335TIP3    H279497   3.541   0.232  14.065  1.1082 -1.5821  1.4748
19336TIP3   OH279498   6.660   2.848   4.877  0.0736 -0.3236  0.4404
19336TIP3    H179499   6.737   2.792   4.871  0.4178 -0.1577  2.4473
19336TIP3    H279500   6.586   2.789   4.863  0.5122 -0.8545  0.3617
19337TIP3   OH279501   5.359   5.609   0.396 -0.2818  0.3289 -1.0014
19337TIP3    H179502   5.349   5.686   0.340  2.4874 -0.0725 -2.2010
19337TIP3    H279503   5.277   5.562   0.386 -2.1413  3.0920 -0.1313
19338TIP3   OH279504   3.064   0.300   3.400  0.2461 -0.4166 -0.4384
19338TIP3    H179505   3.093   0.386   3.370  0.3945 -0.1501  0.4363
19338TIP3    H279506   3.142   0.261   3.438  0.0448 -0.7154 -0.3304
19339TIP3   OH279507   2.152   6.360  12.313 -0.7854  0.3887  0.2634
19339TIP3    H179508   2.132   6.281  12.263 -2.5716  1.4646 -0.7979
19339TIP3    H279509   2.074   6.377  12.365 -0.0642  0.9547  1.2011
19340TIP3   OH279510   3.140   2.824  11.704 -0.0100 -0.1382  0.3493
19340TIP3    H179511   3.060   2.825  11.652 -0.9614  0.3087  1.7720
19340TIP3    H279512   3.202   2.772  11.652 -1.0729 -0.1543 -0.9572
19341TIP3   OH279513   1.326   0.260  11.762  0.0503  0.2804 -0.3585
19341TIP3    H179514   1.248   0.312  11.739 -0.8210 -0.8959 -0.1918
19341TIP3    H279515   1.305   0.171  11.730  1.1933 -0.1279 -0.0121
19342TIP3   OH279516   0.844   5.745  11.687  0.1708  0.6845 -0.4320
19342TIP3    H179517   0.877   5.656  11.690 -0.5754  0.4015  2.8966
19342TIP3    H279518   0.913   5.795  11.642  2.5916 -0.8395  1.3794
19343TIP3   OH279519   1.329   0.424  13.474  0.6678 -0.0499  0.3256
19343TIP3    H179520   1.260   0.375  13.519 -0.0339 -0.0431 -0.6873
19343TIP3    H279521   1.411   0.387  13.506  0.2433  0.7253  2.4368
19344TIP3   OH279522   0.482   3.235   3.659 -0.3733  0.3161  0.7161
19344TIP3    H179523   0.406   3.268   3.706 -2.6155  0.4020 -2.6502
19344TIP3    H279524   0.446   3.197   3.578  3.2217  1.9261 -1.9268
19345TIP3   OH279525   4.152   1.292   3.611  0.7076 -0.2238  0.3108
19345TIP3    H179526   4.182   1.201   3.601  0.4756 -0.1529 -1.2233
19345TIP3    H279527   4.103   1.310   3.531  1.8387  1.6900  0.0033
19346TIP3   OH279528   2.333   2.908   0.709  0.1518  0.2868  0.4233
19346TIP3    H179529   2.412   2.888   0.759 -0.4925  0.4407  1.5297
19346TIP3    H279530   2.324   2.834   0.649  1.5785  0.6713 -0.3006
19347TIP3   OH279531   4.691   4.566  12.286  0.1825  0.7082  0.2132
19347TIP3    H179532   4.624   4.630  12.309 -0.1005  0.4441  0.1209
19347TIP3    H279533   4.658   4.483  12.318  0.0729  0.4381 -0.5749
19348TIP3   OH279534   2.580   1.483   0.722 -0.1679  0.1773  0.1480
19348TIP3    H179535   2.611   1.393   0.725 -0.3880  0.0554 -0.8406
19348TIP3    H279536   2.495   1.481   0.766 -0.2315 -0.1293  0.0158
19349TIP3   OH279537   6.350   1.863   5.400  0.3560 -0.3852 -0.9654
19349TIP3    H179538   6.360   1.794   5.465 -0.7973  0.3037 -0.0159
19349TIP3    H279539   6.434   1.910   5.402  0.2871 -0.2756  0.1548
19350TIP3   OH279540   3.361   5.433  14.386  0.1909  0.2950 -0.0480
19350TIP3    H179541   3.425   5.378  14.432 -0.3382 -0.3175 -0.0318
19350TIP3    H279542   3.364   5.402  14.296  0.2606  0.5952 -0.1502
19351TIP3   OH279543   1.593   0.418  16.365  0.0017  0.1575 -0.1579
19351TIP3    H179544   1.522   0.411  16.429  0.8573  1.2831  0.9821
19351TIP3    H279545   1.600   0.330  16.327 -0.5757 -0.5449  1.2724
19352TIP3   OH279546   2.770   5.035   3.627  0.1054 -0.0758 -0.1294
19352TIP3    H179547   2.791   4.942   3.630  2.9191  0.4074 -1.3477
19352TIP3    H279548   2.716   5.046   3.548 -0.3156 -0.6629  0.0745
19353TIP3   OH279549   0.847   2.050  15.718  0.1027 -0.4502  0.5376
19353TIP3    H179550   0.752   2.062  15.709  0.2560  0.5001  0.0555
19353TIP3    H279551   0.883   2.078  15.634  0.7962 -1.0463  0.6265
19354TIP3   OH279552   0.254   2.565   3.226  0.2281  0.3007  0.0007
19354TIP3    H179553   0.222   2.542   3.139  4.5131  1.8331 -2.2730
19354TIP3    H279554   0.311   2.492   3.251  1.8527  1.4499 -0.2216
19355TIP3   OH279555   3.603   5.484   0.547  0.4772 -0.2636 -0.0033
19355TIP3    H179556   3.605   5.390   0.564 -1.7674 -0.6469 -1.4109
19355TIP3    H279557   3.654   5.496   0.468  1.4138 -0.1536  0.6028
19356TIP3   OH279558   3.869   0.632  15.347 -0.0404 -0.2387 -0.0911
19356TIP3    H179559   3.821   0.714  15.358 -1.5304 -0.9674 -0.9096
19356TIP3    H279560   3.920   0.644  15.267 -0.3450 -0.1649 -0.2730
19357TIP3   OH279561   5.101   3.533   1.652  0.1566 -0.4370 -0.0486
19357TIP3    H179562   5.111   3.592   1.578  2.3553 -1.7103 -0.8760
19357TIP3    H279563   5.052   3.459   1.617 -1.4646  0.2691  0.6390
19358TIP3   OH279564   1.657   5.973  11.270  0.1686 -0.2819 -0.0632
19358TIP3    H179565   1.669   5.909  11.199  2.8434 -0.0477  0.0938
19358TIP3    H279566   1.562   5.973  11.285 -0.3223 -1.4975 -2.5412
19359TIP3   OH279567   0.766   6.610   1.617 -0.6864 -0.1665 -0.5610
19359TIP3    H179568   0.738   6.618   1.707  0.6768 -0.0606 -0.1162
19359TIP3    H279569   0.719   6.534   1.583 -3.6832  1.6464 -0.8002
19360TIP3   OH279570   2.679   2.371  15.534  0.0107  0.4447 -0.0523
19360TIP3    H179571   2.719   2.294  15.494  1.0201  0.3480  1.0712
19360TIP3    H279572   2.604   2.391  15.478  0.7722 -0.2682 -1.3854
19361TIP3   OH279573   2.574   0.489  13.465 -0.0410  0.3416 -0.5038
19361TIP3    H179574   2.496   0.543  13.460  0.1926  0.8269  0.7621
19361TIP3    H279575   2.542   0.403  13.494 -0.3645 -0.1536 -2.1784
19362TIP3   OH279576   4.430   1.859   6.395  0.6021 -0.4884 -0.2151
19362TIP3    H179577   4.471   1.922   6.455 -0.8450 -1.4446  1.9162
19362TIP3    H279578   4.345   1.897   6.376  0.7955 -0.5182 -1.1645
19363TIP3   OH279579   6.042   3.544   1.047 -0.7008  0.2015 -0.1894
19363TIP3    H179580   6.065   3.452   1.038  0.1107  0.4388 -0.6663
19363TIP3    H279581   6.122   3.591   1.021 -1.1603  1.0351 -0.1204
19364TIP3   OH279582   0.286   2.844   4.911 -0.2737 -0.1841 -0.0317
19364TIP3    H179583   0.311   2.936   4.910 -1.4603  0.2901  3.0955
19364TIP3    H279584   0.365   2.799   4.942 -0.5799  0.2079  1.3811
19365TIP3   OH279585   4.176   4.929  16.269  0.1359 -0.0141 -0.1158
19365TIP3    H179586   4.091   4.886  16.281  0.3327 -0.2727  0.4123
19365TIP3    H279587   4.239   4.857  16.267  0.4530  0.2265  0.6349
19366TIP3   OH279588   6.411   5.761   3.516 -0.1481 -0.0545 -0.8772
19366TIP3    H179589   6.456   5.815   3.580 -0.2579 -0.9111 -0.0708
19366TIP3    H279590   6.471   5.689   3.498 -0.1013  0.1917 -1.7749
19367TIP3   OH279591   1.076   3.186  16.074 -0.0559  0.5454 -0.3415
19367TIP3    H179592   1.064   3.169  15.980  0.9417  0.4612 -0.4623
19367TIP3    H279593   1.000   3.239  16.098 -1.4485 -1.1804 -0.7248
19368TIP3   OH279594   4.683   2.268   5.108  0.3965  0.4267  0.2813
19368TIP3    H179595   4.663   2.209   5.035 -1.8990  0.4046  0.8328
19368TIP3    H279596   4.616   2.248   5.174  3.3965 -0.8035  3.2194
19369TIP3   OH279597   2.948   5.446  15.711  0.2757 -0.3119  0.2481
19369TIP3    H179598   2.869   5.396  15.731 -0.9442  1.1950 -0.6043
19369TIP3    H279599   2.968   5.424  15.620 -0.8970  1.4714 -0.4932
19370TIP3   OH279600   1.015   0.568   4.799 -0.3385  0.9653  0.0596
19370TIP3    H179601   1.040   0.579   4.707  0.0118  1.2803  0.1885
19370TIP3    H279602   0.927   0.530   4.796  0.8072 -1.9219 -0.4284
19371TIP3   OH279603   5.971   4.343  12.502 -0.0786 -0.3736 -0.2963
19371TIP3    H179604   5.949   4.402  12.574 -0.1993  1.1244 -1.5043
19371TIP3    H279605   6.050   4.298  12.530  1.7318  2.4878 -0.4463
19372TIP3   OH279606   3.484   0.775   5.741 -0.6099  0.1878 -0.0564
19372TIP3    H179607   3.554   0.750   5.801 -0.4713  0.1857 -0.2186
19372TIP3    H279608   3.404   0.765   5.792 -0.5931 -0.9729 -0.2347
19373TIP3   OH279609   0.656   6.816  15.608  0.3231 -0.0594 -0.2590
19373TIP3    H179610   0.564   6.830  15.587  0.2857  0.5633  0.3041
19373TIP3    H279611   0.701   6.818  15.523 -0.2852 -1.2612 -0.6266
19374TIP3   OH279612   6.512   1.167  16.104 -0.0024  1.0460  0.3724
19374TIP3    H179613   6.518   1.218  16.023 -0.9877  1.5165  0.5894
19374TIP3    H279614   6.521   1.076  16.076 -1.8499  1.0912 -0.4724
19375TIP3   OH279615   0.071   5.153  12.797 -0.7874  0.1368  0.6333
19375TIP3    H179616   0.135   5.132  12.729 -1.3762  1.0069 -0.2306
19375TIP3    H279617   0.058   5.072  12.845 -0.1555 -0.4302 -0.1338
19376TIP3   OH279618   1.802   1.744   0.010 -0.2055  0.0915  0.1260
19376TIP3    H179619   1.749   1.687  -0.046  1.2604 -0.3825 -0.8391
19376TIP3    H279620   1.776   1.720   0.099 -0.7570 -0.9645 -0.2933
19377TIP3   OH279621   6.044   2.949  16.237  0.1249  0.1575  0.1506
19377TIP3    H179622   6.073   2.989  16.154 -0.7653 -0.5924 -0.5436
19377TIP3    H279623   6.125   2.929  16.283  0.6448  0.5067 -0.5855
19378TIP3   OH279624   1.049   0.153   3.442  0.2131  0.6074  0.3427
19378TIP3    H179625   1.059   0.247   3.428 -0.4176  0.7108  0.5466
19378TIP3    H279626   1.039   0.145   3.537 -2.0995  0.5895  0.1580
19379TIP3   OH279627   2.007   1.115  15.620 -0.1832 -0.1204 -0.2454
19379TIP3    H179628   2.059   1.042  15.655  0.6985  0.5858 -0.0290
19379TIP3    H279629   2.040   1.127  15.531 -0.7074 -0.3320 -0.4700
19380TIP3   OH279630   4.063   3.466   0.298  0.6584  0.7385 -0.0547
19380TIP3    H179631   4.029   3.492   0.383 -1.5488  0.5511 -0.8056
19380TIP3    H279632   4.140   3.412   0.318  0.6819  1.3867  1.7596
19381TIP3   OH279633   4.780   5.623  14.731 -0.3053 -0.3082 -0.4423
19381TIP3    H179634   4.836   5.613  14.654 -1.5735 -0.4280 -1.3647
19381TIP3    H279635   4.707   5.678  14.702 -0.7163 -0.2027  0.7211
19382TIP3   OH279636   0.195   4.036  15.769  0.4440 -0.3733  0.1069
19382TIP3    H179637   0.132   3.964  15.775  0.7877 -0.9522 -2.3400
19382TIP3    H279638   0.150   4.104  15.718  1.5363 -0.5604 -1.1764
19383TIP3   OH279639   3.931   1.361   4.646  0.1371  1.1200 -0.0576
19383TIP3    H179640   3.948   1.269   4.668 -1.5174  0.9860  0.8607
19383TIP3    H279641   4.016   1.404   4.656  0.4662  0.1391  2.0167
19384TIP3   OH279642   2.856   4.983  11.931  0.2561  0.3375  0.8426
19384TIP3    H179643   2.942   5.025  11.918  1.3869 -2.3141 -1.2407
19384TIP3    H279644   2.794   5.056  11.933  2.3919  2.2741  0.8787
19385TIP3   OH279645   6.249   5.969   1.149 -0.2514 -0.3038  0.4501
19385TIP3    H179646   6.268   6.042   1.090 -0.1308 -1.9285 -1.6948
19385TIP3    H279647   6.154   5.961   1.148 -0.2012 -0.9948 -0.4671
19386TIP3   OH279648   5.565   2.063  12.662 -0.2627 -0.1896 -0.2548
19386TIP3    H179649   5.530   2.151  12.675  1.2647  0.5634 -1.0429
19386TIP3    H279650   5.546   2.043  12.570  0.3297 -0.2308 -0.3745
19387TIP3   OH279651   4.603   1.850  15.550 -0.0872  0.2595  0.2844
19387TIP3    H179652   4.604   1.946  15.555  0.5849  0.3719 -1.3618
19387TIP3    H279653   4.510   1.829  15.535 -0.1035  0.7270 -0.3170
19388TIP3   OH279654   4.862   6.149   2.825 -0.6966  0.0300 -0.0372
19388TIP3    H179655   4.919   6.086   2.870  1.1732  0.9323 -1.0199
19388TIP3    H279656   4.835   6.103   2.746 -1.1129 -0.2935  0.2857
19389TIP3   OH279657   3.816   5.757   1.007 -0.4468 -0.1743  0.0900
19389TIP3    H179658   3.737   5.776   1.057 -1.3202  0.4036 -1.4387
19389TIP3    H279659   3.794   5.781   0.917  1.3376 -0.3889 -0.4483
19390TIP3   OH279660   1.815   4.087   6.308  0.4312 -0.1716 -0.2770
19390TIP3    H179661   1.899   4.086   6.355  0.7229  0.7225 -0.7618
19390TIP3    H279662   1.770   4.165   6.340  0.0097 -0.3482 -0.4269
19391TIP3   OH279663   5.349   6.176  16.440 -0.0648 -0.3117  0.0213
19391TIP3    H179664   5.420   6.233  16.410  1.5239 -1.3351  1.6170
19391TIP3    H279665   5.272   6.205  16.391  0.8105  2.6910  0.2417
19392TIP3   OH279666   1.442   0.357   4.112 -0.0117 -0.1707 -0.6250
19392TIP3    H179667   1.520   0.411   4.095  1.4531 -1.8899  0.2254
19392TIP3    H279668   1.452   0.330   4.203 -1.9722  0.0679 -0.3042
19393TIP3   OH279669   5.258   3.535   5.522 -0.2393 -0.2710 -0.0103
19393TIP3    H179670   5.235   3.448   5.489  1.4995 -0.3108 -1.2695
19393TIP3    H279671   5.239   3.594   5.449  1.5890 -0.0568 -0.3664
19394TIP3   OH279672   2.298   1.596  14.305 -0.3838 -0.5180  0.0467
19394TIP3    H179673   2.280   1.509  14.340 -0.9873 -1.1931 -1.7735
19394TIP3    H279674   2.382   1.621  14.342 -1.1359 -0.9738  2.1929
19395TIP3   OH279675   0.527   1.924  14.314  0.5633  0.1564 -0.1615
19395TIP3    H179676   0.513   1.961  14.401 -2.0301  0.0889 -0.4658
19395TIP3    H279677   0.490   1.988  14.254 -0.0048 -0.9334 -1.0097
19396TIP3   OH279678   6.074   1.559  12.425  0.0216  0.4422  0.6051
19396TIP3    H179679   6.023   1.579  12.346 -1.4752 -0.5297  1.2738
19396TIP3    H279680   6.021   1.595  12.497 -0.0639 -1.1200  1.3705
19397TIP3   OH279681   4.074   4.951   2.966 -0.3409  0.0501 -0.8761
19397TIP3    H179682   4.160   4.991   2.980  0.3169 -1.5669  0.0011
19397TIP3    H279683   4.024   5.017   2.918  0.0067  2.7503  2.1369
19398TIP3   OH279684   5.228   3.794   0.407  0.0534 -0.6180 -0.7570
19398TIP3    H179685   5.156   3.731   0.413  1.1175 -1.7811  0.5472
19398TIP3    H279686   5.267   3.778   0.321 -0.5469 -0.7563 -1.0082
19399TIP3   OH279687   4.734   3.785  11.955 -0.3843  0.0893 -0.4107
19399TIP3    H179688   4.813   3.794  11.902  1.2348 -1.4210  1.5985
19399TIP3    H279689   4.752   3.836  12.034 -1.1003 -0.8148  0.3672
19400TIP3   OH279690   5.096   2.842  11.775  0.5116  0.0923  0.0514
19400TIP3    H179691   5.065   2.921  11.820 -0.8683  0.5121 -1.5576
19400TIP3    H279692   5.132   2.874  11.693  4.3803 -0.4950  1.2968
19401TIP3   OH279693   6.141   5.174  10.730  0.0149  0.0008  0.1109
19401TIP3    H179694   6.060   5.124  10.725  0.0758 -0.1668  0.7634
19401TIP3    H279695   6.204   5.122  10.680 -0.4760  0.5383 -1.0962
19402TIP3   OH279696   0.921   5.245   2.395  0.4543  0.0739  0.3142
19402TIP3    H179697   0.845   5.268   2.447  0.7405 -0.1208  0.8267
19402TIP3    H279698   0.992   5.300   2.431  0.3672  0.9180 -0.7439
19403TIP3   OH279699   6.525   1.869  12.976 -0.0884 -0.6960  0.2711
19403TIP3    H179700   6.452   1.840  12.920 -1.3184 -0.8958  1.8919
19403TIP3    H279701   6.580   1.791  12.986 -0.3794 -0.9239  0.1088
19404TIP3   OH279702   0.821   2.067   6.366  0.1270  0.2176  0.3292
19404TIP3    H179703   0.726   2.056   6.376  0.3459 -1.3758  0.8872
19404TIP3    H279704   0.843   2.014   6.290  0.7675 -0.7052  1.1303
19405TIP3   OH279705   1.556   5.379  12.585  0.3717  0.4693 -0.0709
19405TIP3    H179706   1.560   5.367  12.491 -1.2789  0.8266 -0.2261
19405TIP3    H279707   1.575   5.293  12.621 -1.6426 -0.3773 -0.8576
19406TIP3   OH279708   0.192   0.368   2.306  0.0320  0.7335  0.2246
19406TIP3    H179709   0.154   0.325   2.230  2.1375  1.1498 -1.1635
19406TIP3    H279710   0.262   0.309   2.334 -0.6715  0.6229  1.8303
19407TIP3   OH279711   4.400   2.010  15.748  0.1416  0.8557 -0.4236
19407TIP3    H179712   4.488   1.983  15.772  0.2460  0.8352 -0.8276
19407TIP3    H279713   4.349   1.928  15.747  0.2046  0.8187 -0.5654
19408TIP3   OH279714   2.337   2.571   6.691 -0.5612 -0.0511 -0.3129
19408TIP3    H179715   2.426   2.552   6.720 -0.5647 -0.8446 -0.7835
19408TIP3    H279716   2.331   2.666   6.690 -0.2696  0.0081  1.3780
19409TIP3   OH279717   6.475   2.419  12.425  0.0483 -0.5059  0.0116
19409TIP3    H179718   6.424   2.415  12.344  0.9407  0.1869 -0.5930
19409TIP3    H279719   6.429   2.483  12.479  0.4098  0.2943 -0.6259
19410TIP3   OH279720   2.900   6.602  12.836  0.0011  0.2607 -0.4113
19410TIP3    H179721   2.807   6.623  12.842 -0.1958 -0.2317 -1.4727
19410TIP3    H279722   2.902   6.516  12.794  0.9602  0.6339 -1.1628
19411TIP3   OH279723   4.013   2.906   5.962 -0.3338  0.0888  0.3925
19411TIP3    H179724   3.918   2.920   5.953 -0.7295 -1.2175  2.1266
19411TIP3    H279725   4.025   2.876   6.052  1.8180  0.7373  0.3754
19412TIP3   OH279726   5.406   3.090  12.723  0.1322 -0.2435 -0.0108
19412TIP3    H179727   5.469   3.147  12.678 -1.0133  1.0530 -0.0682
19412TIP3    H279728   5.428   3.099  12.816  1.2502 -1.3652 -0.1416
19413TIP3   OH279729   6.363   0.102  16.286  0.5840  0.3891  0.2247
19413TIP3    H179730   6.287   0.159  16.297 -0.6199 -1.1614  0.1362
19413TIP3    H279731   6.427   0.158  16.240 -0.3577  1.8123  0.5628
19414TIP3   OH279732   2.137   2.593   2.776 -0.3759  0.3054 -0.1934
19414TIP3    H179733   2.169   2.514   2.818  1.1427  2.2490  2.6442
19414TIP3    H279734   2.199   2.611   2.705  0.4772  0.0438  0.4827
19415TIP3   OH279735   4.523   2.786  14.670 -0.1684 -0.0713  0.3376
19415TIP3    H179736   4.481   2.737  14.599 -1.1178 -0.3374  1.0559
19415TIP3    H279737   4.611   2.804  14.638  0.3889 -2.6221  0.2006
19416TIP3   OH279738   1.624   3.486  17.036 -0.3171 -0.7995  0.1169
19416TIP3    H179739   1.703   3.484  16.982 -0.9487 -0.0053 -0.8857
19416TIP3    H279740   1.552   3.479  16.973 -1.0641 -0.6602  0.9353
19417TIP3   OH279741   5.204   1.456  16.732 -0.2320  0.1507 -0.1527
19417TIP3    H179742   5.215   1.507  16.812 -0.4522  1.0380 -0.6651
19417TIP3    H279743   5.179   1.521  16.666 -0.8929 -0.6848 -0.7450
19418TIP3   OH279744   2.212   0.908   2.910  0.2861  0.3689 -0.7283
19418TIP3    H179745   2.133   0.936   2.862 -0.3008 -2.5708 -1.7020
19418TIP3    H279746   2.219   0.969   2.983 -2.0709  1.5848 -1.4187
19419TIP3   OH279747   5.562   6.027   0.755 -0.1779  0.4952  0.1289
19419TIP3    H179748   5.600   5.983   0.678 -1.2654 -1.0797  0.4504
19419TIP3    H279749   5.575   5.964   0.827 -2.9766  0.0492  0.3353
19420TIP3   OH279750   0.412   3.691   1.660  0.7333  0.1129 -0.5208
19420TIP3    H179751   0.494   3.648   1.634 -1.2235 -3.6913 -1.0979
19420TIP3    H279752   0.391   3.652   1.745 -1.0456  0.0377 -0.9625
19421TIP3   OH279753   4.034   1.701  11.550  0.0167 -0.5132 -0.1491
19421TIP3    H179754   4.095   1.657  11.491  0.8957  0.8497 -0.3030
19421TIP3    H279755   4.089   1.760  11.602 -1.0702  0.1601  0.2812
19422TIP3   OH279756   4.795   0.790  14.960  0.0122 -0.3883  0.3124
19422TIP3    H179757   4.729   0.728  14.991  0.3870 -1.7413 -1.4035
19422TIP3    H279758   4.771   0.807  14.869 -1.5249  4.0645  1.2965
19423TIP3   OH279759   2.193   4.233  13.463 -0.9322  0.1934 -0.2100
19423TIP3    H179760   2.228   4.170  13.401  0.0542  2.3097 -1.9131
19423TIP3    H279761   2.224   4.203  13.548 -0.3327 -1.4684 -0.9789
19424TIP3   OH279762   1.497   6.265  16.358 -0.2233 -0.3761  0.2102
19424TIP3    H179763   1.402   6.274  16.364 -0.5624 -1.9627 -1.6374
19424TIP3    H279764   1.525   6.338  16.302 -0.6209 -0.9488 -0.7509
19425TIP3   OH279765   4.546   6.110   1.198 -0.3349  0.6896  0.1577
19425TIP3    H179766   4.535   6.042   1.132  0.8434  0.2681  0.3808
19425TIP3    H279767   4.459   6.149   1.207 -0.8471 -0.2709 -0.5204
19426TIP3   OH279768   6.748   5.186   1.275 -0.2832  0.1862 -0.2182
19426TIP3    H179769   6.795   5.191   1.359 -0.0563 -1.9932 -0.1571
19426TIP3    H279770   6.671   5.133   1.294  0.1654 -1.0007 -1.5257
19427TIP3   OH279771   2.306   0.564  12.314 -0.2117  0.4385  0.6877
19427TIP3    H179772   2.228   0.510  12.322  0.6054 -0.6998  1.3544
19427TIP3    H279773   2.280   0.637  12.258 -1.2381 -0.8893 -0.6334
19428TIP3   OH279774   3.120   5.955   1.815  0.2470 -0.2533 -0.0433
19428TIP3    H179775   3.037   5.922   1.781  0.3119 -0.3101 -0.1468
19428TIP3    H279776   3.166   5.989   1.738  0.3585 -0.3040  0.0013
19429TIP3   OH279777   0.654   1.604   3.685  0.1131  0.4285 -0.4510
19429TIP3    H179778   0.738   1.625   3.727 -0.3657 -1.2263  1.4864
19429TIP3    H279779   0.672   1.611   3.591  3.1812 -2.2986 -0.2397
19430TIP3   OH279780   1.715   5.716  14.414  0.5709 -0.2027  0.5833
19430TIP3    H179781   1.682   5.768  14.340  0.2494  0.7076  1.3336
19430TIP3    H279782   1.644   5.720  14.479  0.0754 -2.5030  0.2770
19431TIP3   OH279783   6.452   2.032   3.343 -0.3950 -0.0063 -0.5510
19431TIP3    H179784   6.472   1.942   3.367  0.5510  0.1427 -0.7552
19431TIP3    H279785   6.395   2.064   3.413 -1.0710 -0.8801 -0.6861
19432TIP3   OH279786   6.061   4.849  16.927 -0.0133 -0.0938 -0.2292
19432TIP3    H179787   6.054   4.795  16.849  1.0864  1.5551 -1.5443
19432TIP3    H279788   6.154   4.871  16.933 -0.0024 -0.4302  1.7635
19433TIP3   OH279789   2.520   5.158   2.763 -0.3862  0.0147  0.1007
19433TIP3    H179790   2.610   5.174   2.734 -0.7028 -2.2330 -2.4573
19433TIP3    H279791   2.466   5.205   2.699 -1.0864  0.2505  0.8484
19434TIP3   OH279792   6.354   5.317   2.701 -0.0363 -0.4043  0.0305
19434TIP3    H179793   6.444   5.316   2.667  0.3573 -0.7691  1.0510
19434TIP3    H279794   6.320   5.230   2.680  0.8654 -1.3434  2.2080
19435TIP3   OH279795   1.137   5.806  16.841  0.3076 -0.0437  0.2027
19435TIP3    H179796   1.224   5.779  16.871  1.4424  2.6351 -0.3888
19435TIP3    H279797   1.133   5.777  16.750  0.2149 -0.9166  0.4761
19436TIP3   OH279798   3.190   1.604   0.373  0.2404 -0.5528 -0.0785
19436TIP3    H179799   3.231   1.543   0.311  0.8808  1.3110 -1.6022
19436TIP3    H279800   3.264   1.642   0.421  0.2492  1.4393 -1.5255
19437TIP3   OH279801   4.584   4.211  13.563 -0.2843  0.8933 -0.2152
19437TIP3    H179802   4.600   4.117  13.576  2.0177  1.0567 -1.4493
19437TIP3    H279803   4.614   4.228  13.474  0.1031  2.9653  0.2693
19438TIP3   OH279804   1.302   6.515   1.634 -0.1095  0.3711 -0.2771
19438TIP3    H179805   1.386   6.505   1.588 -0.0082  1.7547 -0.4553
19438TIP3    H279806   1.270   6.426   1.646  1.2929 -0.1789 -0.3860
19439TIP3   OH279807   5.628   3.269   5.278  0.3314 -0.3139 -0.1032
19439TIP3    H179808   5.558   3.229   5.330 -0.2702 -0.0016 -0.6552
19439TIP3    H279809   5.658   3.199   5.219  0.3697 -0.4010  0.0205
19440TIP3   OH279810   5.835   4.646  12.341 -0.1869 -0.5119  0.6842
19440TIP3    H179811   5.868   4.677  12.426 -0.4934 -0.3963  0.7629
19440TIP3    H279812   5.740   4.656  12.348 -0.1470  0.6340 -0.1178
19441TIP3   OH279813   2.474   5.816  11.684 -0.5021  0.1686  0.1619
19441TIP3    H179814   2.520   5.900  11.687  2.6417 -1.4115  1.0925
19441TIP3    H279815   2.511   5.772  11.608 -1.4980 -0.7054  0.1639
19442TIP3   OH279816   2.527   0.134  11.427 -0.2534 -0.0859  0.1573
19442TIP3    H179817   2.459   0.177  11.480 -2.1744 -0.4088 -1.8895
19442TIP3    H279818   2.535   0.047  11.464 -1.1127 -0.1027  0.3298
19443TIP3   OH279819   0.889   0.419  14.126  0.3250 -0.1845 -0.1095
19443TIP3    H179820   0.878   0.504  14.168  0.1552 -0.8082  1.1610
19443TIP3    H279821   0.833   0.360  14.175 -0.0354 -0.9240 -1.3647
19444TIP3   OH279822   6.562   1.880  16.526  0.1224 -0.1208 -0.3045
19444TIP3    H179823   6.583   1.923  16.442 -1.5659  1.2119 -0.1163
19444TIP3    H279824   6.479   1.836  16.510  0.3192 -0.7614  0.3885
19445TIP3   OH279825   4.959   5.165  14.451  0.8037  0.4355  0.4734
19445TIP3    H179826   5.028   5.230  14.438  1.3649 -0.1832  0.2788
19445TIP3    H279827   4.964   5.143  14.544  0.9157  0.3447  0.4467
19446TIP3   OH279828   4.460   6.522  16.155 -0.0898 -0.0708 -0.4195
19446TIP3    H179829   4.523   6.593  16.168 -1.9341  2.1953 -2.7000
19446TIP3    H279830   4.407   6.521  16.235  0.2879  0.8058 -0.1534
19447TIP3   OH279831   1.184   1.375  11.540  0.4590 -0.0969  0.0121
19447TIP3    H179832   1.238   1.350  11.615  2.0191  0.0129 -1.0328
19447TIP3    H279833   1.237   1.354  11.464 -0.5072  1.1117 -1.0460
19448TIP3   OH279834   4.879   2.798  11.948 -0.5226  0.1257  0.0648
19448TIP3    H179835   4.956   2.760  11.905 -0.5033 -0.0367  0.2435
19448TIP3    H279836   4.882   2.891  11.924 -0.7533 -0.0413 -0.6519
19449TIP3   OH279837   3.606   5.009   3.602  0.4594  0.0365 -0.5118
19449TIP3    H179838   3.568   4.935   3.649  0.5352  0.0647 -0.4052
19449TIP3    H279839   3.565   5.006   3.516  0.1094  0.1463 -0.3538
19450TIP3   OH279840   6.774   3.315  11.345  0.1352  0.3677 -0.0921
19450TIP3    H179841   6.714   3.390  11.351  0.3204  0.4890  0.3147
19450TIP3    H279842   6.853   3.345  11.390 -0.0983 -0.3733  0.8569
19451TIP3   OH279843   2.752   6.677   1.744  0.1227 -0.0657  0.2921
19451TIP3    H179844   2.684   6.710   1.803  1.6245 -0.2583  2.2232
19451TIP3    H279845   2.834   6.706   1.783  1.2451 -1.1670 -1.1230
19452TIP3   OH279846   2.480   6.651  11.566  0.0699 -0.1681  0.3129
19452TIP3    H179847   2.442   6.609  11.642  1.0677  0.4379  1.1748
19452TIP3    H279848   2.542   6.587  11.531  0.2609 -0.1116  0.5451
19453TIP3   OH279849   5.558   3.549   3.721 -0.3220  0.0641 -0.0574
19453TIP3    H179850   5.600   3.520   3.802 -2.2242 -1.0332  0.6220
19453TIP3    H279851   5.584   3.484   3.655 -3.2412 -2.5632  1.0815
19454TIP3   OH279852   3.058   2.018  14.150 -0.2119 -0.5115  0.4459
19454TIP3    H179853   3.127   2.084  14.145 -0.3223 -0.3072  1.3485
19454TIP3    H279854   3.077   1.956  14.079  0.1619  0.2297 -0.1056
19455TIP3   OH279855   2.916   4.433   5.119 -0.3471 -0.4054  0.1060
19455TIP3    H179856   2.853   4.396   5.057  1.4702 -2.1520 -0.8321
19455TIP3    H279857   3.001   4.407   5.084  0.9840  2.5809  0.8505
19456TIP3   OH279858   6.425   1.318   1.684 -0.1060 -0.3265 -0.1878
19456TIP3    H179859   6.346   1.276   1.649 -0.6632  1.2209 -0.8733
19456TIP3    H279860   6.392   1.381   1.748  0.5509  0.5365 -0.6817
19457TIP3   OH279861   5.594   5.321  12.841 -0.1344 -0.0491 -0.0858
19457TIP3    H179862   5.612   5.414  12.827 -0.3065  0.2930  1.7639
19457TIP3    H279863   5.658   5.293  12.907 -2.0343 -0.4208  1.7202
19458TIP3   OH279864   2.890   1.244  14.838 -0.4005  0.5860  0.0026
19458TIP3    H179865   2.799   1.273  14.847 -0.2340  3.3283 -4.3603
19458TIP3    H279866   2.928   1.305  14.775  4.1604 -1.2637  0.6217
19459TIP3   OH279867   4.169   3.069  11.652  0.1104  0.6759 -0.1478
19459TIP3    H179868   4.263   3.080  11.665 -0.2254  1.2118  2.1729
19459TIP3    H279869   4.135   3.159  11.653 -0.7861  0.4025  2.7001
19460TIP3   OH279870   5.181   6.237  12.513 -0.2348  0.9813 -0.2942
19460TIP3    H179871   5.169   6.143  12.496 -1.8100  0.8352  1.3382
19460TIP3    H279872   5.178   6.245  12.608  1.6283  2.5110 -0.3090
19461TIP3   OH279873   2.433   3.506   4.573  0.1901  0.3249  0.0980
19461TIP3    H179874   2.384   3.460   4.504  1.1060  0.7580 -0.8691
19461TIP3    H279875   2.413   3.599   4.558  0.9577  0.4719 -0.0422
19462TIP3   OH279876   5.174   2.871  14.958  0.4257 -0.1643  0.2959
19462TIP3    H179877   5.232   2.800  14.984  1.8878  0.1797 -1.7790
19462TIP3    H279878   5.093   2.855  15.006  1.6114 -1.6917  1.8997
19463TIP3   OH279879   2.274   2.654  12.458 -1.0409  0.1132  0.1826
19463TIP3    H179880   2.225   2.686  12.381 -1.8404  0.3822  0.7920
19463TIP3    H279881   2.249   2.562  12.465  0.6189 -0.4821 -1.0760
19464TIP3   OH279882   5.435   0.104  10.622  0.5232 -0.4317  0.0183
19464TIP3    H179883   5.429   0.171  10.690  0.4121  0.2277 -0.6253
19464TIP3    H279884   5.404   0.148  10.543  1.4315 -0.9339 -0.6359
19465TIP3   OH279885   5.604   4.299   5.958 -0.3392  0.0972  0.1405
19465TIP3    H179886   5.610   4.217   6.008  0.2147  1.2260  2.0306
19465TIP3    H279887   5.695   4.318   5.932 -0.3002  0.6787  0.6860
19466TIP3   OH279888   6.086   6.634  16.892 -0.7303 -0.7675  0.1672
19466TIP3    H179889   5.999   6.598  16.875 -1.0918  0.2274 -0.1903
19466TIP3    H279890   6.142   6.592  16.827 -1.1253 -0.7353 -0.1989
19467TIP3   OH279891   4.691   3.740   1.472  0.0470 -0.1680  0.3404
19467TIP3    H179892   4.717   3.650   1.454  1.6633  0.5495 -1.3393
19467TIP3    H279893   4.670   3.776   1.386 -1.8329  0.7445  1.1202
19468TIP3   OH279894   0.295   0.791  10.769  0.5687  0.0275 -0.9418
19468TIP3    H179895   0.235   0.852  10.813  0.1922 -0.6487 -0.4830
19468TIP3    H279896   0.271   0.705  10.805  0.8402 -0.4373 -1.8342
19469TIP3   OH279897   1.522   2.220   2.975  0.4744  0.0995  0.4482
19469TIP3    H179898   1.487   2.295   2.926  1.7984  0.5749  0.2022
19469TIP3    H279899   1.445   2.166   2.992 -0.4441  1.2875  0.2467
19470TIP3   OH279900   3.591   5.544   4.050  0.0538 -0.7819 -0.5248
19470TIP3    H179901   3.623   5.635   4.052  0.5443 -0.9288 -1.2459
19470TIP3    H279902   3.496   5.552   4.046  0.1263 -0.2739 -1.6112
19471TIP3   OH279903   0.940   4.782   2.198  0.0165 -0.0255  0.0568
19471TIP3    H179904   0.852   4.821   2.195 -0.1535 -0.2474  1.4038
19471TIP3    H279905   0.953   4.746   2.110 -1.7872 -1.1147  0.1716
19472TIP3   OH279906   4.009   2.089   0.921 -0.2530 -0.2505 -0.3782
19472TIP3    H179907   4.054   2.087   1.005 -1.5939 -2.5519  0.3920
19472TIP3    H279908   4.068   2.042   0.862 -0.0568 -0.1286 -0.2804
19473TIP3   OH279909   4.928   2.514  15.471 -0.0874 -0.2405 -0.7899
19473TIP3    H179910   4.894   2.589  15.422  1.0105 -0.8494 -2.5874
19473TIP3    H279911   4.869   2.442  15.448 -2.4046  0.3488  2.5176
19474TIP3   OH279912   3.594   3.274   2.253  0.3095 -0.1466 -0.4143
19474TIP3    H179913   3.631   3.270   2.165 -1.1326 -0.6333 -1.0219
19474TIP3    H279914   3.499   3.274   2.240  0.0585  0.5671  1.1124
19475TIP3   OH279915   6.550   3.327   2.916 -0.6987 -0.0228 -0.2551
19475TIP3    H179916   6.559   3.312   3.010 -0.0753  0.5949 -0.2100
19475TIP3    H279917   6.459   3.305   2.897 -0.5687 -1.0979  0.3077
19476TIP3   OH279918   3.891   6.036  16.618 -0.6288  0.4975  0.3406
19476TIP3    H179919   3.880   6.099  16.547 -1.3059 -0.1321 -0.1272
19476TIP3    H279920   3.967   6.068  16.667 -0.3887  1.1494 -0.4373
19477TIP3   OH279921   1.897   3.258  14.954  0.3349 -0.0584  0.3961
19477TIP3    H179922   1.939   3.323  14.897 -2.0517  2.9110  1.7583
19477TIP3    H279923   1.960   3.243  15.024  0.6376  1.5383  0.5136
19478TIP3   OH279924   2.009   3.465  10.602 -0.1397 -0.4955 -0.1902
19478TIP3    H179925   1.967   3.390  10.645  0.8780 -0.5948  0.6664
19478TIP3    H279926   1.940   3.531  10.597 -0.8564 -1.2402 -0.3205
19479TIP3   OH279927   1.981   1.786   3.002  0.0363  0.1420 -0.3098
19479TIP3    H179928   1.895   1.768   3.042  1.0276  0.0026  1.9259
19479TIP3    H279929   2.018   1.699   2.986  0.2381  0.1850 -0.0953
19480TIP3   OH279930   3.397   0.830   0.042 -0.2859 -0.7194  0.3745
19480TIP3    H179931   3.333   0.875  -0.013 -0.7531  0.2794  1.7029
19480TIP3    H279932   3.410   0.887   0.117  2.4060 -0.7499  0.0366
19481TIP3   OH279933   3.480   2.665   2.250  0.3816  0.9609 -0.2036
19481TIP3    H179934   3.463   2.684   2.158 -0.1622  2.8438  0.2451
19481TIP3    H279935   3.563   2.709   2.269  0.6560  0.3092  0.1305
19482TIP3   OH279936   4.630   3.200   2.857 -0.3800 -0.4369 -0.4372
19482TIP3    H179937   4.602   3.155   2.777 -2.0568 -0.5090  0.1596
19482TIP3    H279938   4.694   3.141   2.897 -0.6500 -1.0952 -0.9604
19483TIP3   OH279939   2.123   6.080  12.145 -0.0899  0.3208  0.2308
19483TIP3    H179940   2.037   6.056  12.110 -0.2305  1.2918 -0.1064
19483TIP3    H279941   2.130   6.029  12.226  0.2774 -2.0329 -1.1696
19484TIP3   OH279942   3.173   5.031  11.484  0.0734  0.6792  0.1699
19484TIP3    H179943   3.078   5.029  11.502  0.0841 -1.1805  0.2640
19484TIP3    H279944   3.179   5.057  11.392 -0.3978  2.6440  0.6412
19485TIP3   OH279945   2.632   2.607  14.102  0.1325 -0.2253  0.0970
19485TIP3    H179946   2.546   2.576  14.130 -0.7152  2.2541  0.4450
19485TIP3    H279947   2.649   2.682  14.159  2.4383 -0.5010 -0.1495
19486TIP3   OH279948   3.584   3.100  11.248 -0.2201 -0.5030  0.6113
19486TIP3    H179949   3.502   3.069  11.207 -0.7297 -1.0342  1.9841
19486TIP3    H279950   3.641   3.023  11.248  0.1702 -0.2255 -0.0175
19487TIP3   OH279951   2.982   3.264   4.270 -0.2802  0.4584 -0.1531
19487TIP3    H179952   2.985   3.168   4.265 -0.1414  0.5105 -2.1560
19487TIP3    H279953   3.058   3.293   4.220 -0.2077  1.6314  0.5922
19488TIP3   OH279954   1.227   1.460   2.388 -0.1761 -0.2480  0.1089
19488TIP3    H179955   1.312   1.475   2.429 -0.9060  0.5346  1.4206
19488TIP3    H279956   1.239   1.381   2.335  0.8639 -1.2366  1.7431
19489TIP3   OH279957   2.505   3.481   0.901  0.1838 -0.2486 -0.0790
19489TIP3    H179958   2.578   3.460   0.959  0.5985  0.0992 -0.4678
19489TIP3    H279959   2.450   3.539   0.953  0.6573  0.2246 -0.0896
19490TIP3   OH279960   6.057   1.289   1.540 -0.1582  0.0835 -0.1711
19490TIP3    H179961   6.005   1.209   1.532  0.3499 -0.0761 -3.3645
19490TIP3    H279962   6.132   1.273   1.483  0.9196  2.1562  0.5969
19491TIP3   OH279963   1.385   2.093  14.682  0.2598  0.2921 -0.2991
19491TIP3    H179964   1.380   2.164  14.745  2.3189  0.4744 -0.2930
19491TIP3    H279965   1.409   2.016  14.733 -1.4726 -0.3471 -0.3819
19492TIP3   OH279966   3.223   4.875  14.398 -0.1461 -0.3165  0.0150
19492TIP3    H179967   3.227   4.968  14.375  0.5921 -0.7637 -1.8244
19492TIP3    H279968   3.283   4.832  14.337 -1.2557 -2.1468  0.1286
19493TIP3   OH279969   4.200   1.934   3.837  0.5987  0.1698  0.0092
19493TIP3    H179970   4.259   2.004   3.810  0.0742  0.8472  0.5654
19493TIP3    H279971   4.145   1.919   3.760  0.4563  0.6520  0.0115
19494TIP3   OH279972   0.098   5.515   2.998 -0.2988 -0.4090 -0.2533
19494TIP3    H179973   0.105   5.565   3.080  0.7583 -0.8031 -0.0856
19494TIP3    H279974   0.013   5.470   3.005 -0.7401  0.4639  0.1018
19495TIP3   OH279975   1.009   1.266   5.071  0.1706  0.1018  0.0814
19495TIP3    H179976   0.939   1.293   5.130 -0.2627  0.7766 -0.7288
19495TIP3    H279977   0.969   1.268   4.984  0.7116 -1.1590 -0.2231
19496TIP3   OH279978   0.673   4.154  13.329  0.5945  0.0877 -0.0527
19496TIP3    H179979   0.739   4.185  13.391  1.1134 -0.5641 -0.2701
19496TIP3    H279980   0.677   4.058  13.335  0.2986  0.0240 -0.7261
19497TIP3   OH279981   5.857   0.330  13.199  0.1423 -0.1719  0.3553
19497TIP3    H179982   5.882   0.360  13.287 -0.2896  2.2730 -0.2750
19497TIP3    H279983   5.777   0.278  13.213  0.0612  0.2142  1.4149
19498TIP3   OH279984   2.766   4.347  13.915  0.0953 -0.3033 -0.3987
19498TIP3    H179985   2.774   4.353  13.820 -0.4625  3.3530 -0.3525
19498TIP3    H279986   2.853   4.368  13.948  0.2268 -1.3304 -0.0361
19499TIP3   OH279987   2.978   3.106  12.639  1.2553  0.0686  0.3162
19499TIP3    H179988   2.934   3.114  12.724  0.9750  3.4705 -0.0153
19499TIP3    H279989   2.908   3.116  12.575  1.5751 -1.7309 -0.3658
19500TIP3   OH279990   0.771   3.750   0.928 -0.1849  0.3229  0.1012
19500TIP3    H179991   0.838   3.703   0.878 -1.4102 -2.2027  0.6539
19500TIP3    H279992   0.813   3.832   0.952  3.0593 -1.4245  1.1222
19501TIP3   OH279993   1.795   0.983  13.137 -0.0310 -0.0679  0.3846
19501TIP3    H179994   1.840   1.062  13.166 -0.3747  0.2127  0.1596
19501TIP3    H279995   1.854   0.945  13.072 -0.0194  0.1869  0.2447
19502TIP3   OH279996   4.205   5.633  10.656 -0.4514  0.1738  0.3988
19502TIP3    H179997   4.115   5.665  10.660 -0.4609  0.2057  0.0108
19502TIP3    H279998   4.231   5.623  10.747 -0.1894  2.0064  0.5517
19503TIP3   OH279999   6.822   3.757   3.308 -0.4673  0.1629 -0.0778
19503TIP3    H180000   6.854   3.716   3.388  2.2204  0.1867 -1.0371
19503TIP3    H280001   6.790   3.843   3.336  1.2160  0.5124  0.9282
19504TIP3   OH280002   4.125   5.437   1.929 -0.1133 -0.4924 -0.0710
19504TIP3    H180003   4.144   5.346   1.904 -0.2846  0.1563 -2.8946
19504TIP3    H280004   4.211   5.474   1.950 -0.1439 -1.4920  2.1539
19505TIP3   OH280005   4.041   6.390  11.864  0.0089  0.1521 -0.0571
19505TIP3    H180006   4.091   6.461  11.825  1.7207 -0.7611  0.3376
19505TIP3    H280007   4.107   6.322  11.883 -0.9157 -0.0888  2.9459
19506TIP3   OH280008   2.349   2.227  11.582  0.6095  0.4378  0.2347
19506TIP3    H180009   2.356   2.316  11.546 -1.2757 -0.3885 -2.5303
19506TIP3    H280010   2.432   2.185  11.560  0.8120  0.9961 -0.0756
19507TIP3   OH280011   4.624   2.080  17.022  0.0052 -0.0515 -0.0956
19507TIP3    H180012   4.595   1.989  17.013 -0.9778  0.3443 -1.1471
19507TIP3    H280013   4.544   2.130  17.036  0.6649  0.5146  1.9076
19508TIP3   OH280014   5.809   1.207   2.596  0.3754  0.0697 -0.4257
19508TIP3    H180015   5.865   1.133   2.574  1.8711  1.1907 -0.5816
19508TIP3    H280016   5.778   1.240   2.512 -3.2342 -2.4082 -0.2936
19509TIP3   OH280017   0.957   4.336  12.294 -0.2902 -0.0485  0.2041
19509TIP3    H180018   1.042   4.380  12.301  0.5616 -1.6302  0.1013
19509TIP3    H280019   0.895   4.396  12.337  0.7989  1.2859 -0.0208
19510TIP3   OH280020   3.671   1.891  14.304 -0.2911  0.3214  0.4201
19510TIP3    H180021   3.694   1.961  14.242  0.5449 -1.0048 -0.8497
19510TIP3    H280022   3.695   1.925  14.390 -1.9167  2.4119  0.1271
19511TIP3   OH280023   2.506   4.610   0.252  0.1227 -0.2429  0.0279
19511TIP3    H180024   2.574   4.544   0.266  0.3319 -0.1144 -0.3899
19511TIP3    H280025   2.427   4.570   0.287  0.1225 -0.9652 -0.7710
19512TIP3   OH280026   1.552   5.249   5.811 -0.4362 -0.4574  0.0382
19512TIP3    H180027   1.491   5.317   5.841  1.6527  2.1353 -1.1775
19512TIP3    H280028   1.590   5.214   5.891 -3.2372 -2.0181  0.8216
19513TIP3   OH280029   5.974   2.317  16.772 -0.3354 -0.1940 -0.3571
19513TIP3    H180030   5.916   2.250  16.735 -0.9465  0.4178 -0.5371
19513TIP3    H280031   6.039   2.268  16.821  0.3172 -1.0334 -1.9666
19514TIP3   OH280032   5.832   2.682   5.855 -0.3091  0.8749 -0.2132
19514TIP3    H180033   5.865   2.648   5.938  0.5356 -0.3018 -0.9965
19514TIP3    H280034   5.741   2.704   5.872 -0.1113  0.7646  1.0537
19515TIP3   OH280035   2.702   6.399  17.176  0.4275 -0.4890  0.2548
19515TIP3    H180036   2.630   6.373  17.117  1.7992 -0.2205 -1.6344
19515TIP3    H280037   2.712   6.324  17.235 -1.1670 -0.6695  0.3454
19516TIP3   OH280038   2.484   1.121   2.539 -0.3229  0.5512  0.2370
19516TIP3    H180039   2.552   1.185   2.561 -0.4750  0.5830  0.6148
19516TIP3    H280040   2.402   1.165   2.559 -0.4424  0.3670  0.1534
19517TIP3   OH280041   1.230   4.088   0.828  0.1717  0.3205  0.1737
19517TIP3    H180042   1.200   4.021   0.889  1.2725 -0.7293 -0.4082
19517TIP3    H280043   1.254   4.039   0.749  0.4454  1.4641 -0.4670
19518TIP3   OH280044   1.578   6.366  16.806 -0.2722 -0.6853  0.2514
19518TIP3    H180045   1.532   6.332  16.883 -1.2217  1.5078  0.7386
19518TIP3    H280046   1.654   6.411  16.842  2.9046 -4.7748 -0.5745
19519TIP3   OH280047   2.947   3.848   0.243 -0.5205 -0.0929 -0.4448
19519TIP3    H180048   2.861   3.809   0.263 -0.3871 -0.8656 -1.3320
19519TIP3    H280049   2.996   3.778   0.202  0.2995  0.5624 -0.6052
19520TIP3   OH280050   5.468   4.614  14.225 -0.3726  0.8040  0.1464
19520TIP3    H180051   5.439   4.574  14.307  3.3725  1.3961  1.9621
19520TIP3    H280052   5.474   4.707  14.245  2.0672  0.7775 -0.2290
19521TIP3   OH280053   2.925   6.176  13.916 -0.3142  0.6319  0.2555
19521TIP3    H180054   3.006   6.216  13.948  0.5017  0.4204 -1.4435
19521TIP3    H280055   2.866   6.177  13.992  1.0582  1.3474  1.3567
19522TIP3   OH280056   3.283   2.263  13.150  0.4452  0.1838  0.2662
19522TIP3    H180057   3.264   2.347  13.108  0.0659 -0.3589 -0.6581
19522TIP3    H280058   3.309   2.287  13.240 -1.0860  1.1825  0.4735
19523TIP3   OH280059   3.786   3.222  14.696  0.0787 -0.1962  0.0963
19523TIP3    H180060   3.756   3.133  14.714 -0.8406  0.3353  1.3582
19523TIP3    H280061   3.753   3.241  14.608 -0.1087 -0.9381 -0.0033
19524TIP3   OH280062   5.623   0.290   3.613 -0.4603  0.0424  0.5634
19524TIP3    H180063   5.689   0.224   3.592 -1.5767 -0.6342 -0.9993
19524TIP3    H280064   5.611   0.282   3.708  0.1387 -1.3253  0.5474
19525TIP3   OH280065   6.540   5.759  16.513  0.0469  0.5183 -0.3512
19525TIP3    H180066   6.581   5.715  16.587  0.6074  0.5358 -0.6522
19525TIP3    H280067   6.471   5.813  16.552 -0.1534 -0.0454  0.0875
19526TIP3   OH280068   1.483   4.634  10.919 -0.3265  0.0443 -0.4424
19526TIP3    H180069   1.440   4.703  10.869 -0.1710  0.3966 -0.0907
19526TIP3    H280070   1.473   4.555  10.865  0.1924  0.5017 -1.2185
19527TIP3   OH280071   3.456   5.177   5.882  0.3669  0.0529 -0.2391
19527TIP3    H180072   3.454   5.144   5.971 -0.3834  2.5599  0.7551
19527TIP3    H280073   3.454   5.272   5.891  0.0247  0.3913 -2.9380
19528TIP3   OH280074   1.954   3.864   4.555 -0.3540 -0.0917  0.2716
19528TIP3    H180075   1.964   3.788   4.497 -0.7370 -0.3418  0.5250
19528TIP3    H280076   1.917   3.932   4.499 -2.7842 -0.9890  0.6713
19529TIP3   OH280077   2.670   0.427  11.671 -0.2436  0.0720 -0.0067
19529TIP3    H180078   2.751   0.476  11.686 -0.2064 -0.3929  1.4313
19529TIP3    H280079   2.619   0.440  11.751 -0.4031 -1.8787  0.2535
19530TIP3   OH280080   3.692   1.871   4.000 -0.2939 -0.6627  0.3622
19530TIP3    H180081   3.660   1.948   4.047  0.7424 -0.5735  0.9379
19530TIP3    H280082   3.782   1.860   4.029  0.2543 -0.8612 -1.2722
19531TIP3   OH280083   4.448   6.164  16.884  0.1426  0.1480 -0.4870
19531TIP3    H180084   4.462   6.163  16.979  1.1921 -0.7731 -0.6351
19531TIP3    H280085   4.512   6.101  16.849  0.4721  1.2116 -1.8977
19532TIP3   OH280086   1.858   4.540   1.688  0.6969  0.1611 -0.5796
19532TIP3    H180087   1.764   4.553   1.687  0.5928 -0.0209 -4.1548
19532TIP3    H280088   1.879   4.523   1.780 -3.1012 -2.4317  0.0133
19533TIP3   OH280089   1.985   4.112  14.235  0.4851  0.8620 -0.1911
19533TIP3    H180090   2.050   4.128  14.302  1.0803  1.2546 -0.8547
19533TIP3    H280091   2.023   4.044  14.179 -0.8278 -0.9411  0.9686
19534TIP3   OH280092   2.421   5.327  15.096 -0.2625 -0.1222 -0.1002
19534TIP3    H180093   2.406   5.233  15.090  1.0331 -0.5262  1.9853
19534TIP3    H280094   2.431   5.355  15.005  1.1216 -2.3570 -0.7288
19535TIP3   OH280095   5.241   5.959   1.194 -0.2864 -0.3797  0.3353
19535TIP3    H180096   5.174   6.006   1.145 -0.0590 -0.7182 -0.3133
19535TIP3    H280097   5.312   6.022   1.205  0.1107 -0.6214 -0.7299
19536TIP3   OH280098   1.939   6.650   3.237 -0.1197 -0.5213 -0.0350
19536TIP3    H180099   1.950   6.643   3.142 -1.1020 -1.0578 -0.1108
19536TIP3    H280100   1.880   6.725   3.249  0.7352  0.1333  0.2101
19537TIP3   OH280101   1.040   6.631  17.037  0.3687  0.2189 -0.0650
19537TIP3    H180102   1.055   6.557  17.096 -0.3738 -2.7601 -3.2913
19537TIP3    H280103   0.976   6.685  17.083  0.5546 -1.3772  2.2507
19538TIP3   OH280104   5.508   3.915  15.442 -0.2473  0.5438 -0.2129
19538TIP3    H180105   5.441   3.849  15.424  0.7605 -0.4001 -0.6071
19538TIP3    H280106   5.508   3.970  15.364 -0.2320  0.2607 -0.4142
19539TIP3   OH280107   0.749   5.842  17.113  0.7254 -0.1279 -0.1303
19539TIP3    H180108   0.778   5.773  17.173 -0.8581  0.8624  1.8687
19539TIP3    H280109   0.711   5.795  17.039 -2.3282 -1.5790  2.1460
19540TIP3   OH280110   3.742   0.852  15.432 -0.2655 -0.3204  0.4029
19540TIP3    H180111   3.676   0.893  15.376 -0.5169  0.6256  1.3556
19540TIP3    H280112   3.785   0.926  15.476  1.6155 -0.8791 -0.3648
19541TIP3   OH280113   4.616   3.203   0.504 -0.1147 -0.1482  0.3938
19541TIP3    H180114   4.696   3.228   0.549 -1.9481  0.1946  3.7805
19541TIP3    H280115   4.580   3.285   0.470 -0.0475  0.0098  0.7059
19542TIP3   OH280116   1.699   1.557   6.682  0.6090 -0.3741 -0.1622
19542TIP3    H180117   1.721   1.642   6.643  2.3092 -0.5456  0.3483
19542TIP3    H280118   1.773   1.501   6.660  0.7998 -0.9536  1.7849
19543TIP3   OH280119   3.268   4.466  13.928 -0.4580  0.7436  0.0975
19543TIP3    H180120   3.268   4.561  13.942  1.6565  1.0165 -1.2725
19543TIP3    H280121   3.360   4.440  13.936 -0.9741 -1.1988  0.3415
19544TIP3   OH280122   5.579   6.077  15.880  0.4196  0.5596  0.3672
19544TIP3    H180123   5.525   6.029  15.942  0.3039  1.3342  0.8923
19544TIP3    H280124   5.607   6.155  15.929  0.4627  1.1038 -0.4969
19545TIP3   OH280125   5.264   2.213   3.199 -0.1669  0.2330 -0.3223
19545TIP3    H180126   5.323   2.289   3.192  1.6387 -0.8314  1.9260
19545TIP3    H280127   5.314   2.140   3.162 -0.2335 -0.5894  1.1407
19546TIP3   OH280128   2.873   4.366   2.903 -0.1832 -0.1245 -0.4123
19546TIP3    H180129   2.821   4.436   2.863 -0.4995  0.6876  1.2894
19546TIP3    H280130   2.808   4.311   2.947  0.3117  1.3556  2.4330
19547TIP3   OH280131   2.657   6.651   3.958  0.5260 -0.0185 -0.3774
19547TIP3    H180132   2.582   6.710   3.951  1.2608  0.7997 -1.7833
19547TIP3    H280133   2.651   6.615   4.046  0.1966  2.3351  0.6291
19548TIP3   OH280134   2.390   2.855  12.995  0.4608 -0.7900  0.5499
19548TIP3    H180135   2.313   2.910  13.007  0.5266 -0.2839 -1.1863
19548TIP3    H280136   2.457   2.895  13.051  1.3758  2.7139 -2.6186
19549TIP3   OH280137   3.775   4.110   1.561  0.3401 -0.1188  0.2461
19549TIP3    H180138   3.830   4.188   1.566 -0.3000  0.2965  1.0531
19549TIP3    H280139   3.830   4.044   1.518  0.0689  1.4722 -2.7893
19550TIP3   OH280140   0.438   5.381  16.225 -0.1324  0.8205 -0.4022
19550TIP3    H180141   0.439   5.471  16.191 -0.7358  0.9656 -0.0600
19550TIP3    H280142   0.515   5.340  16.186 -0.0176  1.3980 -0.8060
19551TIP3   OH280143   3.838   3.945  13.994  0.9315  0.6042  0.1539
19551TIP3    H180144   3.862   3.937  13.902 -1.6488  0.8583 -0.6073
19551TIP3    H280145   3.827   4.039  14.009  3.0867  0.7442  1.2767
19552TIP3   OH280146   0.347   2.481   0.898  0.5431 -0.8422 -0.0665
19552TIP3    H180147   0.254   2.478   0.921  0.2283  1.8397 -0.6307
19552TIP3    H280148   0.391   2.509   0.978  0.7855 -1.3622 -0.0117
19553TIP3   OH280149   1.484   2.110  11.553  0.1903  0.0078 -0.0817
19553TIP3    H180150   1.460   2.194  11.593 -1.3726 -0.9148  1.0251
19553TIP3    H280151   1.413   2.090  11.493  0.0103 -0.9887  0.4282
19554TIP3   OH280152   0.267   3.780  13.417  0.2040  0.4227 -0.3466
19554TIP3    H180153   0.222   3.840  13.476 -2.7585 -0.6334 -1.3089
19554TIP3    H280154   0.269   3.697  13.465  0.6739  0.3421 -0.5080
19555TIP3   OH280155   1.915   5.749   5.037  0.5400  0.4294  0.3754
19555TIP3    H180156   1.909   5.703   5.121 -1.2691 -0.2292 -0.0563
19555TIP3    H280157   1.868   5.831   5.052  1.2902  0.8757  0.3373
19556TIP3   OH280158   2.660   5.737   1.367 -0.0424  0.4111  0.4856
19556TIP3    H180159   2.662   5.661   1.425 -0.0849  0.7445  0.9308
19556TIP3    H280160   2.625   5.704   1.284 -1.0812  0.1756  1.0090
19557TIP3   OH280161   6.097   5.456  13.422  0.3958 -0.1795  0.0601
19557TIP3    H180162   6.183   5.492  13.444 -0.1303 -0.3681  2.7638
19557TIP3    H280163   6.105   5.362  13.438 -0.1479 -0.2918 -0.2891
19558TIP3   OH280164   0.106   4.802  13.363 -0.5535 -0.1502  0.4584
19558TIP3    H180165   0.167   4.813  13.289 -0.7380 -0.3277  0.2772
19558TIP3    H280166   0.030   4.854  13.338 -1.5718 -2.0098 -0.5508
19559TIP3   OH280167   2.669   3.593  12.255 -0.1609 -0.0029  0.1778
19559TIP3    H180168   2.582   3.558  12.271 -0.1374 -0.5603 -0.8147
19559TIP3    H280169   2.663   3.686  12.279 -1.3132  0.2072 -0.8119
19560TIP3   OH280170   4.550   2.933  13.381  0.7674  0.3801  0.2747
19560TIP3    H180171   4.604   2.932  13.301  1.0889  1.7706  0.4397
19560TIP3    H280172   4.561   2.846  13.418 -0.0991 -0.6135 -1.6520
19561TIP3   OH280173   1.392   1.872   1.562  0.1198 -0.1865 -0.2603
19561TIP3    H180174   1.375   1.959   1.524 -0.6365 -0.2510 -0.0864
19561TIP3    H280175   1.308   1.845   1.598  0.4150 -0.8864 -0.0828
19562TIP3   OH280176   3.211   5.138   5.221 -0.1072  0.1062  0.0875
19562TIP3    H180177   3.164   5.069   5.176 -0.2732 -0.5242  1.1990
19562TIP3    H280178   3.170   5.144   5.307  0.8141  0.6308  0.5120
19563TIP3   OH280179   1.843   5.979   5.175 -0.6758 -0.1988 -0.0436
19563TIP3    H180180   1.841   6.072   5.197 -2.7281 -0.5238  1.4114
19563TIP3    H280181   1.752   5.951   5.179 -0.3553 -1.8715 -2.4356
19564TIP3   OH280182   3.029   4.914   1.171  0.5234  0.1107  0.5614
19564TIP3    H180183   3.019   4.831   1.218 -0.9238 -0.1335 -0.1230
19564TIP3    H280184   3.104   4.956   1.212 -0.2660 -0.3990  2.6399
19565TIP3   OH280185   1.009   4.557  11.127 -0.3041  0.0775 -0.1330
19565TIP3    H180186   0.964   4.523  11.205 -1.2223 -0.4132 -0.8574
19565TIP3    H280187   1.068   4.486  11.101  0.6005  0.5509  0.5589
19566TIP3   OH280188   6.629   6.349   6.006  0.2518 -0.0136 -0.0931
19566TIP3    H180189   6.702   6.293   6.032 -0.0515  0.0388  0.8974
19566TIP3    H280190   6.618   6.411   6.078  0.8245  1.6032 -1.3235
19567TIP3   OH280191   0.622   6.075  13.862 -0.2604  0.4777  0.0642
19567TIP3    H180192   0.698   6.095  13.807 -0.4542  1.0357 -0.0090
19567TIP3    H280193   0.551   6.124  13.822 -0.6871 -0.1299  0.0705
19568TIP3   OH280194   3.720   1.319  16.183 -0.1070  0.0477 -0.3959
19568TIP3    H180195   3.759   1.361  16.105 -1.5524  0.4003 -0.9572
19568TIP3    H280196   3.661   1.385  16.219  1.0147  0.1340  1.4232
19569TIP3   OH280197   6.617   2.295  13.316  0.1013 -0.0774  0.2346
19569TIP3    H180198   6.565   2.223  13.281  0.6700 -0.3423 -0.0837
19569TIP3    H280199   6.604   2.291  13.410 -1.4154  0.6170  0.0815
19570TIP3   OH280200   1.539   3.890   5.549  0.2756  0.4544  0.0283
19570TIP3    H180201   1.508   3.973   5.584 -0.2775  0.1689  0.2437
19570TIP3    H280202   1.530   3.898   5.454  0.9487  0.9143  0.0015
19571TIP3   OH280203   2.685   2.066  15.868 -0.3808 -0.4970 -0.4295
19571TIP3    H180204   2.613   2.128  15.865  1.2752  1.5751  0.2275
19571TIP3    H280205   2.707   2.058  15.961 -1.1953 -2.9522 -0.3640
19572TIP3   OH280206   2.475   4.358  13.092 -0.3120  0.4413  0.4451
19572TIP3    H180207   2.555   4.333  13.139  0.7305  1.4381 -0.7300
19572TIP3    H280208   2.494   4.336  13.001 -2.0004 -0.7553  0.3403
19573TIP3   OH280209   6.076   4.859   0.153  0.0605  0.0213 -0.3077
19573TIP3    H180210   6.146   4.880   0.091  0.4460 -0.5219 -0.0628
19573TIP3    H280211   6.010   4.927   0.138  0.0662 -0.1914 -1.4408
19574TIP3   OH280212   0.430   3.293   4.651 -0.2602 -0.4577  0.1007
19574TIP3    H180213   0.397   3.234   4.720  0.6218 -0.3168  0.6536
19574TIP3    H280214   0.426   3.380   4.690  2.2109 -0.5788  0.8050
19575TIP3   OH280215   4.801   6.782   5.804  0.7573  0.6160  0.6072
19575TIP3    H180216   4.713   6.753   5.829  0.4065  1.8195  0.8191
19575TIP3    H280217   4.787   6.867   5.762  1.7723  0.5617  0.1445
19576TIP3   OH280218   0.059   0.793  12.652 -0.2278  0.0886  0.1434
19576TIP3    H180219   0.044   0.714  12.600  0.9495 -0.2525  0.2950
19576TIP3    H280220  -0.007   0.789  12.722 -2.3956  0.9770 -1.7268
19577TIP3   OH280221   0.563   2.808   3.527 -0.2009  0.5713 -0.6222
19577TIP3    H180222   0.561   2.864   3.605  0.4029 -1.7501  1.2120
19577TIP3    H280223   0.494   2.743   3.542  0.0080  0.0006 -1.9717
19578TIP3   OH280224   5.100   1.693  13.377  0.2915 -0.3051 -0.4133
19578TIP3    H180225   5.124   1.785  13.369  2.6240 -0.8241 -0.0272
19578TIP3    H280226   5.183   1.648  13.391 -0.5535 -2.6898 -2.3943
19579TIP3   OH280227   6.553   0.365   3.273  0.0621 -0.5240 -0.2764
19579TIP3    H180228   6.612   0.319   3.332 -0.8254 -1.7050 -0.2878
19579TIP3    H280229   6.611   0.404   3.207  1.0139  0.3455  1.0139
19580TIP3   OH280230   4.683   5.738   4.916  0.0408  0.1660 -0.2234
19580TIP3    H180231   4.630   5.664   4.885 -0.5775 -0.6100  2.4318
19580TIP3    H280232   4.622   5.811   4.921 -0.2654 -0.1451  0.7080
19581TIP3   OH280233   4.584   0.639  11.701  0.0014 -0.0495 -0.0865
19581TIP3    H180234   4.590   0.684  11.785 -0.4115  0.0328 -0.0952
19581TIP3    H280235   4.649   0.683  11.645 -0.5432  0.6914 -0.1584
19582TIP3   OH280236   3.681   4.188  14.875 -0.0145  0.3439  0.3656
19582TIP3    H180237   3.655   4.111  14.824 -0.4340  0.8298 -0.1747
19582TIP3    H280238   3.773   4.201  14.854 -0.5501  1.4226 -1.4673
19583TIP3   OH280239   1.112   0.935   0.808 -0.6622  0.2499 -0.4966
19583TIP3    H180240   1.189   0.987   0.784 -1.4875  2.5285  1.3916
19583TIP3    H280241   1.145   0.869   0.868 -0.1485  1.2178  0.3049
19584TIP3   OH280242   0.674   4.805  11.501  0.0790  0.1969  0.5629
19584TIP3    H180243   0.704   4.805  11.592  2.1536 -0.1337 -0.0753
19584TIP3    H280244   0.633   4.890  11.488 -2.0855 -0.4784  2.3296
19585TIP3   OH280245   6.620   4.051  12.013 -0.9550 -0.3281 -0.5074
19585TIP3    H180246   6.694   4.086  11.963  0.5791  0.1737  1.9684
19585TIP3    H280247   6.594   3.972  11.965  1.3938 -0.6920 -1.3015
19586TIP3   OH280248   0.302   6.623   1.260 -0.4505 -0.2237 -0.3182
19586TIP3    H180249   0.263   6.572   1.331 -0.2996  2.0909  1.5606
19586TIP3    H280250   0.386   6.580   1.243 -0.7706 -1.2009  0.4507
19587TIP3   OH280251   4.060   6.504  15.249  0.0496  0.0723  0.3146
19587TIP3    H180252   3.991   6.522  15.312 -0.1152  3.0042 -0.5892
19587TIP3    H280253   4.014   6.489  15.166  0.2842 -3.4443  0.6693
19588TIP3   OH280254   1.664   0.077   2.760 -0.3337 -0.3331 -0.4794
19588TIP3    H180255   1.639   0.133   2.833  0.2339  0.6226 -0.9970
19588TIP3    H280256   1.610  -0.001   2.770 -0.8877  0.1527  0.4599
19589TIP3   OH280257   1.132   3.262   0.785  0.3311  0.0891  0.1548
19589TIP3    H180258   1.196   3.267   0.714 -0.8751 -0.5534 -0.9964
19589TIP3    H280259   1.138   3.348   0.828  1.6167  0.2055 -0.2033
19590TIP3   OH280260   3.057   2.989  13.062 -0.1976 -0.3924  0.2985
19590TIP3    H180261   2.980   3.037  13.032  0.2538  0.4665  0.4852
19590TIP3    H280262   3.041   2.975  13.156  0.6436  1.3435  0.7389
19591TIP3   OH280263   2.216   2.599  14.744 -0.5848  0.2813 -0.3927
19591TIP3    H180264   2.301   2.625  14.779  0.4130 -1.9888 -0.9110
19591TIP3    H280265   2.201   2.512  14.781 -1.5858 -0.3076 -2.0677
19592TIP3   OH280266   0.094   6.123   2.711 -0.3331 -0.1700 -0.0685
19592TIP3    H180267   0.110   6.210   2.749  0.4675  0.3713 -1.5888
19592TIP3    H280268   0.064   6.070   2.785  2.6197  0.4123  1.6833
19593TIP3   OH280269   5.519   3.604   1.271  0.3947  0.0705  0.0397
19593TIP3    H180270   5.583   3.542   1.238  1.0483  1.0253 -0.5409
19593TIP3    H280271   5.452   3.550   1.313 -0.0671 -1.1606 -2.1509
19594TIP3   OH280272   6.321   0.008  15.341  0.4271 -0.3311 -0.3315
19594TIP3    H180273   6.254   0.076  15.355  0.8210  0.2018 -0.9641
19594TIP3    H280274   6.333  -0.032  15.427 -0.5917 -0.3288 -0.1768
19595TIP3   OH280275   6.695   1.711  14.747  0.1640  0.0642 -0.4394
19595TIP3    H180276   6.750   1.676  14.818 -1.4528 -2.3129 -0.2326
19595TIP3    H280277   6.749   1.699  14.668  1.2649  1.0368  0.1337
19596TIP3   OH280278   3.607   1.096   2.719 -0.0831  0.4340 -0.0723
19596TIP3    H180279   3.625   1.098   2.625  1.3963 -0.0744  0.1656
19596TIP3    H280280   3.660   1.023   2.752 -0.4167  0.7336  1.1776
19597TIP3   OH280281   4.951   0.904   0.089  0.1484  0.6800 -0.1054
19597TIP3    H180282   4.902   0.826   0.062 -0.8263  0.6315  1.6361
19597TIP3    H280283   4.897   0.978   0.061 -0.4317  0.6435  0.8583
19598TIP3   OH280284   5.903   1.737   4.327  0.1087  0.0571  0.2863
19598TIP3    H180285   5.854   1.665   4.366 -0.6288  1.5981  2.3904
19598TIP3    H280286   5.960   1.696   4.262 -1.2334 -2.2274  0.4763
19599TIP3   OH280287   4.452   4.114   5.191 -0.0249  0.1566  0.4368
19599TIP3    H180288   4.415   4.125   5.103  1.5648 -3.6318 -0.8897
19599TIP3    H280289   4.398   4.047   5.231  2.5968 -2.3887  0.0339
19600TIP3   OH280290   0.014   3.410   5.140 -0.6683 -0.2102 -0.2415
19600TIP3    H180291   0.035   3.342   5.205  1.0439 -0.3833 -0.9139
19600TIP3    H280292  -0.080   3.422   5.147 -0.8029 -1.6512  0.8849
19601TIP3   OH280293   5.834   4.771  14.257  0.2947 -0.4356 -0.0056
19601TIP3    H180294   5.833   4.739  14.347 -0.7139 -0.7541 -0.1243
19601TIP3    H280295   5.768   4.840  14.255  1.3872  0.6583 -0.1343
19602TIP3   OH280296   5.198   5.341  13.130 -0.2951 -0.4701  0.0690
19602TIP3    H180297   5.207   5.247  13.114 -0.6141 -0.7559  1.4477
19602TIP3    H280298   5.265   5.381  13.074 -0.6898 -1.4402 -1.1444
19603TIP3   OH280299   0.861   1.258  11.257 -0.2060  0.4744  0.0383
19603TIP3    H180300   0.818   1.287  11.337  0.5053 -0.1151  0.6513
19603TIP3    H280301   0.851   1.163  11.258  2.2669  0.1367  0.9456
19604TIP3   OH280302   5.954   3.146   4.889 -0.2526  0.4384 -0.3955
19604TIP3    H180303   5.867   3.174   4.858 -0.3788 -1.9791 -2.6330
19604TIP3    H280304   6.014   3.213   4.856 -1.1134  1.3761 -0.0917
19605TIP3   OH280305   1.590   5.952  16.757 -0.1263  0.0353  0.0236
19605TIP3    H180306   1.524   5.973  16.691 -0.2804  0.9627  0.4643
19605TIP3    H280307   1.672   5.947  16.708 -0.4448 -0.6752 -0.4536
19606TIP3   OH280308   4.910   0.616  13.294  0.3517  0.1183 -0.4338
19606TIP3    H180309   4.993   0.576  13.319  0.0479 -0.1671  0.1337
19606TIP3    H280310   4.846   0.579  13.354 -0.4226 -0.6225 -1.6716
19607TIP3   OH280311   3.993   4.302  15.082  0.2491 -0.3372 -0.2716
19607TIP3    H180312   4.073   4.265  15.120  0.5691 -0.7242 -1.2926
19607TIP3    H280313   3.944   4.335  15.158  0.1057 -2.5113  0.6716
19608TIP3   OH280314   3.073   4.936   5.054 -0.1836 -0.4951 -0.3837
19608TIP3    H180315   3.066   4.977   4.968  1.2196 -1.8269 -1.1932
19608TIP3    H280316   3.034   4.850   5.043 -0.8427 -0.3418  0.5957
19609TIP3   OH280317   0.075   6.034   2.268  0.3577  0.3063  0.2209
19609TIP3    H180318   0.067   5.938   2.271 -0.4543  0.3628  0.0696
19609TIP3    H280319   0.025   6.059   2.190  0.1342  0.8983  0.5516
19610TIP3   OH280320   3.863   6.795  11.677  0.5208  0.0638  0.2258
19610TIP3    H180321   3.872   6.859  11.606  2.7564  0.2887  0.6394
19610TIP3    H280322   3.792   6.737  11.648 -1.5449  2.6418 -0.1715
19611TIP3   OH280323   4.225   2.235   4.814 -0.1771  0.0332  0.2093
19611TIP3    H180324   4.263   2.289   4.883 -0.0272  1.5932 -1.0443
19611TIP3    H280325   4.250   2.145   4.838 -1.4563  0.3112  2.9790
19612TIP3   OH280326   0.385   0.785   4.343  0.1188 -0.2458 -0.5610
19612TIP3    H180327   0.465   0.743   4.312 -0.6828 -1.1000 -1.5551
19612TIP3    H280328   0.349   0.827   4.264 -2.1348 -2.7214 -0.9883
19613TIP3   OH280329   1.751   3.451   5.773 -0.0648 -0.3450 -0.3083
19613TIP3    H180330   1.830   3.481   5.728 -0.4465  0.5633 -0.3964
19613TIP3    H280331   1.682   3.508   5.739 -0.3501  0.4709  1.5158
19614TIP3   OH280332   1.816   2.221  15.766 -0.3825  0.0797  0.0120
19614TIP3    H180333   1.847   2.188  15.681  3.3628  0.2800  1.1047
19614TIP3    H280334   1.804   2.142  15.819  0.1869  0.0660  0.1284
19615TIP3   OH280335   0.614   1.526   4.930  0.1002 -0.5735  0.0574
19615TIP3    H180336   0.653   1.512   4.844 -1.0006 -0.5256 -0.4742
19615TIP3    H280337   0.552   1.454   4.941 -0.0827 -0.3406  0.6216
19616TIP3   OH280338   6.488   6.441   0.273 -0.0878  0.1189 -0.1923
19616TIP3    H180339   6.428   6.437   0.198 -0.1055  0.1603 -0.1806
19616TIP3    H280340   6.537   6.523   0.260 -2.1874  1.7435  1.4279
19617TIP3   OH280341   6.109   0.415   4.873  0.1813  0.0495 -0.2412
19617TIP3    H180342   6.165   0.338   4.878 -0.1695 -0.3356 -1.8012
19617TIP3    H280343   6.020   0.381   4.887  0.1642  0.4155  0.6009
19618TIP3   OH280344   0.129   3.781   1.091  0.3115 -0.1036  0.4565
19618TIP3    H180345   0.188   3.837   1.141  0.8874  1.3100 -1.6638
19618TIP3    H280346   0.186   3.738   1.026 -0.3853 -1.9043  0.9615
19619TIP3   OH280347   6.189   0.332  11.540  0.2234  0.3316  0.6880
19619TIP3    H180348   6.128   0.347  11.468  0.2168  0.1374  0.6502
19619TIP3    H280349   6.141   0.275  11.601  1.2145 -1.9531 -0.5413
19620TIP3   OH280350   3.606   2.685   6.412  0.2265 -0.2278  0.9237
19620TIP3    H180351   3.677   2.682   6.475  0.7517 -0.5901  0.3211
19620TIP3    H280352   3.608   2.600   6.368  0.1616  0.1846  0.1044
19621TIP3   OH280353   1.287   5.291   2.325  0.8848 -0.2218 -0.3668
19621TIP3    H180354   1.288   5.264   2.417 -0.9506 -0.7123 -0.4388
19621TIP3    H280355   1.310   5.212   2.277 -1.8969 -1.1026 -0.4476
19622TIP3   OH280356   4.172   1.440   1.955  0.1648  0.1259  0.6322
19622TIP3    H180357   4.151   1.427   2.047  0.7296  1.5960  0.9853
19622TIP3    H280358   4.140   1.527   1.934  1.7323  0.5871 -0.0362
19623TIP3   OH280359   1.337   1.576  12.108 -0.1016 -0.3966  0.7906
19623TIP3    H180360   1.292   1.650  12.149  0.6916  1.1471 -1.0138
19623TIP3    H280361   1.410   1.557  12.167  0.4450  1.1273  0.6420
19624TIP3   OH280362   1.359   1.136  14.149  0.3485 -0.0542 -0.1179
19624TIP3    H180363   1.313   1.053  14.137 -1.8295  0.9137  0.8669
19624TIP3    H280364   1.334   1.165  14.236  1.1619  1.5757 -0.3904
19625TIP3   OH280365   0.322   3.412  14.199 -0.1479  0.1437 -0.3249
19625TIP3    H180366   0.270   3.440  14.274 -2.3057 -0.3034 -1.5670
19625TIP3    H280367   0.387   3.481  14.188 -0.0692  0.4359  1.6401
19626TIP3   OH280368   4.649   3.510  11.361 -0.0109 -0.0227 -0.1502
19626TIP3    H180369   4.596   3.436  11.332  0.9315 -0.4794 -0.7403
19626TIP3    H280370   4.611   3.534  11.446  0.3922 -1.9670  0.6551
19627TIP3   OH280371   4.681   6.509  14.555 -0.5329  0.4051 -0.6817
19627TIP3    H180372   4.733   6.480  14.480  1.0210 -0.5045  0.6532
19627TIP3    H280373   4.621   6.574  14.520  1.4853  1.4827 -2.3848
19628TIP3   OH280374   5.087   6.808   1.221  0.3322 -0.4300 -0.6361
19628TIP3    H180375   5.032   6.847   1.289  1.1978 -1.1864  0.5391
19628TIP3    H280376   5.137   6.882   1.185 -0.8730  0.1369 -1.1773
19629TIP3   OH280377   1.598   6.531   1.122  0.9290  0.2198 -0.2963
19629TIP3    H180378   1.582   6.460   1.059  1.4373  0.3700 -0.6067
19629TIP3    H280379   1.685   6.510   1.158 -0.0896 -0.8459  1.6771
19630TIP3   OH280380   0.336   4.155  11.344 -0.5417 -0.2991 -0.1889
19630TIP3    H180381   0.358   4.243  11.314  0.3379 -0.9577 -1.6090
19630TIP3    H280382   0.247   4.162  11.377  0.5003  1.7466  2.5197
19631TIP3   OH280383   2.517   1.828   6.326 -0.1093  0.2333  0.3669
19631TIP3    H180384   2.480   1.740   6.315  1.1267 -0.4217  1.2537
19631TIP3    H280385   2.609   1.818   6.305 -0.3244  1.8016 -1.5811
19632TIP3   OH280386   2.195   6.012  11.891 -1.1802 -0.0105  0.1986
19632TIP3    H180387   2.205   6.038  11.982 -3.0066 -1.0983  0.7625
19632TIP3    H280388   2.211   5.917  11.890 -3.1388 -0.3816 -0.2031
19633TIP3   OH280389   3.860   2.369   1.817  0.2664 -0.2775 -0.3614
19633TIP3    H180390   3.770   2.399   1.803  0.7712  0.3431 -2.7145
19633TIP3    H280391   3.906   2.393   1.737  2.8539  0.5002  1.2351
19634TIP3   OH280392   2.133   3.824  13.336 -0.2478 -0.3261  0.0317
19634TIP3    H180393   2.103   3.908  13.371  0.2369 -0.4006  0.6575
19634TIP3    H280394   2.112   3.828  13.243 -1.0483  0.1158  0.2239
19635TIP3   OH280395   4.145   2.666   5.799  0.0444 -0.1187  0.3509
19635TIP3    H180396   4.070   2.640   5.745  0.5979 -2.7249  0.7114
19635TIP3    H280397   4.125   2.756   5.825 -1.2238  0.5332 -2.4669
19636TIP3   OH280398   6.489   4.926  11.546 -0.4506  0.3766  0.2881
19636TIP3    H180399   6.528   4.858  11.601 -0.1881  0.1156 -0.2121
19636TIP3    H280400   6.395   4.912  11.553 -0.4032  0.0551  0.3073
19637TIP3   OH280401   2.630   5.708   2.253 -0.3940  0.5544  0.3685
19637TIP3    H180402   2.636   5.717   2.158  1.4383  1.8646  0.5502
19637TIP3    H280403   2.652   5.795   2.287 -3.5169  0.8831  1.9981
19638TIP3   OH280404   2.484   6.108  11.597 -0.1995 -0.2886 -0.2859
19638TIP3    H180405   2.430   6.072  11.526 -0.7748 -0.8887  0.4426
19638TIP3    H280406   2.445   6.193  11.616 -0.6509 -0.5515 -0.0280
19639TIP3   OH280407   6.796   5.961   3.286 -0.4021  0.4148  0.1935
19639TIP3    H180408   6.755   5.944   3.201 -2.4613  0.6658  1.0928
19639TIP3    H280409   6.766   5.890   3.342 -0.4602  1.1947  1.1675
19640TIP3   OH280410   4.700   2.751   0.812 -0.0201  0.9419  0.0633
19640TIP3    H180411   4.676   2.680   0.752 -0.0784  1.3985 -0.4667
19640TIP3    H280412   4.795   2.744   0.819 -0.0889  0.4321  0.4991
19641TIP3   OH280413   1.190   2.506   4.544  0.4525 -0.1406 -0.1783
19641TIP3    H180414   1.157   2.575   4.602  0.4891  0.9675 -1.4397
19641TIP3    H280415   1.265   2.469   4.592 -0.8386 -0.7723  1.4502
19642TIP3   OH280416   3.513   6.614  12.224 -0.3642  0.6232 -0.3028
19642TIP3    H180417   3.435   6.563  12.204  0.8740 -0.4309 -2.9024
19642TIP3    H280418   3.551   6.572  12.301 -0.1978 -1.4650 -1.4777
19643TIP3   OH280419   4.219   6.342   2.193  0.2179 -0.4688  0.2843
19643TIP3    H180420   4.274   6.413   2.228  0.1326  0.4901 -1.4348
19643TIP3    H280421   4.281   6.278   2.159  0.3566  0.6108 -1.6497
19644TIP3   OH280422   1.082   0.397  11.389  0.1303 -0.2750  0.1711
19644TIP3    H180423   1.102   0.312  11.350  0.7542  0.9965 -2.4803
19644TIP3    H280424   0.994   0.387  11.425 -0.8812 -1.3613 -2.4009
19645TIP3   OH280425   6.743   5.514  14.875  0.4603  0.3715 -0.0731
19645TIP3    H180426   6.793   5.547  14.800  0.7690  1.1785  0.4701
19645TIP3    H280427   6.759   5.420  14.875  0.9148  0.4385 -0.6878
19646TIP3   OH280428   3.740   5.359   4.566  0.4612 -0.0251 -0.4565
19646TIP3    H180429   3.715   5.320   4.482 -1.0713  0.3533 -0.2035
19646TIP3    H280430   3.753   5.452   4.547  3.1284 -0.3922 -0.8510
19647TIP3   OH280431   3.568   4.526   4.097  0.3109 -0.1045  0.0461
19647TIP3    H180432   3.480   4.498   4.120 -0.0752 -0.5251 -1.7676
19647TIP3    H280433   3.620   4.446   4.097  0.4034 -0.0461 -0.0966
19648TIP3   OH280434   1.110   6.034  17.030 -0.5960  0.7824 -0.4316
19648TIP3    H180435   1.134   5.941  17.031  1.5485  1.2029  2.4369
19648TIP3    H280436   1.161   6.072  16.958 -1.0909 -0.1347 -1.2873
19649TIP3   OH280437   0.351   5.977  14.449 -0.2382 -0.6487 -0.0675
19649TIP3    H180438   0.278   5.934  14.494  0.5128 -2.6644 -0.6682
19649TIP3    H280439   0.321   5.986  14.359  0.4145 -1.9917 -0.4440
19650TIP3   OH280440   1.947   5.546  11.433  0.1814 -0.3259 -0.1432
19650TIP3    H180441   1.942   5.455  11.403 -1.4295 -0.6300  0.9064
19650TIP3    H280442   1.900   5.596  11.366 -0.6749 -0.5628  0.2676
19651TIP3   OH280443   4.413   6.807  15.786  0.2260  0.2275 -0.3277
19651TIP3    H180444   4.456   6.886  15.817 -1.2015  0.6280  0.7789
19651TIP3    H280445   4.320   6.830  15.785 -0.2705 -1.5714  0.5071
19652TIP3   OH280446   4.386   1.046   4.124 -0.5516  0.1162  0.1011
19652TIP3    H180447   4.345   0.985   4.062 -0.0654 -0.7759  0.6400
19652TIP3    H280448   4.340   1.031   4.206 -0.6276  0.6999  0.1662
19653TIP3   OH280449   6.198   5.030   1.830  0.1232  0.0919  0.0189
19653TIP3    H180450   6.137   4.959   1.811 -0.1779 -0.1490  1.7005
19653TIP3    H280451   6.188   5.091   1.756 -1.4419 -0.4120 -0.2349
19654TIP3   OH280452   0.247   4.558  12.187 -0.1323 -0.2463  0.2642
19654TIP3    H180453   0.179   4.513  12.137  0.2736 -0.5631 -0.0121
19654TIP3    H280454   0.223   4.544  12.278  1.1362 -2.9032  0.2602
19655TIP3   OH280455   3.003   1.581   3.305  0.2167  0.6842  0.1985
19655TIP3    H180456   2.964   1.647   3.248 -0.7101 -0.4131 -0.4771
19655TIP3    H280457   3.084   1.555   3.260 -0.2445  0.2015 -0.3633
19656TIP3   OH280458   3.939   5.157   1.777  0.0421  0.1495  0.0913
19656TIP3    H180459   4.008   5.137   1.840 -0.8449 -1.1236  0.7104
19656TIP3    H280460   3.971   5.233   1.729  1.2938  0.3766  1.2312
19657TIP3   OH280461   3.435   0.974   0.281  0.0454 -0.3329  0.2912
19657TIP3    H180462   3.444   1.064   0.312 -0.3043 -0.5142  0.9417
19657TIP3    H280463   3.383   0.930   0.349  1.1240 -1.3091  0.5155
19658TIP3   OH280464   3.337   6.340  16.044 -0.4401 -0.8162  0.4566
19658TIP3    H180465   3.340   6.262  15.988  0.3653 -0.9246  0.6397
19658TIP3    H280466   3.372   6.310  16.128  0.8129 -0.0230  0.2376
19659TIP3   OH280467   6.385   6.624  14.868 -0.2094 -0.4627  0.5223
19659TIP3    H180468   6.391   6.661  14.956  0.1061 -1.1700  0.7999
19659TIP3    H280469   6.447   6.675  14.816  2.4311 -2.4519  1.5572
19660TIP3   OH280470   2.358   1.280   4.385  0.5257 -0.0758 -0.4480
19660TIP3    H180471   2.280   1.298   4.438  2.2761 -0.0555  2.3940
19660TIP3    H280472   2.420   1.348   4.411  1.2958  0.3687 -3.1832
19661TIP3   OH280473   2.328   1.319  15.032 -0.1238 -0.3854 -0.0548
19661TIP3    H180474   2.303   1.284  14.947  0.8887 -1.3508  0.0251
19661TIP3    H280475   2.377   1.398  15.012  0.3217 -0.7424 -0.3835
19662TIP3   OH280476   0.052   5.346  15.317 -0.0017 -0.3365  0.2413
19662TIP3    H180477   0.109   5.403  15.266 -0.5063  0.0845  0.1455
19662TIP3    H280478  -0.034   5.355  15.277 -0.5588  0.5134  1.5720
19663TIP3   OH280479   5.312   5.948  13.625  0.4691  0.4729 -0.0310
19663TIP3    H180480   5.217   5.951  13.630  0.3698  1.7637 -1.5706
19663TIP3    H280481   5.336   5.859  13.650 -1.2337 -0.2144 -0.7376
19664TIP3   OH280482   5.899   0.825  14.955 -0.0591 -0.4713 -0.0233
19664TIP3    H180483   5.930   0.813  15.045 -0.2924 -2.5810 -0.1736
19664TIP3    H280484   5.962   0.775  14.902 -1.3206 -1.3363 -0.7505
19665TIP3   OH280485   2.259   5.078  14.468 -0.0532  0.4590 -0.0525
19665TIP3    H180486   2.331   5.026  14.430 -0.6280  0.4021 -1.1145
19665TIP3    H280487   2.192   5.014  14.490 -0.0570  0.5821  0.2981
19666TIP3   OH280488   5.811   5.019   2.920  0.1364  0.3812  0.1640
19666TIP3    H180489   5.810   4.928   2.889 -0.3466 -0.1365  1.5904
19666TIP3    H280490   5.903   5.046   2.915  0.6408 -0.9019  1.5966
19667TIP3   OH280491   4.309   4.506   5.766 -0.1678 -0.3899 -0.7055
19667TIP3    H180492   4.368   4.434   5.790 -1.6860 -1.0996  1.1102
19667TIP3    H280493   4.368   4.575   5.735  1.5546 -1.3637  0.2292
19668TIP3   OH280494   4.807   4.300  14.919 -0.6307 -0.2306 -0.1614
19668TIP3    H180495   4.739   4.348  14.967  1.6923  0.8268  2.2974
19668TIP3    H280496   4.798   4.210  14.949 -0.5497  0.0336  0.6853
19669TIP3   OH280497   4.534   5.197   4.596  0.0639  0.2366  0.9487
19669TIP3    H180498   4.570   5.199   4.685  1.3697 -1.1693  0.5075
19669TIP3    H280499   4.498   5.109   4.587 -3.4749  1.4879  1.2727
19670TIP3   OH280500   3.949   0.987   4.897 -0.1377  0.2577 -0.0275
19670TIP3    H180501   3.969   1.073   4.862 -2.0773 -0.1425 -2.3935
19670TIP3    H280502   3.906   1.004   4.981 -0.5234  1.6079 -0.4770
19671TIP3   OH280503   4.657   5.574   6.210 -0.4509  0.2164 -0.0138
19671TIP3    H180504   4.640   5.502   6.150  1.2953 -0.0013 -0.3117
19671TIP3    H280505   4.646   5.653   6.158  1.2188  0.0235 -0.7203
19672TIP3   OH280506   5.042   3.716   2.665 -0.0857 -0.2739  0.1706
19672TIP3    H180507   5.128   3.755   2.681 -0.7521  0.8913  0.9441
19672TIP3    H280508   5.044   3.634   2.714  0.7159 -0.4454 -0.1296
19673TIP3   OH280509   5.908   3.040  15.338  0.0480  0.6785 -0.5257
19673TIP3    H180510   5.853   2.962  15.345 -2.4590  2.2357 -1.6590
19673TIP3    H280511   5.887   3.077  15.252  0.7390  2.8919  0.2010
19674TIP3   OH280512   4.846   6.780  17.038  0.0548 -0.2877  0.4274
19674TIP3    H180513   4.921   6.833  17.064 -0.7524  2.1807 -1.8907
19674TIP3    H280514   4.883   6.714  16.979  0.6973 -0.6082  1.1706
19675TIP3   OH280515   5.619   1.624  13.637 -0.3977 -0.2630 -0.0175
19675TIP3    H180516   5.703   1.670  13.634  0.1622 -1.2211  0.3449
19675TIP3    H280517   5.614   1.589  13.726 -1.1705 -0.2307 -0.0431
19676TIP3   OH280518   4.412   5.798   2.163  0.5144  0.1945 -0.1165
19676TIP3    H180519   4.368   5.818   2.245 -0.6004  0.7141 -0.8157
19676TIP3    H280520   4.479   5.735   2.187 -0.3885 -0.3643  1.0543
19677TIP3   OH280521   2.693   0.908  13.766  0.2272  0.0250  1.2405
19677TIP3    H180522   2.707   0.898  13.672 -0.0815  0.7380  1.1151
19677TIP3    H280523   2.642   0.988  13.775  1.5170  0.7987  2.1027
19678TIP3   OH280524   2.529   5.804   5.022  0.3287  0.3499 -0.1615
19678TIP3    H180525   2.604   5.798   5.082 -0.0703  0.7737  0.3945
19678TIP3    H280526   2.453   5.783   5.077  0.0065  0.2524 -0.6397
19679TIP3   OH280527   6.729   5.783   3.483  0.2158 -0.1107  0.6608
19679TIP3    H180528   6.699   5.708   3.535 -2.0752  1.1323  1.2714
19679TIP3    H280529   6.738   5.854   3.547 -1.7813  1.2196 -0.4361
19680TIP3   OH280530   4.064   6.270  12.253  0.5090  0.2393  0.5053
19680TIP3    H180531   4.144   6.258  12.203  1.0154  0.8151  1.1422
19680TIP3    H280532   4.063   6.197  12.315 -0.2189 -0.5829 -0.4533
19681TIP3   OH280533   5.813   1.012   0.311 -0.7406  0.3691  0.2910
19681TIP3    H180534   5.869   0.934   0.299 -0.5903  0.3813  0.8861
19681TIP3    H280535   5.816   1.029   0.405 -0.3501  1.4080  0.1071
19682TIP3   OH280536   0.348   1.237   1.096 -0.0353  0.5852  0.2091
19682TIP3    H180537   0.296   1.258   1.019  2.9232  1.2842 -1.7431
19682TIP3    H280538   0.289   1.186   1.152 -2.7825  1.4228 -1.7362
19683TIP3   OH280539   5.308   1.549   3.059  0.2916 -0.5045  0.1138
19683TIP3    H180540   5.276   1.489   3.126 -0.2612 -2.0309 -1.4645
19683TIP3    H280541   5.392   1.512   3.032  0.6250  0.2328  0.1008
19684TIP3   OH280542   1.599   6.751  12.267 -0.0466  0.2355  0.4964
19684TIP3    H180543   1.518   6.802  12.258 -0.8500 -0.7732  1.6406
19684TIP3    H280544   1.656   6.783  12.197 -1.3193  1.1962 -0.1358
19685TIP3   OH280545   0.105   6.382   2.817 -0.1530  0.7156  0.0473
19685TIP3    H180546   0.039   6.437   2.775  0.2084  0.6918 -0.5587
19685TIP3    H280547   0.090   6.394   2.911  1.6100  4.0022  0.0477
19686TIP3   OH280548   2.778   0.931  12.142 -0.1366 -0.0949 -0.2894
19686TIP3    H180549   2.743   0.886  12.218  0.4882 -1.2020 -0.6351
19686TIP3    H280550   2.703   0.946  12.086 -0.5249  0.2938  0.3202
19687TIP3   OH280551   4.201   0.710  14.338 -0.0179 -0.1067 -0.5446
19687TIP3    H180552   4.260   0.726  14.412 -1.5858 -2.7044  1.4251
19687TIP3    H280553   4.174   0.619  14.348 -1.3174 -0.1890 -3.6529
19688TIP3   OH280554   4.410   0.679   4.535 -0.6105 -0.4623 -0.6804
19688TIP3    H180555   4.376   0.591   4.549 -0.0745 -0.5178  0.3842
19688TIP3    H280556   4.343   0.737   4.572 -0.0018 -0.5360  0.6088
19689TIP3   OH280557   5.553   2.336  15.400  0.2421 -0.3797  0.3844
19689TIP3    H180558   5.600   2.410  15.439 -0.4279 -0.4761  1.4178
19689TIP3    H280559   5.541   2.275  15.472 -0.9362 -0.6254 -0.0030
19690TIP3   OH280560   4.975   0.286  16.847 -0.8600 -0.2997  0.1171
19690TIP3    H180561   4.986   0.227  16.921 -1.5872  1.6726  1.8915
19690TIP3    H280562   5.060   0.288  16.803 -0.1969 -0.9245  1.3543
19691TIP3   OH280563   6.270   2.531  12.664 -0.5920 -0.0683  1.0951
19691TIP3    H180564   6.271   2.627  12.654  0.9130 -0.2209 -0.7560
19691TIP3    H280565   6.205   2.502  12.600  1.5559 -0.4194 -1.1023
19692TIP3   OH280566   5.855   1.781  17.191  0.3566 -0.1385  0.5142
19692TIP3    H180567   5.872   1.825  17.107  1.6932 -0.2328  0.7213
19692TIP3    H280568   5.907   1.701  17.187 -1.0853 -1.1292  0.6595
19693TIP3   OH280569   0.882   3.621   5.816 -0.2082 -0.4345  0.1921
19693TIP3    H180570   0.869   3.569   5.736 -0.7867  0.7462 -0.5058
19693TIP3    H280571   0.840   3.570   5.885 -2.6993  0.0898 -0.8544
19694TIP3   OH280572   1.433   3.084  11.460 -0.3417  0.5898 -0.3324
19694TIP3    H180573   1.466   3.017  11.520 -0.7172  1.6278  1.1005
19694TIP3    H280574   1.508   3.104  11.404  0.3747  0.3596  0.5039
19695TIP3   OH280575   6.060   5.746   1.338  0.5697 -0.2363  0.0952
19695TIP3    H180576   6.004   5.757   1.414 -0.0397 -0.2329 -0.3498
19695TIP3    H280577   6.065   5.651   1.325 -1.8317 -0.2131 -1.6635
19696TIP3   OH280578   2.487   0.552  16.922  0.3590 -0.2466 -0.0966
19696TIP3    H180579   2.539   0.505  16.857  1.0192  1.4327 -0.8469
19696TIP3    H280580   2.410   0.584  16.873  0.4911  0.4034  0.1082
19697TIP3   OH280581   5.215   6.629   2.234 -0.2309 -0.4358  0.0244
19697TIP3    H180582   5.130   6.665   2.209 -0.1659  0.7808  1.4049
19697TIP3    H280583   5.246   6.584   2.156 -2.0660 -0.7640 -0.5483
19698TIP3   OH280584   2.552   2.590  16.437 -0.1341  0.4346  0.2142
19698TIP3    H180585   2.593   2.512  16.473  0.1309  0.6279  0.3372
19698TIP3    H280586   2.460   2.565  16.424 -0.0839  0.1509  0.3907
19699TIP3   OH280587   5.442   1.559  13.141 -0.0937 -0.0336  0.8525
19699TIP3    H180588   5.457   1.567  13.235  1.1284  0.2435  0.6456
19699TIP3    H280589   5.423   1.466  13.129  2.9363 -0.8042  1.0100
19700TIP3   OH280590   1.771   3.589  13.932 -0.2522 -0.4504 -0.1383
19700TIP3    H180591   1.839   3.649  13.961 -1.1720 -0.4593  2.2973
19700TIP3    H280592   1.817   3.506  13.917  0.2050 -0.7402  2.4625
19701TIP3   OH280593   1.434   5.317  12.985 -0.1884  0.1679 -0.6143
19701TIP3    H180594   1.409   5.406  13.010  1.4569  0.6848 -0.6639
19701TIP3    H280595   1.351   5.270  12.976 -1.0468  1.4288  0.3723
19702TIP3   OH280596   3.740   0.813  16.926 -0.6305 -0.2560 -0.2867
19702TIP3    H180597   3.740   0.718  16.912 -0.1312 -0.1226 -1.3613
19702TIP3    H280598   3.693   0.826  17.008 -0.7050 -1.4326 -0.1275
19703TIP3   OH280599   1.480   0.534   0.296 -0.1670  0.2122 -0.2630
19703TIP3    H180600   1.388   0.560   0.298 -0.2809 -0.1566  1.3862
19703TIP3    H280601   1.483   0.455   0.351  0.9362 -0.4805 -1.2814
19704TIP3   OH280602   0.352   6.060   4.936 -0.0921 -0.3533  0.7010
19704TIP3    H180603   0.266   6.100   4.918  0.4899 -0.0177 -1.6784
19704TIP3    H280604   0.391   6.116   5.002 -0.6253  1.1572 -0.2069
19705TIP3   OH280605   2.675   1.873  13.495  0.4167 -0.2160 -0.1140
19705TIP3    H180606   2.749   1.932  13.484  0.9989 -0.8664  0.2537
19705TIP3    H280607   2.676   1.850  13.588 -0.9779  0.7150  0.1640
19706TIP3   OH280608   4.998   5.421   0.059 -0.1219  0.0774 -0.0875
19706TIP3    H180609   5.074   5.362   0.067  0.5146  0.9626  0.5695
19706TIP3    H280610   4.974   5.416  -0.033 -0.3888 -1.5682  0.0263
19707TIP3   OH280611   3.565   4.372  13.341  0.1145  0.4573 -0.0578
19707TIP3    H180612   3.505   4.384  13.268  0.1433 -1.3997 -0.4297
19707TIP3    H280613   3.613   4.292  13.321  2.0915  1.3686  0.6797
19708TIP3   OH280614   0.249   5.314   1.078  0.5717  0.2956  0.2406
19708TIP3    H180615   0.318   5.282   1.136  1.6299 -1.3377 -1.8181
19708TIP3    H280616   0.198   5.374   1.133  1.6753 -0.9301  2.7547
19709TIP3   OH280617   1.636   0.559  16.879  0.1411  0.2268 -0.4706
19709TIP3    H180618   1.558   0.505  16.890  0.0019  0.6599  0.8561
19709TIP3    H280619   1.602   0.645  16.855  0.3677 -0.2410 -2.7008
19710TIP3   OH280620   3.691   5.496  11.437  0.6751  0.6347 -0.1817
19710TIP3    H180621   3.610   5.447  11.450  0.4961  0.8886 -0.3257
19710TIP3    H280622   3.676   5.545  11.356  0.8805  0.8654 -0.0799
19711TIP3   OH280623   1.927   3.197   5.195 -0.6876  0.2938  0.6141
19711TIP3    H180624   1.983   3.159   5.127 -0.9092 -0.7606  0.9923
19711TIP3    H280625   1.984   3.258   5.242 -0.4506  0.8156 -0.3149
19712TIP3   OH280626   4.640   6.562  13.954  0.5527 -0.0514 -0.2264
19712TIP3    H180627   4.605   6.604  13.876  0.5259 -1.3480 -0.9443
19712TIP3    H280628   4.699   6.495  13.921  1.4820  0.1741  0.9114
19713TIP3   OH280629   6.530   5.738   4.320  0.7288 -0.1002  0.1248
19713TIP3    H180630   6.617   5.726   4.283  0.3796 -0.2877 -0.6642
19713TIP3    H280631   6.545   5.751   4.413  1.5176 -1.6479  0.2558
19714TIP3   OH280632   2.686   5.266   4.936 -0.5571  0.2040  0.4175
19714TIP3    H180633   2.738   5.326   4.990 -1.5242 -0.6075  2.3504
19714TIP3    H280634   2.598   5.305   4.935 -0.5321  0.2517 -0.6914
19715TIP3   OH280635   1.302   0.508   5.213 -0.5344  0.2464  0.7148
19715TIP3    H180636   1.331   0.417   5.214  0.5774  0.5466 -1.1732
19715TIP3    H280637   1.222   0.507   5.160  0.9878  0.7163 -1.7346
19716TIP3   OH280638   3.521   0.416   5.662 -0.0671  0.3199  0.0533
19716TIP3    H180639   3.476   0.480   5.718  1.3014  1.1382  0.2771
19716TIP3    H280640   3.518   0.334   5.711 -3.2388 -0.2622 -0.9276
19717TIP3   OH280641   5.753   2.678  13.347  0.1280 -0.0571 -0.7180
19717TIP3    H180642   5.663   2.707  13.335 -0.9305 -2.6925  0.2669
19717TIP3    H280643   5.780   2.647  13.260  0.2284  0.9959 -1.0773
19718TIP3   OH280644   1.236   2.789  15.607  0.0783  0.2377  0.3838
19718TIP3    H180645   1.195   2.827  15.685 -1.3260 -1.4631  0.5155
19718TIP3    H280646   1.324   2.828  15.605 -1.0675  3.0701  0.7725
19719TIP3   OH280647   4.325   3.368   0.596 -0.5217  0.7269  0.4107
19719TIP3    H180648   4.273   3.442   0.628  1.1762  1.7773  0.8357
19719TIP3    H280649   4.409   3.376   0.640 -0.0334 -1.0518 -0.1064
19720TIP3   OH280650   5.192   1.580   1.696  0.2532  0.3972 -0.1970
19720TIP3    H180651   5.264   1.633   1.663  1.8446 -1.8905 -0.5546
19720TIP3    H280652   5.179   1.512   1.630  0.0177 -1.1842  1.4007
19721TIP3   OH280653   0.788   1.453   2.464 -0.1130  0.1651 -0.0614
19721TIP3    H180654   0.823   1.512   2.531  0.7185 -0.1675 -0.1938
19721TIP3    H280655   0.842   1.469   2.387 -1.0761  0.5585 -0.6755
19722TIP3   OH280656   5.172   5.232   4.734  0.1017  0.4359  0.2167
19722TIP3    H180657   5.201   5.142   4.752 -0.2063  0.1043 -0.9135
19722TIP3    H280658   5.203   5.281   4.810 -0.1667 -0.7096  1.1048
19723TIP3   OH280659   6.031   5.232   1.231  0.0046 -0.5156 -0.2106
19723TIP3    H180660   5.935   5.231   1.228  0.0130  0.1524 -2.8422
19723TIP3    H280661   6.055   5.143   1.255 -1.2959 -2.0436 -3.9244
19724TIP3   OH280662   6.381   1.324  13.730 -0.1660  0.1532 -0.0372
19724TIP3    H180663   6.305   1.378  13.752 -0.0466  0.3001  0.0159
19724TIP3    H280664   6.345   1.236  13.720 -0.5845  0.4638 -1.4668
19725TIP3   OH280665   6.762   3.056  11.244 -0.3658  0.1437 -0.0386
19725TIP3    H180666   6.800   2.985  11.295 -1.1379 -1.4295 -1.5610
19725TIP3    H280667   6.810   3.134  11.272  2.2918 -1.3435 -0.1014
19726TIP3   OH280668   4.185   4.176  12.136  0.4518 -0.2808 -0.3426
19726TIP3    H180669   4.179   4.268  12.110  1.6110  0.0449  0.4822
19726TIP3    H280670   4.109   4.162  12.193 -0.7362 -0.3449 -1.8624
19727TIP3   OH280671   1.315   3.396  17.180 -0.3795  0.4568 -0.2347
19727TIP3    H180672   1.384   3.447  17.138 -0.8564 -0.5932 -2.4568
19727TIP3    H280673   1.261   3.461  17.225  0.8478  1.5125 -0.2543
19728TIP3   OH280674   3.250   2.555   0.458  0.2216 -0.0424  0.7517
19728TIP3    H180675   3.345   2.549   0.453  0.1731 -0.5478  0.2487
19728TIP3    H280676   3.223   2.477   0.507 -0.0209 -0.7371 -0.4335
19729TIP3   OH280677   3.625   4.990   2.259  0.3885  0.0857 -0.3248
19729TIP3    H180678   3.590   4.907   2.227 -0.3045 -0.0286  0.6721
19729TIP3    H280679   3.596   4.995   2.350 -1.2445  2.3289 -0.8854
19730TIP3   OH280680   4.803   1.024  14.137  0.1924  0.3767 -0.2518
19730TIP3    H180681   4.711   1.005  14.122  0.2980 -1.5894  1.1565
19730TIP3    H280682   4.835   1.055  14.053 -1.6316  0.6002 -0.9117
19731TIP3   OH280683   0.037   0.150  14.345  0.3179 -0.1976  0.0006
19731TIP3    H180684  -0.019   0.116  14.275 -2.5251 -0.0769  2.0395
19731TIP3    H280685   0.070   0.233  14.311 -1.5605  0.2017 -0.9747
19732TIP3   OH280686   3.778   4.965  13.325  0.1765  0.3910  0.0103
19732TIP3    H180687   3.760   5.058  13.314 -2.4096  0.1031  1.0432
19732TIP3    H280688   3.774   4.951  13.420  0.2819 -0.8084 -0.1473
19733TIP3   OH280689   1.114   2.440  15.166 -0.7736 -0.0061 -0.1203
19733TIP3    H180690   1.193   2.438  15.113 -0.3247  2.6606  0.3049
19733TIP3    H280691   1.144   2.422  15.255 -0.6767  0.5931 -0.0246
19734TIP3   OH280692   5.713   1.369   0.874  0.3155 -0.4890 -0.5153
19734TIP3    H180693   5.793   1.371   0.926  1.4260  1.9900 -2.0988
19734TIP3    H280694   5.743   1.373   0.783 -1.5440  1.8660 -1.1377
19735TIP3   OH280695   0.415   5.691   0.868  0.6880 -0.0056  0.1056
19735TIP3    H180696   0.449   5.764   0.816 -0.5343  0.6716  0.2202
19735TIP3    H280697   0.342   5.657   0.817  1.5135 -1.4581 -0.1518
19736TIP3   OH280698   5.743   5.848  10.337  0.4281 -0.1937  0.3706
19736TIP3    H180699   5.822   5.879  10.294  0.2360  0.4430  0.4579
19736TIP3    H280700   5.745   5.753  10.327 -0.7754  0.0026 -3.1201
19737TIP3   OH280701   2.504   3.398   2.980 -0.4019 -0.3841 -0.2139
19737TIP3    H180702   2.550   3.460   2.924 -0.9804  1.8872  1.6686
19737TIP3    H280703   2.417   3.390   2.941 -0.0060 -0.7826 -1.0182
19738TIP3   OH280704   3.247   1.305   3.940 -0.4257 -0.2618 -0.0946
19738TIP3    H180705   3.233   1.212   3.960 -0.2696 -0.2281  0.1915
19738TIP3    H280706   3.305   1.335   4.010 -0.6928  0.1168 -0.0328
19739TIP3   OH280707   4.414   4.962   3.205 -0.4365 -0.2685  0.3766
19739TIP3    H180708   4.377   4.970   3.294  0.5925 -0.1237  0.8004
19739TIP3    H280709   4.396   4.871   3.181 -0.4096 -0.4113  0.8771
19740TIP3   OH280710   4.457   1.588   5.938  0.3171  0.6885  0.0329
19740TIP3    H180711   4.381   1.557   5.987  0.7076  0.3927  0.4502
19740TIP3    H280712   4.510   1.635   6.002  0.4498  0.9608 -0.2743
19741TIP3   OH280713   3.348   0.718  14.699 -0.3924 -0.0041 -0.2548
19741TIP3    H180714   3.316   0.772  14.627  1.4302  1.3178 -0.1524
19741TIP3    H280715   3.341   0.776  14.776 -1.0973 -0.9486  0.4180
19742TIP3   OH280716   4.104   0.656  14.019 -0.0978  0.3491  0.0246
19742TIP3    H180717   4.053   0.575  14.025 -0.0335  0.2116 -1.1213
19742TIP3    H280718   4.074   0.709  14.093 -0.6444 -0.4395  0.3742
19743TIP3   OH280719   0.721   6.779   3.455  0.4333  0.2885  0.3253
19743TIP3    H180720   0.768   6.743   3.379 -0.4880 -1.7152  0.6370
19743TIP3    H280721   0.651   6.831   3.416  0.0440 -0.6178 -0.2325
19744TIP3   OH280722   6.816   3.378   3.572 -0.3648  0.3705 -0.4210
19744TIP3    H180723   6.899   3.426   3.572  0.5390 -1.1479 -0.4366
19744TIP3    H280724   6.824   3.317   3.499 -1.1138 -0.4392  0.1611
19745TIP3   OH280725   0.815   6.030   1.193  0.6080  0.0201  0.1750
19745TIP3    H180726   0.780   5.965   1.132 -0.8350  0.0809  0.8877
19745TIP3    H280727   0.894   5.989   1.230  0.5999 -0.6597 -0.5464
19746TIP3   OH280728   0.311   3.654  15.140 -0.6025  0.2931  0.5838
19746TIP3    H180729   0.233   3.684  15.187 -0.9361  2.3766 -1.1498
19746TIP3    H280730   0.355   3.734  15.113  0.4385 -0.8137 -1.2154
19747TIP3   OH280731   1.156   4.351  14.831 -0.4343  0.1273 -0.1153
19747TIP3    H180732   1.231   4.302  14.799  0.5626  2.7335 -2.1187
19747TIP3    H280733   1.080   4.302  14.799  0.4168 -1.3797  0.0777
19748TIP3   OH280734   3.497   0.300   2.493  0.1434 -0.4677 -0.6730
19748TIP3    H180735   3.441   0.340   2.426 -1.8259 -0.6587  0.7770
19748TIP3    H280736   3.460   0.330   2.576  1.3304 -1.7833  0.3785
19749TIP3   OH280737   4.633   3.011  17.112 -0.0099 -0.3252  0.5961
19749TIP3    H180738   4.649   2.947  17.042 -1.1970 -1.4641  1.3160
19749TIP3    H280739   4.717   3.056  17.124  1.0618 -2.2027  0.5161
19750TIP3   OH280740   6.682   5.590  16.680 -0.5104  0.3112  0.4033
19750TIP3    H180741   6.754   5.582  16.617 -2.1438 -1.1181 -1.4273
19750TIP3    H280742   6.686   5.509  16.731 -3.4342 -2.2369 -2.8677
19751TIP3   OH280743   6.648   0.886  16.101  0.0448  0.1936 -0.1571
19751TIP3    H180744   6.619   0.802  16.067 -0.2531  0.6985 -1.2177
19751TIP3    H280745   6.680   0.868  16.189 -0.3316 -0.9594 -0.2497
19752TIP3   OH280746   2.045   2.827   2.910 -0.8140 -0.0063 -0.0455
19752TIP3    H180747   2.131   2.807   2.872 -0.7495  1.9228 -1.0128
19752TIP3    H280748   2.065   2.867   2.995 -0.8897 -1.9876  0.9707
19753TIP3   OH280749   1.307   2.966  14.961 -0.1114  0.2489 -0.1100
19753TIP3    H180750   1.302   2.957  15.056  0.3036  1.0652  0.0063
19753TIP3    H280751   1.389   3.014  14.946  0.1868 -0.4732 -0.9289
19754TIP3   OH280752   5.582   3.577  12.442  0.1132 -0.2440 -0.1235
19754TIP3    H180753   5.597   3.510  12.508 -0.4919 -0.0688  0.1950
19754TIP3    H280754   5.612   3.658  12.482 -1.3256  0.0530  0.3891
19755TIP3   OH280755   0.945   2.693   1.923 -0.0413  1.1472  0.3472
19755TIP3    H180756   0.850   2.684   1.911  0.0802  1.8829 -1.5156
19755TIP3    H280757   0.982   2.663   1.840  1.5929 -1.9577  2.0207
19756TIP3   OH280758   1.872   6.537   6.402 -0.1444 -0.3469  0.0867
19756TIP3    H180759   1.850   6.458   6.450 -0.2573 -1.5179 -1.8058
19756TIP3    H280760   1.968   6.542   6.406 -0.0153 -1.4383 -1.0191
19757TIP3   OH280761   0.843   2.960   1.914  0.1147 -0.1272 -0.2374
19757TIP3    H180762   0.890   2.879   1.934  1.1701  1.1883  3.4307
19757TIP3    H280763   0.913   3.026   1.907 -0.8268  1.4954  3.2391
19758TIP3   OH280764   6.715   0.954  11.873 -0.3677 -0.1353  0.3492
19758TIP3    H180765   6.778   0.919  11.810 -1.3011 -0.8388 -0.2149
19758TIP3    H280766   6.713   1.048  11.857 -1.0168 -0.3747 -1.0680
19759TIP3   OH280767   4.180   3.357  11.917 -0.0916 -0.6172 -0.5017
19759TIP3    H180768   4.116   3.322  11.855 -1.3498 -1.1507  1.0368
19759TIP3    H280769   4.127   3.399  11.985  1.2022 -0.6733  0.5896
19760TIP3   OH280770   1.332   0.886  12.865 -0.5279 -0.6157 -0.0234
19760TIP3    H180771   1.418   0.847  12.850 -0.8270 -1.3392  0.1120
19760TIP3    H280772   1.277   0.852  12.794 -0.6003  0.1997 -0.3787
19761TIP3   OH280773   1.432   3.848   4.745 -0.1257  0.7892 -0.6624
19761TIP3    H180774   1.377   3.779   4.707  0.5288 -0.2435  0.2048
19761TIP3    H280775   1.518   3.835   4.704 -0.5204  2.5356 -2.1828
19762TIP3   OH280776   4.118   4.546   4.723  0.2717 -0.1590  0.3788
19762TIP3    H180777   4.150   4.623   4.676 -1.3183  0.3284  0.0454
19762TIP3    H280778   4.100   4.482   4.654  1.0577 -0.6594  0.6146
19763TIP3   OH280779   0.040   2.623  15.131 -0.0268 -0.1706 -0.1225
19763TIP3    H180780  -0.047   2.583  15.122  0.2138 -0.7857  0.1944
19763TIP3    H280781   0.087   2.595  15.052  0.3852 -1.1703  0.4520
19764TIP3   OH280782   1.224   2.547  16.193  0.0610  0.3378 -0.4056
19764TIP3    H180783   1.156   2.516  16.133  0.5273 -2.6911  0.4998
19764TIP3    H280784   1.201   2.508  16.277  0.3356  3.1487  1.0841
19765TIP3   OH280785   5.987   0.680   0.800  0.1816  0.0545 -0.5702
19765TIP3    H180786   5.899   0.699   0.831 -0.5207 -1.3760 -1.5585
19765TIP3    H280787   6.021   0.614   0.861  0.3854  0.2616 -0.4592
19766TIP3   OH280788   2.785   4.348   3.516 -0.0364  0.3566  0.1990
19766TIP3    H180789   2.698   4.308   3.524 -0.2460  0.7290 -0.2030
19766TIP3    H280790   2.822   4.342   3.604 -0.1743 -0.4803  0.2079
19767TIP3   OH280791   6.124   4.873  13.515 -0.0362 -0.2804 -0.0953
19767TIP3    H180792   6.194   4.907  13.459 -0.3728  0.3001 -0.1830
19767TIP3    H280793   6.118   4.780  13.493  1.3052 -0.5379  0.5627
19768TIP3   OH280794   4.454   3.501   1.459 -0.3881 -0.4974  0.2624
19768TIP3    H180795   4.549   3.503   1.452 -0.3570 -0.4552  0.7069
19768TIP3    H280796   4.430   3.592   1.479 -0.5153 -0.5278  0.2461
19769TIP3   OH280797   0.018   4.373  13.959 -0.1974 -0.1463 -0.3264
19769TIP3    H180798  -0.077   4.373  13.943 -0.2835 -0.8289  0.1272
19769TIP3    H280799   0.043   4.465  13.953 -0.5632 -0.1294 -2.2918
19770TIP3   OH280800   1.133   6.220   0.748 -0.0396  0.0712 -0.0576
19770TIP3    H180801   1.151   6.199   0.657 -2.5675  1.3068 -0.9096
19770TIP3    H280802   1.159   6.141   0.796  2.2164 -0.2686 -1.6721
19771TIP3   OH280803   0.054   2.850   0.501 -0.3255 -0.0079  0.4814
19771TIP3    H180804   0.006   2.842   0.583 -1.0782  0.5735  0.1138
19771TIP3    H280805  -0.011   2.880   0.438  0.4787  0.6316 -0.0773
19772TIP3   OH280806   4.132   0.366  15.187  0.0531  0.3650 -0.1242
19772TIP3    H180807   4.079   0.332  15.260 -0.2229 -1.8658 -1.2897
19772TIP3    H280808   4.112   0.460  15.186 -0.0349  0.4758  2.5480
19773TIP3   OH280809   0.940   4.034  13.975 -0.2730 -0.5117 -0.3778
19773TIP3    H180810   0.907   4.033  14.065  1.1142  0.2054  0.1595
19773TIP3    H280811   1.009   3.968  13.973 -0.5172 -0.7560 -1.0110
19774TIP3   OH280812   6.153   5.622  11.667  0.1552  0.3444  0.5794
19774TIP3    H180813   6.093   5.600  11.738 -0.2920 -0.6235 -0.0855
19774TIP3    H280814   6.096   5.646  11.594  0.6119  1.2473  0.5027
19775TIP3   OH280815   5.332   2.621  13.226 -0.2577 -0.1790  0.2998
19775TIP3    H180816   5.406   2.673  13.194 -0.1110  0.6721  1.9226
19775TIP3    H280817   5.371   2.539  13.258  0.0018  0.2556  1.1229
19776TIP3   OH280818   1.843   0.657  13.786 -0.1542 -0.3782  0.3780
19776TIP3    H180819   1.877   0.567  13.791  0.5899 -0.3198 -2.1643
19776TIP3    H280820   1.922   0.712  13.784 -0.5967  0.5335  3.2276
19777TIP3   OH280821   6.271   3.118   0.605 -0.1922  0.7968  0.0594
19777TIP3    H180822   6.288   3.177   0.532 -0.8436  0.2944 -0.5061
19777TIP3    H280823   6.244   3.177   0.676  0.0539  1.2521 -0.2167
19778TIP3   OH280824   3.405   4.706  16.236 -0.1000  0.5167 -0.4425
19778TIP3    H180825   3.419   4.617  16.267  2.3731  0.5942 -1.1083
19778TIP3    H280826   3.328   4.700  16.179  0.0333 -1.1796 -0.4934
19779TIP3   OH280827   2.497   5.089   1.654  0.3755  0.2831  0.1075
19779TIP3    H180828   2.487   5.091   1.750  2.8363  2.5630  0.4369
19779TIP3    H280829   2.533   5.002   1.636  0.7029  0.1207  1.3925
19780TIP3   OH280830   1.441   3.093  11.853 -0.4040 -0.6106 -0.1483
19780TIP3    H180831   1.459   3.157  11.921 -1.1582 -0.3486 -0.1897
19780TIP3    H280832   1.346   3.078  11.858 -0.1130 -2.4506  0.5047
19781TIP3   OH280833   3.067   5.542   4.788  0.1194  0.2884  0.3943
19781TIP3    H180834   3.115   5.591   4.722  0.0620 -0.1541  0.0207
19781TIP3    H280835   3.010   5.484   4.738  0.6414 -0.6129  0.8213
19782TIP3   OH280836   5.788   2.921   4.650  0.4347 -0.3028 -0.0553
19782TIP3    H180837   5.856   2.854   4.655 -0.5089 -1.3564 -0.6261
19782TIP3    H280838   5.812   2.974   4.574  1.3811  0.2442  0.6117
19783TIP3   OH280839   5.377   2.016   1.260 -0.0395  0.1535  0.0988
19783TIP3    H180840   5.283   2.028   1.247 -0.2362  0.4752  1.6484
19783TIP3    H280841   5.389   1.923   1.275  0.2074 -0.2492 -2.2038
19784TIP3   OH280842   1.782   2.775   3.090 -0.4932 -0.4727 -0.2850
19784TIP3    H180843   1.776   2.782   2.995 -0.6721  1.4095 -0.1801
19784TIP3    H280844   1.720   2.840   3.123  1.1465  0.5027  1.0709
19785TIP3   OH280845   5.999   3.125  16.441  0.2524  0.1975 -0.1727
19785TIP3    H180846   5.913   3.143  16.479  0.2274 -1.6920  0.7793
19785TIP3    H280847   5.980   3.089  16.354  0.1986  1.9314 -0.9044
19786TIP3   OH280848   2.278   1.339   6.186  0.0267 -0.1368 -0.1445
19786TIP3    H180849   2.291   1.258   6.234  2.4518  1.2555  1.8064
19786TIP3    H280850   2.184   1.358   6.195 -0.1034 -1.4204  1.5798
19787TIP3   OH280851   0.813   1.150   4.331 -0.4868 -0.0555  0.2397
19787TIP3    H180852   0.779   1.167   4.419 -0.5040  0.2164  0.1818
19787TIP3    H280853   0.739   1.167   4.273 -0.0697  1.2744  0.0507
19788TIP3   OH280854   3.962   0.877   0.359 -0.1339  0.6179  0.1189
19788TIP3    H180855   3.965   0.892   0.453 -1.0380  0.9811  0.0977
19788TIP3    H280856   3.869   0.860   0.341  0.0289  0.5951 -0.7122
19789TIP3   OH280857   5.732   2.356   1.203 -0.1418 -0.5386 -0.0430
19789TIP3    H180858   5.753   2.439   1.161  2.1530 -0.9951  0.0773
19789TIP3    H280859   5.702   2.300   1.132 -0.3887 -0.0285 -0.3466
19790TIP3   OH280860   5.422   6.779   0.955  0.2957  0.2689 -0.4400
19790TIP3    H180861   5.442   6.857   0.903  0.8192  0.5128  0.1131
19790TIP3    H280862   5.341   6.800   1.000  0.5673  0.5989 -0.0990
19791TIP3   OH280863   4.311   1.074  12.377  0.2937  0.0529 -0.3109
19791TIP3    H180864   4.352   1.120  12.451 -0.9480 -0.7260  0.9159
19791TIP3    H280865   4.306   1.140  12.308  1.0218  0.9567  0.4708
19792TIP3   OH280866   5.644   2.200   0.602  0.5303  0.0935  0.5076
19792TIP3    H180867   5.618   2.149   0.526 -0.2737  1.0295  0.1227
19792TIP3    H280868   5.669   2.135   0.668  0.9792 -0.7347 -0.4554
19793TIP3   OH280869   2.300   1.714  15.219 -0.5314 -0.2076 -0.2801
19793TIP3    H180870   2.373   1.708  15.157  0.2986  2.8661  0.2561
19793TIP3    H280871   2.332   1.669  15.297  0.4416  0.3368 -0.3562
19794TIP3   OH280872   2.972   1.010  16.655  0.1792  0.0572 -0.2017
19794TIP3    H180873   2.882   0.994  16.684  0.5507  0.0887  1.0542
19794TIP3    H280874   2.967   1.012  16.560 -1.0219 -0.7166 -0.1778
19795TIP3   OH280875   2.419   3.298  11.761 -0.1964 -0.6720  0.0513
19795TIP3    H180876   2.509   3.331  11.753 -0.9131  1.0416 -1.2256
19795TIP3    H280877   2.420   3.215  11.713  0.1455  0.4984 -2.0483
19796TIP3   OH280878   2.117   4.648   3.999 -0.1014  0.3039  0.6317
19796TIP3    H180879   2.154   4.683   4.080  0.1675  0.9911  0.2146
19796TIP3    H280880   2.130   4.553   4.006  0.5088  0.4170  1.0986
19797TIP3   OH280881   6.607   1.481   2.768 -0.0546  0.2120  0.2303
19797TIP3    H180882   6.536   1.479   2.704 -0.1474  0.4842  0.3253
19797TIP3    H280883   6.564   1.468   2.853 -0.0100  0.5221  0.3028
19798TIP3   OH280884   4.097   3.806  15.390 -0.2283  0.1753  0.5157
19798TIP3    H180885   4.168   3.842  15.337  0.5637 -0.9716  0.7504
19798TIP3    H280886   4.054   3.883  15.428 -0.8985  1.0291 -1.8299
19799TIP3   OH280887   1.529   5.409   1.595  0.3559 -0.2513  0.9717
19799TIP3    H180888   1.543   5.315   1.595 -0.7270 -0.4326  1.3888
19799TIP3    H280889   1.606   5.445   1.638  1.4902 -0.8020 -0.5023
19800TIP3   OH280890   1.411   4.886  16.232  0.5632 -0.0016 -0.0332
19800TIP3    H180891   1.358   4.964  16.214  1.1958  0.4105 -0.1352
19800TIP3    H280892   1.458   4.870  16.151 -0.1561 -0.9677 -0.2714
19801TIP3   OH280893   4.739   6.692  10.511 -0.2319 -0.0878 -0.1745
19801TIP3    H180894   4.665   6.751  10.495 -0.7030 -0.0481  1.8352
19801TIP3    H280895   4.698   6.609  10.536  0.4242 -0.7187 -1.1521
19802TIP3   OH280896   4.554   1.147   0.612 -1.0372  0.0632 -0.6685
19802TIP3    H180897   4.585   1.111   0.695  1.4262 -0.1633 -1.6128
19802TIP3    H280898   4.596   1.233   0.606 -2.8119  0.9586 -0.7834
19803TIP3   OH280899   0.100   2.850  10.624 -0.1226 -0.2651  0.2306
19803TIP3    H180900   0.196   2.855  10.625 -0.0438 -1.5170 -0.0965
19803TIP3    H280901   0.072   2.920  10.684  0.9369  1.0062 -0.6957
19804TIP3   OH280902   1.681   2.102   0.295 -0.3778 -0.1365 -0.2932
19804TIP3    H180903   1.648   2.127   0.381 -0.3712 -0.5032 -0.1824
19804TIP3    H280904   1.734   2.177   0.266 -2.1907  0.9410 -0.9598
19805TIP3   OH280905   2.287   2.689   0.554  0.5733  0.3466 -0.4559
19805TIP3    H180906   2.317   2.602   0.528  1.8801  0.3942  0.7897
19805TIP3    H280907   2.210   2.705   0.500 -1.0215 -2.4784  0.7786
19806TIP3   OH280908   6.005   3.317  14.471 -0.2788 -0.1379 -0.0189
19806TIP3    H180909   6.048   3.382  14.527  0.9515 -0.5131 -0.4922
19806TIP3    H280910   5.920   3.302  14.512  0.4245 -0.0827  1.5096
19807TIP3   OH280911   0.921   5.650   1.620 -0.1292 -0.1736  0.3614
19807TIP3    H180912   0.833   5.633   1.588 -0.2339  1.2377 -0.1749
19807TIP3    H280913   0.933   5.589   1.693 -1.3807 -0.6729  0.1675
19808TIP3   OH280914   4.626   2.158  12.123 -0.3428 -0.0396  0.0054
19808TIP3    H180915   4.536   2.123  12.121 -0.0460 -0.8929  0.6206
19808TIP3    H280916   4.615   2.253  12.119 -1.2642 -0.1424 -0.1787
19809TIP3   OH280917   2.969   4.803   3.042  0.1819 -0.1739 -0.8623
19809TIP3    H180918   2.946   4.850   3.121  0.3498  0.1768 -1.0208
19809TIP3    H280919   2.954   4.711   3.063  0.1941 -0.0777 -0.4363
19810TIP3   OH280920   0.914   6.077  15.928 -0.1685  0.4342 -0.3521
19810TIP3    H180921   0.932   5.992  15.888  0.1628 -0.7235  2.0943
19810TIP3    H280922   0.826   6.099  15.899 -1.0499 -1.7255  0.5122
19811TIP3   OH280923   0.949   5.752   2.629 -0.3460 -0.0464  0.1013
19811TIP3    H180924   0.889   5.679   2.639  0.7750 -1.1354 -0.7072
19811TIP3    H280925   0.910   5.807   2.560 -0.0946 -1.1086 -0.9129
19812TIP3   OH280926   3.187   4.792   0.580  0.1804  0.5675 -0.2576
19812TIP3    H180927   3.178   4.715   0.524  0.0405  1.3658 -1.3588
19812TIP3    H280928   3.201   4.756   0.667 -0.7962 -0.7108 -0.5892
19813TIP3   OH280929   5.994   0.243  14.666 -0.4531  0.1233  0.3040
19813TIP3    H180930   5.964   0.238  14.575  1.2870 -2.3178 -0.2435
19813TIP3    H280931   5.913   0.238  14.717 -1.3510 -0.8547 -1.1181
19814TIP3   OH280932   3.344   4.962  17.135 -0.4524  0.6920  0.0249
19814TIP3    H180933   3.257   4.999  17.119 -1.0641 -1.1582 -1.2255
19814TIP3    H280934   3.390   4.972  17.052  0.5251  1.5124  0.6292
19815TIP3   OH280935   2.538   6.295   0.088  0.0590  0.1832  0.1637
19815TIP3    H180936   2.567   6.367   0.143 -1.8382 -0.2193  1.7937
19815TIP3    H280937   2.492   6.236   0.148  1.7103 -2.5374 -1.0365
19816TIP3   OH280938   0.536   5.696  14.091 -0.0725  0.7501 -0.0067
19816TIP3    H180939   0.606   5.681  14.026 -0.9696 -1.1752 -0.5902
19816TIP3    H280940   0.457   5.708  14.038 -0.5945  0.4911  0.7112
19817TIP3   OH280941   6.640   4.051  12.291 -0.0813 -0.0989 -0.4481
19817TIP3    H180942   6.646   4.064  12.197  0.0073 -0.5772 -0.5096
19817TIP3    H280943   6.731   4.038  12.319 -0.0888  0.2115 -0.2692
19818TIP3   OH280944   5.676   5.491  15.283 -0.4675  0.1794  0.2161
19818TIP3    H180945   5.750   5.531  15.329 -1.9238  1.5289  1.5109
19818TIP3    H280946   5.700   5.497  15.190  0.7514  1.1867  0.5639
19819TIP3   OH280947   4.801   5.333  14.206 -0.0102 -0.1244 -0.2400
19819TIP3    H180948   4.774   5.256  14.256  0.1892 -1.6524 -2.3269
19819TIP3    H280949   4.895   5.343  14.226 -0.3464  0.4933  1.1317
19820TIP3   OH280950   3.158   5.936   2.823  0.4915 -0.6025  0.0852
19820TIP3    H180951   3.189   5.897   2.905  0.5899  0.1470  0.4099
19820TIP3    H280952   3.102   6.008   2.850  0.0544 -0.7146 -0.5126
19821TIP3   OH280953   6.410   4.967   0.840 -0.5777  0.1245  0.0688
19821TIP3    H180954   6.378   5.028   0.773 -1.5514 -0.0534  0.3527
19821TIP3    H280955   6.477   4.916   0.796 -0.5528  0.6377 -0.5046
19822TIP3   OH280956   1.847   1.488   2.675 -0.0537 -1.0709  0.3899
19822TIP3    H180957   1.846   1.436   2.756 -0.2964 -1.4337  0.1541
19822TIP3    H280958   1.863   1.424   2.606  0.4592 -0.7204  0.1740
19823TIP3   OH280959   2.228   3.653  14.770  0.1711 -0.1679  0.2919
19823TIP3    H180960   2.297   3.631  14.708 -0.0948 -2.0119  0.5828
19823TIP3    H280961   2.216   3.747  14.761  0.2674 -0.3365 -2.3067
19824TIP3   OH280962   5.611   0.715   5.946 -0.2018  0.0248  0.7909
19824TIP3    H180963   5.543   0.662   5.902 -0.9231  0.4615  1.3506
19824TIP3    H280964   5.693   0.675   5.919 -0.5985  0.3459 -1.0731
19825TIP3   OH280965   2.043   1.363   5.657 -0.1520  0.3158 -0.2131
19825TIP3    H180966   2.004   1.343   5.742 -2.3021  1.3384 -0.8818
19825TIP3    H280967   1.982   1.424   5.616  0.8412 -0.0970 -2.4844
19826TIP3   OH280968   2.576   1.284   3.709 -0.5288  0.7366  0.0170
19826TIP3    H180969   2.578   1.343   3.784 -1.7042  0.9651 -0.1134
19826TIP3    H280970   2.520   1.211   3.738  0.8564 -0.2975  0.1611
19827TIP3   OH280971   5.864   1.055   1.427 -0.1219 -0.0404  0.4497
19827TIP3    H180972   5.789   0.996   1.421 -1.4961  1.6984 -0.0071
19827TIP3    H280973   5.934   1.009   1.379 -0.4218 -2.2834  1.9926
19828TIP3   OH280974   3.742   0.965  16.707 -0.0172 -0.3012 -0.4722
19828TIP3    H180975   3.763   0.922  16.789 -0.8143 -0.3933 -0.3098
19828TIP3    H280976   3.775   0.905  16.639  0.4858 -0.3029 -0.2340
19829TIP3   OH280977   0.889   2.554  16.175 -0.0884  0.9208 -0.1184
19829TIP3    H180978   0.843   2.538  16.258 -0.6633 -0.1625 -0.6111
19829TIP3    H280979   0.832   2.513  16.110  0.2674  1.9213 -1.0724
19830TIP3   OH280980   3.502   5.336  12.447  0.4156  0.6158 -0.2907
19830TIP3    H180981   3.534   5.355  12.535  0.1919  0.2068 -0.1152
19830TIP3    H280982   3.445   5.409  12.425 -2.3621 -0.8843  1.3320
19831TIP3   OH280983   2.029   5.053  16.447 -0.5658  0.7554 -0.0344
19831TIP3    H180984   2.099   5.060  16.512  0.0033 -1.6996 -0.2743
19831TIP3    H280985   1.960   5.004  16.492 -1.7612  2.2861 -0.1253
19832TIP3   OH280986   1.118   5.049  15.658  0.8569 -0.2184 -0.4678
19832TIP3    H180987   1.118   4.992  15.735 -1.8249  0.8807  0.4346
19832TIP3    H280988   1.074   4.997  15.590 -2.5935  1.0245  0.6711
19833TIP3   OH280989   4.974   6.360  10.812  0.0505 -0.6223 -0.0773
19833TIP3    H180990   4.950   6.449  10.784  0.1384 -0.8749 -1.0099
19833TIP3    H280991   4.900   6.306  10.784 -0.4492 -0.7222  1.3615
19834TIP3   OH280992   5.873   6.640  10.574  0.1268  0.5251  0.4580
19834TIP3    H180993   5.945   6.620  10.634 -0.1155 -0.9414  0.2893
19834TIP3    H280994   5.890   6.730  10.545  1.4380  0.4829  1.0429
19835TIP3   OH280995   4.242   6.452   0.326 -0.4694 -0.2336  0.1259
19835TIP3    H180996   4.247   6.358   0.315 -1.9635 -0.2038 -1.0970
19835TIP3    H280997   4.156   6.467   0.365  0.0216  0.5947  0.9452
19836TIP3   OH280998   1.741   3.537   4.758 -0.1351 -0.1653 -0.1200
19836TIP3    H180999   1.748   3.629   4.732  0.6641  0.1181  1.0123
19836TIP3    H281000   1.778   3.488   4.684 -2.5362  0.2303 -1.6995
19837TIP3   OH281001   5.346   5.486   4.281  0.2751 -0.2868  0.1001
19837TIP3    H181002   5.328   5.453   4.369  2.5951  0.5901  0.9833
19837TIP3    H281003   5.385   5.572   4.295  0.6382 -0.0882 -1.7993
19838TIP3   OH281004   4.578   4.935   1.562 -0.3976 -0.2785 -0.0943
19838TIP3    H181005   4.517   4.905   1.494 -0.2949 -0.5672 -0.0614
19838TIP3    H281006   4.630   4.857   1.583  0.6992  0.2060 -0.8812
19839TIP3   OH281007   1.108   0.249  13.058  0.1668 -0.9692 -0.5604
19839TIP3    H181008   1.113   0.227  12.965 -0.8837 -1.6964 -0.4709
19839TIP3    H281009   1.029   0.303  13.065  0.8689  0.0344 -0.2553
19840TIP3   OH281010   6.108   5.569   0.886 -0.2478  0.8014  0.2277
19840TIP3    H181011   6.064   5.544   0.805  1.1604  1.9582 -0.9575
19840TIP3    H281012   6.128   5.662   0.874 -1.0684  1.3224  2.4293
19841TIP3   OH281013   4.301   0.696   3.857 -0.2426  0.0782  0.2088
19841TIP3    H181014   4.383   0.650   3.839  1.3633  2.4203  1.0079
19841TIP3    H281015   4.263   0.650   3.932  0.3134 -1.0396 -0.1758
19842TIP3   OH281016   4.008   3.833   4.886  0.2170  0.0547 -0.4194
19842TIP3    H181017   3.921   3.856   4.853  0.7727  1.0369 -1.2246
19842TIP3    H281018   4.068   3.890   4.839  1.1429  0.7516  1.5151
19843TIP3   OH281019   4.914   3.371  12.905  0.3267 -0.0180 -0.6343
19843TIP3    H181020   4.998   3.338  12.873  1.1522  1.4908 -0.1340
19843TIP3    H281021   4.887   3.436  12.840 -0.2532 -0.1975 -0.5792
19844TIP3   OH281022   3.773   0.237  15.288 -0.3938 -0.0760  0.2816
19844TIP3    H181023   3.712   0.297  15.246  0.5518 -0.0695 -1.1767
19844TIP3    H281024   3.839   0.293  15.328  0.7655 -0.0717 -1.5070
19845TIP3   OH281025   1.345   6.206  13.928 -0.5674  0.2675 -0.2231
19845TIP3    H181026   1.293   6.219  13.848 -2.1727  1.7340  0.9711
19845TIP3    H281027   1.384   6.291  13.945  0.8046 -0.3598 -0.0903
19846TIP3   OH281028   2.780   2.334  15.127  0.2457 -0.5577  0.4208
19846TIP3    H181029   2.731   2.304  15.050  0.0489  1.1847 -0.1990
19846TIP3    H281030   2.868   2.299  15.115  0.1569 -0.5098 -0.5093
19847TIP3   OH281031   0.111   4.783  15.929  0.3407 -0.3767 -0.3645
19847TIP3    H181032   0.110   4.772  15.834 -1.5120 -0.4061 -0.3899
19847TIP3    H281033   0.044   4.850  15.945  1.2281  0.2541  0.8698
19848TIP3   OH281034   1.632   3.258  14.799 -0.5425  0.4540  0.0282
19848TIP3    H181035   1.700   3.245  14.866 -0.1365 -1.6476 -0.6968
19848TIP3    H281036   1.572   3.185  14.812 -0.5651  0.1216 -1.7506
19849TIP3   OH281037   0.442   3.460   2.388  0.2185 -0.2906  0.0217
19849TIP3    H181038   0.353   3.494   2.399  0.3173  0.3232 -0.9527
19849TIP3    H281039   0.499   3.536   2.401  0.4962 -0.2857 -1.0761
19850TIP3   OH281040   3.770   2.442  15.142  0.4175 -0.2966 -0.5503
19850TIP3    H181041   3.849   2.421  15.192  0.2111  0.0661 -0.0638
19850TIP3    H281042   3.698   2.434  15.204  0.1016 -0.3204 -0.9116
19851TIP3   OH281043   2.065   4.859   5.579  0.1647 -0.1590 -0.6028
19851TIP3    H181044   2.101   4.912   5.650  1.2884 -1.3202 -0.2455
19851TIP3    H281045   2.139   4.846   5.520 -1.1501  2.2468 -3.0012
19852TIP3   OH281046   2.237   3.562  15.048  0.4861  0.3210  0.4200
19852TIP3    H181047   2.208   3.611  14.971  0.7662  0.1343  0.1911
19852TIP3    H281048   2.281   3.627  15.103  1.3922  0.2204 -0.1649
19853TIP3   OH281049   6.443   4.748  14.785 -0.0056 -0.0062  0.4505
19853TIP3    H181050   6.513   4.806  14.756 -1.2226  0.7776 -1.0807
19853TIP3    H281051   6.488   4.671  14.819  1.6227  1.3617  1.5266
19854TIP3   OH281052   1.089   5.630  12.987  0.4082 -0.2411  0.7780
19854TIP3    H181053   1.007   5.677  13.000  0.8871  0.4862  1.2885
19854TIP3    H281054   1.157   5.695  13.006  1.1318 -0.4226 -0.9619
19855TIP3   OH281055   3.743   4.560   5.039  0.0107  0.2683  0.3117
19855TIP3    H181056   3.754   4.465   5.044 -0.8532  0.1023 -0.6535
19855TIP3    H281057   3.653   4.575   5.067 -0.0997  0.7278 -0.2809
19856TIP3   OH281058   2.454   5.994  14.421 -0.3074  0.2663  0.8359
19856TIP3    H181059   2.499   5.954  14.347 -0.7260 -0.7163  1.0919
19856TIP3    H281060   2.497   6.079  14.433  0.1424  0.1897 -0.1626
19857TIP3   OH281061   3.610   0.736  17.185  0.2508  0.1048  0.1071
19857TIP3    H181062   3.577   0.658  17.140 -0.0649  0.4669 -0.3012
19857TIP3    H281063   3.531   0.781  17.217  0.2545  1.3591 -1.5159
19858TIP3   OH281064   0.797   0.621  12.926  0.2799 -0.4176  0.2625
19858TIP3    H181065   0.822   0.599  12.836  0.0858  1.8052 -0.4004
19858TIP3    H281066   0.739   0.697  12.917  1.2600  0.6603  2.3209
19859TIP3   OH281067   2.756   3.951  14.731 -0.5918 -0.6961  0.2675
19859TIP3    H181068   2.665   3.980  14.745 -0.0026  1.7252 -0.5125
19859TIP3    H281069   2.747   3.865  14.690 -2.6152  0.1501 -1.2714
19860TIP3   OH281070   6.130   4.612   0.933  0.1212 -0.3241 -0.2936
19860TIP3    H181071   6.054   4.662   0.903  0.2157  0.3297  0.5276
19860TIP3    H281072   6.202   4.642   0.877 -0.4159 -1.7225 -1.7975
19861TIP3   OH281073   0.219   6.229   5.400  0.2027  0.2866 -0.0931
19861TIP3    H181074   0.131   6.196   5.382  0.1663  0.3370 -0.0142
19861TIP3    H281075   0.214   6.258   5.492  0.3686  0.0724 -0.0182
19862TIP3   OH281076   3.779   4.968  16.342 -0.7641  0.1336  0.3477
19862TIP3    H181077   3.702   4.977  16.399 -1.5912  2.6633 -1.0120
19862TIP3    H281078   3.801   5.058  16.319  1.1561 -0.6854 -1.2351
19863TIP3   OH281079   2.170   1.731  12.832 -0.3854  0.3259  0.1565
19863TIP3    H181080   2.225   1.809  12.826  0.3676 -0.2276 -0.3232
19863TIP3    H281081   2.192   1.680  12.754  0.8571 -1.4653  1.5908
19864TIP3   OH281082   5.848   3.510   4.817  0.1273 -0.0736 -0.3038
19864TIP3    H181083   5.827   3.580   4.755 -0.5816  0.2575  0.2922
19864TIP3    H281084   5.789   3.525   4.891  0.6943 -0.6879  0.2884
19865TIP3   OH281085   0.810   0.841   3.236 -0.3409 -0.2046  0.1286
19865TIP3    H181086   0.844   0.758   3.271  1.0475 -0.1546 -1.0377
19865TIP3    H281087   0.850   0.909   3.291 -0.9985 -0.2555  0.6922
19866TIP3   OH281088   0.468   5.278  12.543 -0.0211 -0.4656 -0.1529
19866TIP3    H181089   0.493   5.352  12.487 -2.1534  1.1531  0.8824
19866TIP3    H281090   0.529   5.282  12.616  0.1486  0.0066 -0.3167
19867TIP3   OH281091   5.456   1.034  13.122  0.0371 -0.3885  0.7695
19867TIP3    H181092   5.501   1.076  13.048  0.3629 -0.2320  1.0568
19867TIP3    H281093   5.526   0.991  13.172 -0.3779 -2.0234  0.0109
19868TIP3   OH281094   3.122   2.442  16.216 -0.0862 -0.0223 -0.3428
19868TIP3    H181095   3.128   2.371  16.152 -0.7065 -0.4594  0.0691
19868TIP3    H281096   3.058   2.411  16.280 -1.1049  1.3122 -0.6689
19869TIP3   OH281097   2.381   5.195   1.441 -0.0983 -0.6182  1.1108
19869TIP3    H181098   2.463   5.221   1.398 -0.8092  1.0347  0.6878
19869TIP3    H281099   2.409   5.152   1.522  1.1974 -0.7218  0.6302
19870TIP3   OH281100   6.687   3.563  15.213  0.1266 -0.1560 -0.0444
19870TIP3    H181101   6.684   3.526  15.301  0.5556 -0.9690 -0.3635
19870TIP3    H281102   6.731   3.497  15.160 -0.1592  0.3035 -0.8850
19871TIP3   OH281103   0.648   2.753   3.974  0.1173  0.1592 -0.1333
19871TIP3    H181104   0.617   2.797   3.895 -0.0750  2.0404  0.9211
19871TIP3    H281105   0.710   2.687   3.942 -0.7944  0.0803 -1.8996
19872TIP3   OH281106   1.458   4.865   3.836  0.2450  0.1328 -0.0802
19872TIP3    H181107   1.459   4.770   3.823  0.8703  0.1885 -0.4567
19872TIP3    H281108   1.365   4.889   3.827 -0.1145 -0.6090  1.3226
19873TIP3   OH281109   2.169   2.003  15.043 -0.4360 -0.2605 -0.3643
19873TIP3    H181110   2.223   1.924  15.047 -0.5366 -0.3756 -1.0719
19873TIP3    H281111   2.229   2.074  15.066 -0.0262 -0.4099 -0.9527
19874TIP3   OH281112   6.637   2.400  16.755  0.4641  0.1706  0.1797
19874TIP3    H181113   6.714   2.457  16.752 -0.5703  1.5895 -0.7438
19874TIP3    H281114   6.579   2.441  16.820 -1.0046  1.2093 -1.6724
19875TIP3   OH281115   3.980   4.545   5.322 -0.1793 -0.1951 -0.7107
19875TIP3    H181116   4.070   4.533   5.352 -0.4221  1.4405  0.8816
19875TIP3    H281117   3.989   4.595   5.241  0.3666 -1.0484 -1.1918
19876TIP3   OH281118   4.259   5.828   3.596 -0.2521  0.6705  0.3801
19876TIP3    H181119   4.303   5.912   3.604  4.8369 -1.0165 -3.7404
19876TIP3    H281120   4.201   5.838   3.520  0.2296  0.4972 -0.0103
19877TIP3   OH281121   0.795   4.596   1.577  0.0566 -0.3019  0.1895
19877TIP3    H181122   0.886   4.620   1.559  0.0690  0.3800  1.0890
19877TIP3    H281123   0.790   4.592   1.673 -1.0492  0.4376  0.1754
19878TIP3   OH281124   5.219   2.894  16.394  0.4279  0.1232 -0.0553
19878TIP3    H181125   5.311   2.903  16.370  0.0718 -0.4513 -1.7713
19878TIP3    H281126   5.194   2.806  16.364 -0.7465  0.3558  0.1705
19879TIP3   OH281127   0.032   1.389  14.067  0.0233 -0.7289 -1.2780
19879TIP3    H181128   0.014   1.302  14.103 -1.5588  0.5697  1.4494
19879TIP3    H281129  -0.054   1.424  14.044  0.5267  0.4597 -1.4324
19880TIP3   OH281130   4.758   5.316  13.104  0.1136 -0.6391  0.5306
19880TIP3    H181131   4.824   5.375  13.069 -0.2973  0.8914  2.1732
19880TIP3    H281132   4.682   5.329  13.047  0.3199 -0.2587  0.3394
19881TIP3   OH281133   6.021   1.045   5.494  0.6473 -0.8439  0.0608
19881TIP3    H181134   5.983   0.982   5.432  1.6070 -2.0090  0.6319
19881TIP3    H281135   5.972   1.126   5.478 -1.6259 -2.0811  0.3115
19882TIP3   OH281136   6.035   0.946   1.263 -0.2309  0.2181  0.9895
19882TIP3    H181137   6.105   0.882   1.277 -1.4116 -1.5460 -0.6407
19882TIP3    H281138   6.074   1.013   1.207  0.3380 -0.4368  0.5853
19883TIP3   OH281139   5.787   2.162   3.824  0.1424 -0.7293 -0.3289
19883TIP3    H181140   5.878   2.187   3.840 -0.2008 -0.4094  1.2401
19883TIP3    H281141   5.749   2.237   3.778  1.0347 -1.4991 -2.4998
19884TIP3   OH281142   4.016   1.339  12.142  0.2095  0.4487  0.0142
19884TIP3    H181143   4.033   1.268  12.204  0.1118  0.0015 -0.4604
19884TIP3    H281144   4.005   1.295  12.058  2.0924  1.1688 -0.6677
19885TIP3   OH281145   3.414   5.773  10.446  0.0355  0.0094 -0.0171
19885TIP3    H181146   3.425   5.716  10.522  1.4005 -1.1798 -1.0542
19885TIP3    H281147   3.482   5.746  10.385 -0.0379  1.9695 -1.0650
19886TIP3   OH281148   0.728   5.108   2.782  0.2659 -0.0405 -0.2312
19886TIP3    H181149   0.715   5.146   2.696 -1.6514  0.1670  0.1085
19886TIP3    H281150   0.648   5.058   2.799 -0.0023  0.9892  1.9532
19887TIP3   OH281151   1.534   2.280  14.937  0.1060 -0.4919 -0.2792
19887TIP3    H181152   1.580   2.337  14.998  0.7611 -1.1924 -0.1121
19887TIP3    H281153   1.524   2.333  14.858  1.5643 -0.4473 -0.4631
19888TIP3   OH281154   3.526   2.027   3.057  0.2091 -0.1842 -0.0728
19888TIP3    H181155   3.496   1.998   2.971  0.1792  2.0751 -0.8799
19888TIP3    H281156   3.621   2.035   3.048  0.3103 -0.7563  0.3951
19889TIP3   OH281157   0.443   0.041   6.500  0.1313 -0.8502  0.1104
19889TIP3    H181158   0.401   0.109   6.552  1.8282  0.9396 -0.7489
19889TIP3    H281159   0.381   0.024   6.429 -0.1668  0.0500  0.1398
19890TIP3   OH281160   6.111   1.871   3.049  0.3585  0.0057  0.9536
19890TIP3    H181161   6.036   1.927   3.073 -0.5970 -0.7854 -0.0815
19890TIP3    H281162   6.158   1.921   2.982  0.7121  0.4573  1.5278
19891TIP3   OH281163   5.884   2.237  14.907 -0.2707 -0.2281 -0.1871
19891TIP3    H181164   5.902   2.236  14.813  0.8181  2.2948 -0.0955
19891TIP3    H281165   5.815   2.172  14.919 -1.2284  0.1428 -2.9149
19892TIP3   OH281166   4.263   6.769   3.145  0.0411 -0.1016 -0.5162
19892TIP3    H181167   4.241   6.751   3.054  0.3483 -0.4190 -0.5314
19892TIP3    H281168   4.305   6.689   3.176  1.9268  0.7497 -0.7328
19893TIP3   OH281169   0.347   1.344   5.291  0.4911 -0.5055 -0.1631
19893TIP3    H181170   0.395   1.390   5.360  1.3920 -1.0124 -0.4471
19893TIP3    H281171   0.316   1.414   5.234 -1.1524  0.0193  1.2687
19894TIP3   OH281172   3.387   0.366   2.743  0.2020 -0.0929 -0.4960
19894TIP3    H181173   3.412   0.276   2.765 -3.1875 -0.3944  3.0034
19894TIP3    H281174   3.424   0.419   2.813  0.0397  0.9231 -1.1608
19895TIP3   OH281175   2.412   3.751   1.579 -0.3689 -0.2175 -0.9491
19895TIP3    H181176   2.347   3.682   1.572 -0.1650 -0.2141 -3.5919
19895TIP3    H281177   2.362   3.831   1.595 -0.8831 -0.4474 -1.4070
19896TIP3   OH281178   4.170   6.796  11.521  0.9617 -0.2059  0.0067
19896TIP3    H181179   4.083   6.814  11.484  0.7864  0.8735  0.9002
19896TIP3    H281180   4.181   6.701  11.510  0.3530 -0.1378 -1.5452
19897TIP3   OH281181   5.086   6.291   5.417  0.4995  0.2448 -0.2384
19897TIP3    H181182   5.121   6.367   5.371  2.2193 -0.5678 -0.3715
19897TIP3    H281183   5.009   6.324   5.464  0.0440  1.6008 -1.8413
19898TIP3   OH281184   5.724   5.392  15.963 -0.1387  0.3143 -0.0213
19898TIP3    H181185   5.657   5.457  15.984 -0.4849 -0.4553  1.3569
19898TIP3    H281186   5.687   5.345  15.888 -0.7905  0.4193  0.2249
19899TIP3   OH281187   2.716   1.160  15.598 -0.5509  0.0777  0.1134
19899TIP3    H181188   2.786   1.111  15.555 -0.1721  0.6433  0.0675
19899TIP3    H281189   2.698   1.110  15.678 -1.1399 -0.8811 -0.6063
19900TIP3   OH281190   6.574   6.473   3.634 -0.1822 -0.3573  0.0061
19900TIP3    H181191   6.625   6.432   3.563 -0.3228  1.5050 -1.2414
19900TIP3    H281192   6.526   6.400   3.674 -0.7351 -1.4026 -2.3730
19901TIP3   OH281193   2.479   4.151   1.847  0.4514 -0.2666 -0.0603
19901TIP3    H181194   2.410   4.215   1.864  0.0741 -1.2110  2.3770
19901TIP3    H281195   2.435   4.079   1.802  0.2793 -0.0592 -0.2262
19902TIP3   OH281196   3.551   3.137   2.981  0.0275 -0.0988  0.3430
19902TIP3    H181197   3.621   3.196   3.009 -1.7713  1.7680  1.0994
19902TIP3    H281198   3.558   3.136   2.886  0.5069  0.8000  0.3557
19903TIP3   OH281199   2.999   4.778  15.664 -0.0719 -0.1114 -0.4320
19903TIP3    H181200   2.958   4.750  15.582 -1.0872  0.0999 -0.0154
19903TIP3    H281201   2.978   4.871  15.671  2.5668  0.6443 -1.3908
19904TIP3   OH281202   4.751   2.234  16.827  0.8460  0.1167 -0.3702
19904TIP3    H181203   4.689   2.194  16.888  1.3102  1.5014  1.0706
19904TIP3    H281204   4.758   2.171  16.755 -0.1463 -1.3121  0.7330
19905TIP3   OH281205   0.134   2.200   4.796  0.5905 -0.4762 -0.2168
19905TIP3    H181206   0.053   2.224   4.750  0.2656 -0.7118  0.2211
19905TIP3    H281207   0.170   2.129   4.743 -0.4636 -1.6502  0.5577
19906TIP3   OH281208   4.811   4.069   1.897  0.1693 -0.0711 -0.1005
19906TIP3    H181209   4.806   3.981   1.859  0.3775  0.5233 -1.5314
19906TIP3    H281210   4.782   4.057   1.988 -1.4030 -1.3205 -0.7303
19907TIP3   OH281211   0.945   1.276   3.148 -0.4638  0.0150 -0.0088
19907TIP3    H181212   0.857   1.246   3.169  0.1131 -1.7247  0.0738
19907TIP3    H281213   0.954   1.257   3.054 -0.0972 -0.0096  0.0325
19908TIP3   OH281214   0.349   1.184  15.421  0.0697 -0.5581 -0.1821
19908TIP3    H181215   0.287   1.151  15.355  0.4915 -0.2981 -0.7224
19908TIP3    H281216   0.295   1.237  15.480 -0.1829 -0.0643 -0.8339
19909TIP3   OH281217   1.789   4.954  16.932  0.1426 -0.4840 -0.1466
19909TIP3    H181218   1.719   5.018  16.942  0.2970 -0.4683  0.9667
19909TIP3    H281219   1.744   4.871  16.917 -0.0855 -0.2939 -0.5232
19910TIP3   OH281220   5.021   5.136   5.200 -0.2638 -0.1013  0.2267
19910TIP3    H181221   4.928   5.158   5.208 -0.2576  0.5724 -1.2081
19910TIP3    H281222   5.066   5.205   5.248 -0.4655  0.3195 -0.1718
19911TIP3   OH281223   5.897   5.142   4.080 -0.3840  0.6428 -0.0939
19911TIP3    H181224   5.958   5.107   4.014 -0.6867  0.5138 -0.3088
19911TIP3    H281225   5.928   5.106   4.163  0.1849  1.0509 -0.1201
19912TIP3   OH281226   0.915   4.757  11.357  0.4378 -0.1346 -0.0461
19912TIP3    H181227   0.847   4.815  11.390 -0.2170 -0.8597 -0.0946
19912TIP3    H281228   0.949   4.713  11.435 -0.1278 -0.8002 -0.1623
19913TIP3   OH281229   3.063   0.260   2.960 -0.1699 -0.0574 -0.0874
19913TIP3    H181230   3.132   0.326   2.953 -0.3335  0.6766  3.3084
19913TIP3    H281231   3.104   0.187   3.006 -0.2779 -2.0122 -2.8750
19914TIP3   OH281232   4.435   1.302   1.447  0.0539 -0.4159  0.0507
19914TIP3    H181233   4.478   1.385   1.425  0.6648 -0.2778  1.5874
19914TIP3    H281234   4.362   1.327   1.504 -0.8904 -0.8069 -0.9673
19915TIP3   OH281235   2.725   2.636   5.395 -0.1679 -0.2969 -0.2777
19915TIP3    H181236   2.637   2.644   5.358 -0.1894  0.0060 -0.1606
19915TIP3    H281237   2.747   2.724   5.424  0.3000 -0.3107 -0.5851
19916TIP3   OH281238   2.331   0.723  12.911 -0.3808  0.3896  0.3524
19916TIP3    H181239   2.405   0.744  12.854  0.1852  0.1194  0.9754
19916TIP3    H281240   2.316   0.803  12.962 -0.6977  0.5341  0.0358
19917TIP3   OH281241   3.088   0.612   5.207 -0.4857 -0.3819 -0.3725
19917TIP3    H181242   3.102   0.697   5.168 -0.9762  0.0070  0.2729
19917TIP3    H281243   3.176   0.580   5.229 -0.2704 -0.2600 -1.0408
19918TIP3   OH281244   1.324   3.665  11.928 -0.8266 -0.7243  0.1376
19918TIP3    H181245   1.321   3.703  11.840 -0.3630  1.1475  0.8651
19918TIP3    H281246   1.263   3.718  11.979 -0.0772 -0.8857  1.2441
19919TIP3   OH281247   0.426   6.513  12.594 -0.7559  0.2839  0.1359
19919TIP3    H181248   0.422   6.602  12.559  0.8067  1.0863  1.8426
19919TIP3    H281249   0.396   6.521  12.684  0.5362 -0.6857  0.6780
19920TIP3   OH281250   3.262   2.347  15.338 -0.1111  0.1449  0.0802
19920TIP3    H181251   3.315   2.276  15.375  0.2877 -0.9634 -2.4032
19920TIP3    H281252   3.173   2.328  15.366 -0.0633 -1.6048 -0.8407
19921TIP3   OH281253   2.663   4.161  15.520  0.1546  0.3314 -0.2238
19921TIP3    H181254   2.716   4.239  15.534 -0.5262  0.9060 -0.7868
19921TIP3    H281255   2.577   4.183  15.554  0.3619 -0.7574  1.1098
19922TIP3   OH281256   2.476   1.440   3.500  0.3767  0.1416  0.4843
19922TIP3    H181257   2.529   1.374   3.544  0.9128  0.0453 -0.2892
19922TIP3    H281258   2.532   1.472   3.429 -0.4023  0.4178 -0.0157
19923TIP3   OH281259   5.744   4.421  13.085 -0.1472  0.3048 -0.1876
19923TIP3    H181260   5.819   4.472  13.055  0.1818  2.5226  3.7601
19923TIP3    H281261   5.781   4.335  13.107  0.8540  0.7732  0.0002
19924TIP3   OH281262   0.897   2.978  13.716 -0.3672  0.1355  0.4026
19924TIP3    H181263   0.923   2.971  13.808 -1.0353  0.5605  0.6274
19924TIP3    H281264   0.813   3.024  13.718 -0.9917 -0.9340 -0.3361
19925TIP3   OH281265   0.664   2.300   4.046 -0.0432  0.9242  0.3428
19925TIP3    H181266   0.571   2.320   4.053 -0.4048 -0.9253  2.0959
19925TIP3    H281267   0.666   2.207   4.024  1.3887  0.9171  0.4398
19926TIP3   OH281268   0.583   4.166  11.955 -0.0871 -0.0838 -0.4438
19926TIP3    H181269   0.541   4.104  11.897  2.9691 -3.6299  0.7355
19926TIP3    H281270   0.673   4.173  11.923  0.0014  3.0688  0.0998
19927TIP3   OH281271   2.024   1.443  10.819  0.2118  0.0115 -0.5075
19927TIP3    H181272   2.032   1.351  10.791 -2.5307 -0.5512  0.2427
19927TIP3    H281273   1.975   1.438  10.901  3.0826  1.9949  1.5433
19928TIP3   OH281274   2.128   0.920  13.540  0.4426 -0.1777  0.7452
19928TIP3    H181275   2.105   0.903  13.631 -0.2742  0.6813  0.7345
19928TIP3    H281276   2.060   0.978  13.508  1.7150  1.0783  0.2079
19929TIP3   OH281277   3.448   4.092  12.084 -0.2236  0.0438 -0.3174
19929TIP3    H181278   3.390   4.130  12.018  0.3099  0.1190 -0.7552
19929TIP3    H281279   3.453   3.999  12.062 -0.2741  0.0139 -0.2050
19930TIP3   OH281280   4.024   6.446   2.378 -0.3205 -0.7146  0.4496
19930TIP3    H181281   3.957   6.478   2.318 -1.2763  1.7633  2.6320
19930TIP3    H281282   4.065   6.373   2.332 -2.0263  0.0233 -2.4829
19931TIP3   OH281283   5.530   4.440   1.041 -0.1380 -0.0019  0.5878
19931TIP3    H181284   5.528   4.449   0.946 -1.1996  0.3873  0.6356
19931TIP3    H281285   5.549   4.348   1.057 -0.7059 -0.2226 -0.0086
19932TIP3   OH281286   6.631   2.121   4.393  0.6171  0.0109 -0.0213
19932TIP3    H181287   6.586   2.076   4.465 -1.2787 -1.0205 -1.7380
19932TIP3    H281288   6.701   2.061   4.368 -0.5651 -1.0607 -0.8973
19933TIP3   OH281289   6.042   2.033  17.250 -0.3171 -0.5353 -0.1020
19933TIP3    H181290   6.064   1.969  17.317  0.4200  1.6401  1.8597
19933TIP3    H281291   5.950   2.018  17.230 -0.0053 -2.5749 -0.2088
19934TIP3   OH281292   5.502   0.102   1.243 -0.1857 -0.3348  0.2312
19934TIP3    H181293   5.535   0.191   1.256  0.2241  0.0252 -2.6571
19934TIP3    H281294   5.581   0.050   1.230 -0.5118 -0.4195 -1.6124
19935TIP3   OH281295   4.590   2.896   1.259 -0.8823 -0.3659 -0.1907
19935TIP3    H181296   4.587   2.976   1.207 -1.9784 -0.7850 -0.8210
19935TIP3    H281297   4.682   2.870   1.258 -0.7964 -0.0753 -1.4891
19936TIP3   OH281298   3.819   2.541  11.779  0.4137 -0.2382 -0.0983
19936TIP3    H181299   3.758   2.504  11.843  1.4186 -1.9588 -0.0751
19936TIP3    H281300   3.781   2.625  11.756 -2.8735 -1.8879 -1.3097
19937TIP3   OH281301   0.040   4.115  11.890 -0.0034 -0.0860 -0.4547
19937TIP3    H181302   0.125   4.153  11.868 -0.0348 -0.7466 -1.8469
19937TIP3    H281303  -0.014   4.132  11.813 -0.5181 -1.4225 -0.4189
19938TIP3   OH281304   4.406   1.850   5.236  0.3482 -0.6279 -0.0609
19938TIP3    H181305   4.360   1.896   5.306  0.2612 -2.1387  0.9138
19938TIP3    H281306   4.496   1.842   5.267  0.1228 -2.0540  0.2969
19939TIP3   OH281307   6.671   2.467  15.026 -0.0132  0.0640 -0.7396
19939TIP3    H181308   6.610   2.401  15.058  0.7251  0.7382  2.4243
19939TIP3    H281309   6.734   2.419  14.973  0.6134 -1.8734  1.6148
19940TIP3   OH281310   5.657   3.679  12.047 -1.0175 -0.1831 -0.4989
19940TIP3    H181311   5.734   3.736  12.047  0.7759 -2.4153  0.9555
19940TIP3    H281312   5.660   3.634  11.963 -0.6200 -0.3529 -0.4001
19941TIP3   OH281313   5.683   2.506  15.569 -0.2527  0.4247 -0.2447
19941TIP3    H181314   5.692   2.601  15.561  1.0113  0.3525 -0.0173
19941TIP3    H281315   5.662   2.492  15.661  0.3139  0.4510 -0.1077
19942TIP3   OH281316   3.417   6.175   0.310  0.0768 -0.2040  0.1747
19942TIP3    H181317   3.428   6.085   0.340  0.8366  0.0411  0.6536
19942TIP3    H281318   3.392   6.167   0.218  1.7990 -0.8623 -0.2650
19943TIP3   OH281319   4.583   3.557  11.636 -0.1278  0.3365 -0.3242
19943TIP3    H181320   4.551   3.643  11.662 -1.1352 -0.3547  0.8887
19943TIP3    H281321   4.528   3.496  11.686  1.9249 -0.9733  0.4416
19944TIP3   OH281322   1.739   3.213   2.297  0.5093  0.4339  0.3988
19944TIP3    H181323   1.688   3.148   2.248  2.3613  0.5272 -1.8051
19944TIP3    H281324   1.747   3.175   2.385 -0.0109 -1.4358 -0.3121
19945TIP3   OH281325   1.020   6.154  16.532 -0.1428  0.0711  0.1674
19945TIP3    H181326   1.028   6.190  16.620  0.6758 -0.6735  0.4030
19945TIP3    H281327   0.976   6.224  16.482  0.2934  0.9006  0.9098
19946TIP3   OH281328   1.413   6.415   5.445 -0.2586 -0.3086  0.0131
19946TIP3    H181329   1.400   6.388   5.354  0.5761  0.6622 -0.4064
19946TIP3    H281330   1.331   6.458   5.470 -0.9881 -1.7154  0.1694
19947TIP3   OH281331   5.571   4.657   3.304 -0.0417 -0.2885 -0.2431
19947TIP3    H181332   5.534   4.738   3.269  0.5166  0.3573  0.6164
19947TIP3    H281333   5.588   4.677   3.396 -0.3466 -1.5434  0.0912
19948TIP3   OH281334   6.689   1.663   5.994 -0.2382 -0.0194 -0.6108
19948TIP3    H181335   6.749   1.609   5.943 -0.4767 -0.0817 -0.8281
19948TIP3    H281336   6.691   1.625   6.081 -1.4897 -1.2870 -1.1000
19949TIP3   OH281337   4.945   0.008  14.811  0.7510 -0.3891 -0.5907
19949TIP3    H181338   4.908  -0.057  14.870 -0.5105 -0.4725 -1.4238
19949TIP3    H281339   4.994  -0.043  14.747 -0.2694 -0.5637 -1.2662
19950TIP3   OH281340   4.899   2.367   4.515 -0.5214  0.1550 -0.4353
19950TIP3    H181341   4.927   2.323   4.595 -1.2779  0.8686  0.2459
19950TIP3    H281342   4.810   2.335   4.500 -0.4965  0.2602 -0.8154
19951TIP3   OH281343   4.657   2.857   4.897 -0.5656  0.6351  0.4147
19951TIP3    H181344   4.696   2.919   4.959 -0.4006  1.7328 -0.7455
19951TIP3    H281345   4.726   2.841   4.832 -0.6664 -0.6431  0.5929
19952TIP3   OH281346   2.901   3.449   2.910  0.5588 -0.0723  0.6441
19952TIP3    H181347   2.850   3.397   2.848  0.1129  0.8294  0.2294
19952TIP3    H281348   2.850   3.529   2.922  2.0327  1.0538 -0.1169
19953TIP3   OH281349   3.551   0.416  15.081  0.5891  0.0996 -0.6069
19953TIP3    H181350   3.513   0.390  14.998 -0.3168 -1.7484  0.3185
19953TIP3    H281351   3.633   0.460  15.058 -1.6124  3.5799 -2.6522
19954TIP3   OH281352   1.993   5.569  12.684  0.3579 -0.2693 -0.0510
19954TIP3    H181353   2.060   5.629  12.653  0.8148 -0.8975 -0.3080
19954TIP3    H281354   1.990   5.583  12.779 -0.3909  0.9968 -0.2412
19955TIP3   OH281355   3.387   2.649   4.491 -0.0671  0.8715 -0.0943
19955TIP3    H181356   3.454   2.592   4.452 -0.3708  0.4304  0.0219
19955TIP3    H281357   3.308   2.631   4.441 -0.1126  1.3737 -0.2124
19956TIP3   OH281358   4.845   2.311  12.298  0.1409  0.0165  0.0827
19956TIP3    H181359   4.859   2.404  12.278  1.2708  0.0580  0.9693
19956TIP3    H281360   4.763   2.309  12.348 -0.3414  0.4294 -0.6867
19957TIP3   OH281361   6.398   3.759  16.791 -0.6469 -0.4892  0.3523
19957TIP3    H181362   6.374   3.696  16.858 -1.3187  1.2451  1.8421
19957TIP3    H281363   6.318   3.811  16.777  0.3180  1.0926  0.4444
19958TIP3   OH281364   3.012   0.549  15.592  0.0446  0.0836  0.0635
19958TIP3    H181365   2.961   0.622  15.628 -0.3994 -0.7993  1.2952
19958TIP3    H281366   3.011   0.483  15.661 -0.5385 -1.5619 -1.4433
19959TIP3   OH281367   4.644   5.691   1.692  0.0482  0.2931  0.3455
19959TIP3    H181368   4.576   5.757   1.675  1.4823  1.0899 -3.0343
19959TIP3    H281369   4.670   5.660   1.606  1.9927 -2.1287  1.6711
19960TIP3   OH281370   2.684   5.284  12.159  0.3361  0.4343 -0.2900
19960TIP3    H181371   2.730   5.225  12.218 -1.9101 -0.7388  0.4058
19960TIP3    H281372   2.640   5.346  12.217  0.2327  0.9333 -0.8843
19961TIP3   OH281373   0.285   6.639   3.553  0.4435 -0.3561 -0.3714
19961TIP3    H181374   0.192   6.618   3.560  0.1195  0.8540 -0.8421
19961TIP3    H281375   0.318   6.633   3.642 -0.8236  2.4357  0.3825
19962TIP3   OH281376   2.704   5.170   0.994  0.5612  0.4795  0.2396
19962TIP3    H181377   2.755   5.232   1.047 -0.7368  1.7869  0.0311
19962TIP3    H281378   2.687   5.097   1.053  1.9073  0.4172  0.5795
19963TIP3   OH281379   1.549   3.208  12.080  0.1128 -0.5371  0.5120
19963TIP3    H181380   1.515   3.168  12.160  1.3699  0.1921  1.4531
19963TIP3    H281381   1.645   3.203  12.090  0.3384 -1.5670 -1.5290
19964TIP3   OH281382   1.567   3.429   2.023 -0.3714 -0.3954  0.6679
19964TIP3    H181383   1.565   3.418   2.118 -2.2488 -0.0278  0.7239
19964TIP3    H281384   1.482   3.469   2.002  0.1336 -0.1777 -1.1289
19965TIP3   OH281385   0.993   2.791   4.061 -0.0341  0.3670 -0.2462
19965TIP3    H181386   1.001   2.771   4.154 -0.5015 -0.1264 -0.3066
19965TIP3    H281387   0.940   2.871   4.057  3.0154  2.5904  0.0668
19966TIP3   OH281388   3.476   4.353   0.415  0.3744 -0.5683  0.0629
19966TIP3    H181389   3.457   4.313   0.330 -0.4214 -0.0436 -0.0223
19966TIP3    H281390   3.474   4.447   0.398  1.5145 -0.4669  0.4028
19967TIP3   OH281391   2.064   3.715  13.085 -0.0481 -0.0806  0.1398
19967TIP3    H181392   2.064   3.648  13.153 -0.9272 -1.3091 -1.0254
19967TIP3    H281393   2.129   3.685  13.021 -1.4154 -0.6030 -1.0762
19968TIP3   OH281394   4.208   0.937   1.580  0.3300  0.3446  0.4345
19968TIP3    H181395   4.301   0.961   1.577  0.3115  0.3294 -0.5483
19968TIP3    H281396   4.166   0.995   1.517 -0.3118  0.2210  0.7335
19969TIP3   OH281397   6.182   2.684   2.036  0.5042  0.6210  0.2006
19969TIP3    H181398   6.254   2.646   2.086 -0.2566 -0.1808  0.7134
19969TIP3    H281399   6.199   2.655   1.946 -1.1193 -2.8245  0.8260
19970TIP3   OH281400   1.380   4.475  14.097 -0.2305  0.5468  0.0993
19970TIP3    H181401   1.476   4.476  14.104 -0.0801 -2.3673 -0.3762
19970TIP3    H281402   1.356   4.384  14.117 -2.9630  1.3105  0.6319
19971TIP3   OH281403   1.115   4.425  14.048  0.6628  0.3461 -0.5380
19971TIP3    H181404   1.202   4.462  14.059  1.3665 -1.0984 -0.9852
19971TIP3    H281405   1.058   4.501  14.031  2.1963  1.1442 -2.4743
19972TIP3   OH281406   4.621   1.631  12.872  0.8459  0.2093 -0.5595
19972TIP3    H181407   4.549   1.687  12.902  0.0361 -1.2493  0.3284
19972TIP3    H281408   4.613   1.632  12.776  0.0099  0.5454 -0.4987
19973TIP3   OH281409   6.763   6.508  15.060  0.1772  0.5183 -0.3583
19973TIP3    H181410   6.764   6.470  14.972  2.2020  1.3891 -0.7749
19973TIP3    H281411   6.729   6.596  15.049  2.5284  1.4530 -0.7300
19974TIP3   OH281412   3.643   3.861   0.517 -0.0316  0.0771  0.1301
19974TIP3    H181413   3.591   3.915   0.458  0.0301  0.0208  0.0222
19974TIP3    H281414   3.664   3.918   0.590  1.5507  0.7856 -0.8055
19975TIP3   OH281415   4.689   6.653   4.813  0.4498  0.2506  0.4759
19975TIP3    H181416   4.730   6.695   4.738 -0.3605  0.4831  0.1593
19975TIP3    H281417   4.689   6.560   4.791 -0.6346  0.4053 -0.2471
19976TIP3   OH281418   5.558   1.523  12.099 -0.1029  0.0309 -0.3652
19976TIP3    H181419   5.584   1.474  12.021  0.4316  1.9995 -1.4828
19976TIP3    H281420   5.465   1.505  12.109 -0.0009 -0.9047 -0.9573
19977TIP3   OH281421   1.243   3.190   4.570  0.6587 -0.4776 -0.5814
19977TIP3    H181422   1.283   3.169   4.485  1.4393 -2.2796  0.1772
19977TIP3    H281423   1.313   3.176   4.633 -0.4787 -1.2483  0.5515
19978TIP3   OH281424   3.385   1.112  14.798  0.3793  0.2243  0.6631
19978TIP3    H181425   3.363   1.035  14.851  1.0272 -0.1119  0.4538
19978TIP3    H281426   3.329   1.181  14.833 -0.7810 -0.5236  0.3390
19979TIP3   OH281427   3.287   5.581  15.244 -0.0913 -0.0646  0.1714
19979TIP3    H181428   3.278   5.486  15.244 -1.0303  0.0169 -0.1141
19979TIP3    H281429   3.197   5.614  15.247  0.1539  0.8046 -1.1473
19980TIP3   OH281430   2.443   0.960   3.576 -0.0285  0.4748 -0.1799
19980TIP3    H181431   2.447   1.013   3.655 -2.2893 -1.7625  1.5702
19980TIP3    H281432   2.498   0.884   3.595  0.2054  0.3700 -1.1885
19981TIP3   OH281433   4.505   5.026  16.671 -0.0177  0.1822 -0.0137
19981TIP3    H181434   4.526   4.933  16.679  0.0275  0.2406  0.6152
19981TIP3    H281435   4.434   5.040  16.733  0.7060  0.7849  0.7065
19982TIP3   OH281436   6.723   2.316   1.439  0.1356 -0.0119 -0.2260
19982TIP3    H181437   6.715   2.304   1.533 -0.3721 -1.4235 -0.4332
19982TIP3    H281438   6.663   2.388   1.418  0.9012  0.8995  0.6300
19983TIP3   OH281439   2.419   0.433  13.023 -0.2319  0.5026 -0.0865
19983TIP3    H181440   2.353   0.370  13.050  2.6891 -2.8769  0.0167
19983TIP3    H281441   2.386   0.469  12.941 -2.0496 -1.2727 -0.2107
19984TIP3   OH281442   2.066   3.970  16.225  0.6838  0.2248  0.4738
19984TIP3    H181443   2.128   3.920  16.173  0.7193  2.4531 -1.8195
19984TIP3    H281444   2.098   4.060  16.219 -2.6427  1.4646 -0.7685
19985TIP3   OH281445   0.974   0.490  15.885 -0.0502 -0.1194  0.2137
19985TIP3    H181446   0.992   0.543  15.963  1.2932  0.0657 -0.1959
19985TIP3    H281447   0.883   0.462  15.895 -1.1001  2.8838  0.0832
19986TIP3   OH281448   0.105   0.936  14.226 -0.5431 -0.0781 -0.3388
19986TIP3    H181449   0.022   0.981  14.211 -0.7156 -0.2660  0.0438
19986TIP3    H281450   0.166   0.978  14.165 -0.6403  0.8242  0.1690
19987TIP3   OH281451   0.888   6.658  13.443 -0.0710  0.0300 -0.1004
19987TIP3    H181452   0.871   6.689  13.354 -0.5554 -0.6762 -0.2646
19987TIP3    H281453   0.801   6.649  13.482  0.1637  1.2579  0.7841
19988TIP3   OH281454   4.467   6.664   1.926  0.0301  0.1890 -0.7921
19988TIP3    H181455   4.513   6.628   1.850  1.4970  2.2928 -1.0103
19988TIP3    H281456   4.511   6.748   1.942 -2.7551  1.6222 -0.0060
19989TIP3   OH281457   5.207   3.399   3.760  0.1466  0.6032  0.2587
19989TIP3    H181458   5.277   3.338   3.735 -0.9855 -0.4137 -0.5297
19989TIP3    H281459   5.132   3.343   3.777 -0.8375  1.7641 -0.1549
19990TIP3   OH281460   4.112   6.545  14.773  0.2242 -0.2264  0.5312
19990TIP3    H181461   4.052   6.473  14.754 -0.0923  0.2925 -0.5330
19990TIP3    H281462   4.070   6.622  14.734  0.8724  0.4122  1.0697
19991TIP3   OH281463   4.791   3.691  16.296 -0.1630 -0.4648  0.7423
19991TIP3    H181464   4.765   3.748  16.368 -1.7348 -0.5439  0.2745
19991TIP3    H281465   4.815   3.751  16.225  1.4272 -0.3871  1.3103
19992TIP3   OH281466   5.413   1.135  16.806  0.1028  0.1067 -0.4236
19992TIP3    H181467   5.504   1.140  16.836  0.4325  2.8952 -1.5344
19992TIP3    H281468   5.363   1.176  16.877 -0.0301  0.2551 -0.6021
19993TIP3   OH281469   3.995   4.230   5.069  0.2726  0.3509 -0.2411
19993TIP3    H181470   4.023   4.297   5.008 -0.6079  1.5361  0.6216
19993TIP3    H281471   3.899   4.227   5.061  0.1476  0.4298  0.9517
19994TIP3   OH281472   2.418   5.113   5.237  0.1213  0.1454 -0.0951
19994TIP3    H181473   2.510   5.091   5.221 -0.3796 -1.5720 -0.8892
19994TIP3    H281474   2.409   5.110   5.332  0.9434  0.5898  0.0005
19995TIP3   OH281475   6.303   2.416   1.547  0.2610 -0.2302 -0.0861
19995TIP3    H181476   6.213   2.387   1.536 -0.3517  0.7229  2.0736
19995TIP3    H281477   6.354   2.335   1.551 -0.1865 -0.7671 -2.9859
19996TIP3   OH281478   1.392   2.829  12.812  0.1834  0.1140 -0.1413
19996TIP3    H181479   1.440   2.865  12.738  0.1978 -1.9932 -1.2342
19996TIP3    H281480   1.447   2.757  12.843 -0.5612 -0.0155  0.9360
19997TIP3   OH281481   0.353   3.401   6.005 -0.1388 -0.0997  0.1038
19997TIP3    H181482   0.347   3.308   6.028 -0.4502  0.1930  1.2293
19997TIP3    H281483   0.442   3.411   5.971  0.1386 -0.6623  0.6463
19998TIP3   OH281484   4.594   4.802   4.717 -0.0821  0.1259 -0.4445
19998TIP3    H181485   4.665   4.863   4.696 -0.7760  1.3366  0.6041
19998TIP3    H281486   4.523   4.827   4.658 -0.3604  0.3241 -0.0283
19999TIP3   OH281487   2.172   4.051   2.489  0.5411 -0.0097 -0.1734
19999TIP3    H181488   2.137   3.969   2.453 -0.5112 -0.0057  0.8048
19999TIP3    H281489   2.197   4.029   2.578 -0.0963  0.8135  0.2202
20000TIP3   OH281490   6.472   1.293   4.313  0.3652 -0.3257  0.4592
20000TIP3    H181491   6.403   1.273   4.376 -0.2641 -0.6574 -0.3165
20000TIP3    H281492   6.466   1.223   4.247  1.8407 -0.7063  0.6835
20001TIP3   OH281493   6.795   0.623  14.301  0.2849  0.0819 -0.2052
20001TIP3    H181494   6.868   0.681  14.282 -0.0147  0.1438 -1.2191
20001TIP3    H281495   6.830   0.535  14.287 -0.3640  0.1708 -2.7569
20002TIP3   OH281496   5.603   0.174  15.938 -1.1051 -0.2474  0.2054
20002TIP3    H181497   5.686   0.222  15.929 -1.4104 -0.0755 -2.3097
20002TIP3    H281498   5.622   0.087  15.903 -2.2557  0.1642 -1.5471
20003TIP3   OH281499   2.458   1.945   0.377 -0.6593  0.0476 -0.4477
20003TIP3    H181500   2.521   1.874   0.390 -1.1484  0.0244  2.2387
20003TIP3    H281501   2.504   2.007   0.320  0.9584 -0.9554 -0.3048
20004TIP3   OH281502   6.268   1.897  14.035  0.0838 -0.0265 -0.5719
20004TIP3    H181503   6.226   1.942  14.108 -0.4627 -0.6532 -0.4925
20004TIP3    H281504   6.324   1.964  13.995 -0.3636  0.5956 -0.1800
20005TIP3   OH281505   6.692   4.102   2.755  0.2074 -0.0899  0.4309
20005TIP3    H181506   6.758   4.044   2.793 -0.1285 -0.1261  0.9827
20005TIP3    H281507   6.611   4.079   2.801 -0.7563 -1.7706 -1.9462
20006TIP3   OH281508   3.707   4.103   2.453 -0.1939 -0.1059 -0.0521
20006TIP3    H181509   3.756   4.051   2.389  0.0930  0.1914 -0.0758
20006TIP3    H281510   3.694   4.188   2.411 -0.6888 -0.1668 -0.0248
20007TIP3   OH281511   2.762   1.334  16.404  0.6205  0.5723  0.1698
20007TIP3    H181512   2.752   1.284  16.323 -0.8943  1.8471 -0.4714
20007TIP3    H281513   2.678   1.324  16.450  0.8449  1.2624  0.7571
20008TIP3   OH281514   4.141   4.547  11.522 -1.0300 -0.0776 -0.1707
20008TIP3    H181515   4.163   4.487  11.593 -2.2838  0.0862  0.3802
20008TIP3    H281516   4.049   4.529  11.503 -0.6101 -0.4421 -2.0915
20009TIP3   OH281517   0.415   5.367   2.180 -0.1348  0.2233  0.4120
20009TIP3    H181518   0.329   5.337   2.211 -0.5401  1.8562  1.0158
20009TIP3    H281519   0.396   5.413   2.098  0.3465 -0.4416 -0.0801
20010TIP3   OH281520   2.031   3.371   0.672  0.4982  0.4735 -0.1971
20010TIP3    H181521   2.058   3.280   0.662  0.9251  0.7181 -1.4755
20010TIP3    H281522   1.939   3.366   0.694  0.1839 -0.2681 -1.5400
20011TIP3   OH281523   0.482   2.017  12.884 -0.2188  0.2302 -0.9720
20011TIP3    H181524   0.452   1.942  12.934  1.2881 -0.5947 -1.2262
20011TIP3    H281525   0.402   2.062  12.856 -1.1114  0.0436  1.1077
20012TIP3   OH281526   4.808   6.755  12.099 -0.0329  0.1851 -0.2160
20012TIP3    H181527   4.832   6.764  12.191 -1.0211 -3.0730  0.4673
20012TIP3    H281528   4.725   6.801  12.092  0.7389  1.7100  0.1049
20013TIP3   OH281529   0.199   2.395  14.013 -0.1888  1.1220 -0.2292
20013TIP3    H181530   0.152   2.380  13.931  0.6299 -0.1578 -0.4918
20013TIP3    H281531   0.174   2.484  14.039 -1.0826  1.2535 -1.4436
20014TIP3   OH281532   3.844   3.063  14.090  0.3071  0.3592 -0.0504
20014TIP3    H181533   3.791   3.113  14.029  1.1708  0.7599 -0.4988
20014TIP3    H281534   3.875   3.129  14.153 -1.3272 -0.1910  1.4068
20015TIP3   OH281535   0.673   6.558   3.600  0.4656  0.2953  0.0802
20015TIP3    H181536   0.584   6.542   3.568  0.4486 -0.2174  0.3686
20015TIP3    H281537   0.699   6.641   3.560 -0.5214  0.9713  0.8012
20016TIP3   OH281538   0.266   3.767  16.525  0.2924 -1.1585  0.0709
20016TIP3    H181539   0.340   3.707  16.522  0.2269 -1.2016 -1.0332
20016TIP3    H281540   0.194   3.721  16.481 -1.0032 -1.8742  2.7171
20017TIP3   OH281541   4.592   6.089   1.958  0.4252 -0.0454  0.3340
20017TIP3    H181542   4.622   5.998   1.964  0.6080  0.0464  0.8943
20017TIP3    H281543   4.611   6.115   1.868 -1.6310 -1.2350 -0.4946
20018TIP3   OH281544   6.665   4.634  13.219  0.1201  0.6244 -0.3806
20018TIP3    H181545   6.670   4.727  13.240 -1.5323 -0.0689  4.0981
20018TIP3    H281546   6.575   4.620  13.192  0.2949  0.2687 -0.7918
20019TIP3   OH281547   4.676   6.423   2.741 -0.1910 -0.2443  0.1195
20019TIP3    H181548   4.638   6.369   2.810  0.1497  0.1064  0.5974
20019TIP3    H281549   4.762   6.448   2.775 -1.4507  3.0420  1.2923
20020TIP3   OH281550   3.844   5.252  14.428  0.2125  0.1484  0.2305
20020TIP3    H181551   3.877   5.188  14.365  0.2884 -1.4897  1.8489
20020TIP3    H281552   3.915   5.315  14.438 -0.0956  0.8738 -1.8526
20021TIP3   OH281553   4.863   1.978   3.392 -0.0528 -0.1133 -0.1981
20021TIP3    H181554   4.949   2.000   3.427  0.4507 -1.2789 -0.6705
20021TIP3    H281555   4.844   1.891   3.427 -0.8883 -0.0083 -0.3727
20022TIP3   OH281556   1.216   2.016  11.056 -0.0318 -0.1035  0.0616
20022TIP3    H181557   1.270   2.083  11.014  0.4684  0.2888  1.2760
20022TIP3    H281558   1.190   1.958  10.985  1.6597 -0.0772 -0.6344
20023TIP3   OH281559   6.563   0.819  14.259 -0.4906  0.3141 -0.6422
20023TIP3    H181560   6.567   0.849  14.168  1.1520 -0.4801 -0.8547
20023TIP3    H281561   6.627   0.749  14.265 -0.8531  0.0768  1.0459
20024TIP3   OH281562   0.763   5.716   5.913  0.1157  0.0897 -0.0893
20024TIP3    H181563   0.706   5.770   5.969 -0.4300 -0.3330 -0.2328
20024TIP3    H281564   0.707   5.689   5.840  0.5172 -0.2792 -0.2658
20025TIP3   OH281565   4.485   0.422  12.958 -0.2227 -0.1631 -0.4152
20025TIP3    H181566   4.575   0.391  12.952 -0.2312  0.0355 -1.8842
20025TIP3    H281567   4.473   0.478  12.882 -2.2823 -2.0566 -1.6134
20026TIP3   OH281568   5.713   2.004   2.344  0.0164 -0.9127 -0.7864
20026TIP3    H181569   5.711   1.929   2.285 -0.4599 -1.2847 -0.3105
20026TIP3    H281570   5.726   2.080   2.287  1.0999 -1.4075 -1.2242
20027TIP3   OH281571   2.595   2.764   1.089  0.0210 -0.3370  0.1360
20027TIP3    H181572   2.660   2.707   1.046  0.3653  1.3089 -1.6858
20027TIP3    H281573   2.514   2.714   1.086 -0.0295 -0.2749 -2.7753
20028TIP3   OH281574   5.119   2.383  12.857  0.0601  0.5655  0.5989
20028TIP3    H181575   5.067   2.353  12.931 -0.3549  0.1460  0.1444
20028TIP3    H281576   5.197   2.422  12.897  0.1445 -0.2307  1.2332
20029TIP3   OH281577   4.714   3.275   2.312 -0.4240  0.1370 -0.2363
20029TIP3    H181578   4.763   3.254   2.392  0.6005 -1.5738 -1.2646
20029TIP3    H281579   4.781   3.289   2.245 -1.2910  0.7884 -0.9873
20030TIP3   OH281580   6.429   3.702   4.523  0.2952  0.5621  0.0679
20030TIP3    H181581   6.509   3.752   4.541 -0.1541  1.9711 -1.6119
20030TIP3    H281582   6.358   3.767   4.528 -0.8430 -0.7027  1.7885
20031TIP3   OH281583   4.983   3.156  13.448 -0.1120  0.3047  0.1246
20031TIP3    H181584   4.958   3.110  13.528  1.7245 -2.2389 -0.6466
20031TIP3    H281585   5.058   3.210  13.474 -0.5769  0.8045  0.4517
20032TIP3   OH281586   0.175   5.757  16.308  0.7476  0.1945  0.7465
20032TIP3    H181587   0.130   5.825  16.359 -0.4214 -0.9448  1.3047
20032TIP3    H281588   0.268   5.776  16.320  0.4515  1.4363  1.2453
20033TIP3   OH281589   1.392   3.644   5.861  0.3324 -0.4987 -0.6178
20033TIP3    H181590   1.360   3.694   5.936  0.9365  0.1416 -0.7682
20033TIP3    H281591   1.329   3.662   5.791  0.0112 -0.7361 -0.3869
20034TIP3   OH281592   1.575   2.590   2.406  0.1168  0.2439  0.3333
20034TIP3    H181593   1.549   2.563   2.318 -0.5508  2.7738 -0.3165
20034TIP3    H281594   1.553   2.515   2.462  1.9161 -2.0297 -1.7792
20035TIP3   OH281595   4.708   3.673   0.488  0.0257 -0.4401 -0.2827
20035TIP3    H181596   4.642   3.604   0.488 -3.6136  2.6851 -2.2871
20035TIP3    H281597   4.690   3.724   0.567  1.3226 -0.5542  0.1104
20036TIP3   OH281598   4.499   3.411   4.007 -0.7635  0.1665  0.5229
20036TIP3    H181599   4.568   3.476   4.023 -0.9885  0.1979  1.4431
20036TIP3    H281600   4.421   3.449   4.045 -1.2746  0.0746 -0.4132
20037TIP3   OH281601   1.180   1.532  14.969  0.3834 -0.0275 -0.3288
20037TIP3    H181602   1.179   1.583  14.889  0.1940  0.8454  0.2196
20037TIP3    H281603   1.133   1.451  14.947 -2.8172  1.6296 -0.1771
20038TIP3   OH281604   5.358   1.414  14.184 -0.1490  0.3843  0.2426
20038TIP3    H181605   5.433   1.415  14.124 -0.3464  0.9052  0.0033
20038TIP3    H281606   5.392   1.371  14.262 -0.5050 -2.4016 -1.0166
20039TIP3   OH281607   4.443   0.966  14.286  0.4586  0.1516  0.0087
20039TIP3    H181608   4.427   0.886  14.337  0.4107  0.2216  0.1046
20039TIP3    H281609   4.359   1.013  14.289 -0.2409 -0.8789 -1.9833
20040TIP3   OH281610   2.517   4.461   2.609 -0.1262  0.1814  0.0290
20040TIP3    H181611   2.505   4.523   2.536  0.6775  1.4061  0.8883
20040TIP3    H281612   2.473   4.382   2.581  0.8582  0.3284 -2.1596
20041TIP3   OH281613   1.623   4.558  11.989 -0.0908 -0.5512  0.5940
20041TIP3    H181614   1.674   4.546  12.069 -0.6378 -0.7119  0.9255
20041TIP3    H281615   1.670   4.508  11.923 -0.4001 -1.6196  1.1486
20042TIP3   OH281616   4.284   4.354  14.022 -0.5598 -0.9971  0.0714
20042TIP3    H181617   4.243   4.277  13.982 -0.6417 -0.3151 -1.1920
20042TIP3    H281618   4.294   4.416  13.950 -1.2735  0.5242  1.2416
20043TIP3   OH281619   6.532   2.325  14.610 -0.0377 -0.3584 -0.4136
20043TIP3    H181620   6.518   2.399  14.669 -0.2121  1.4954 -2.6134
20043TIP3    H281621   6.560   2.253  14.666 -1.8277  0.7749  2.0829
20044TIP3   OH281622   4.453   6.561   4.936 -0.2184 -0.1085 -0.0320
20044TIP3    H181623   4.530   6.604   4.899 -0.7338 -0.7303 -1.9273
20044TIP3    H281624   4.489   6.503   5.003  1.0415 -0.8279 -1.2762
20045TIP3   OH281625   1.689   4.761   1.844 -0.3340 -0.2061 -0.3349
20045TIP3    H181626   1.755   4.829   1.826 -0.2348 -0.2667 -0.1995
20045TIP3    H281627   1.730   4.704   1.909 -0.3883 -0.4365 -0.4996
20046TIP3   OH281628   3.431   4.993  11.102  0.5522  0.1779 -0.3470
20046TIP3    H181629   3.499   4.997  11.034 -0.2593  0.6693 -1.1640
20046TIP3    H281630   3.402   4.902  11.101 -0.7836  0.5684 -2.0613
20047TIP3   OH281631   6.680   6.481  10.793  0.7036  0.0970  0.1016
20047TIP3    H181632   6.732   6.541  10.739  1.6116  0.8326  1.7132
20047TIP3    H281633   6.592   6.483  10.754  1.1943  1.0126 -1.0029
20048TIP3   OH281634   0.502   2.973   2.831  0.1722  0.1305  0.5812
20048TIP3    H181635   0.443   2.899   2.822  0.4437  0.1531 -1.8819
20048TIP3    H281636   0.447   3.044   2.865 -0.8261 -0.3115 -0.0778
20049TIP3   OH281637   6.694   6.533   5.301 -0.1279 -0.2714  0.4977
20049TIP3    H181638   6.732   6.557   5.385 -0.0166  0.5829  0.2097
20049TIP3    H281639   6.716   6.606   5.243 -0.3203 -0.7860 -0.2353
20050TIP3   OH281640   3.102   4.892   5.519 -0.3565  0.5029  0.3313
20050TIP3    H181641   3.082   4.814   5.571 -1.2310  0.1981 -0.4230
20050TIP3    H281642   3.135   4.857   5.436  0.4915  0.9691  0.4669
20051TIP3   OH281643   6.382   0.462   4.678 -0.4084 -0.0593  0.3692
20051TIP3    H181644   6.436   0.512   4.617 -3.2611  0.9571 -1.4947
20051TIP3    H281645   6.350   0.388   4.628 -2.5854  0.6391  0.6130
20052TIP3   OH281646   5.248   0.694   5.043 -0.5650 -0.8529 -0.1564
20052TIP3    H181647   5.268   0.629   4.977 -0.6135 -2.2767  1.1765
20052TIP3    H281648   5.246   0.777   4.996 -0.9297 -1.8554 -1.9751
20053TIP3   OH281649   4.502   1.676   4.786 -0.1543 -0.3153  0.2305
20053TIP3    H181650   4.477   1.697   4.696  1.4813  0.5351 -0.0758
20053TIP3    H281651   4.589   1.637   4.778  0.7005  1.2108  1.5302
20054TIP3   OH281652   0.499   0.573   0.408  0.4670 -0.1844 -0.8657
20054TIP3    H181653   0.413   0.559   0.447  1.2218 -0.4103  0.8011
20054TIP3    H281654   0.558   0.520   0.461  1.4444 -1.3443 -2.9877
20055TIP3   OH281655   1.771   2.878   5.625 -0.1377  0.1377 -0.0973
20055TIP3    H181656   1.856   2.875   5.670 -0.4793  0.8184  0.6288
20055TIP3    H281657   1.788   2.927   5.545  0.7643 -2.1875 -1.4148
20056TIP3   OH281658   0.187   2.833   0.894 -0.0775  0.1193 -0.4540
20056TIP3    H181659   0.134   2.766   0.851 -0.8566  1.6749 -2.0102
20056TIP3    H281660   0.152   2.916   0.863 -0.6609  1.4174  3.1885
20057TIP3   OH281661   0.609   5.842  11.440  0.5366 -0.0611  0.3587
20057TIP3    H181662   0.637   5.762  11.396 -2.4935 -1.6633  1.0924
20057TIP3    H281663   0.673   5.853  11.511  1.7805 -1.0418 -0.5477
20058TIP3   OH281664   3.630   2.095  16.010  0.2862 -0.1452 -0.4394
20058TIP3    H181665   3.722   2.082  16.032  0.3176 -2.1305 -1.5577
20058TIP3    H281666   3.626   2.184  15.975  1.8728 -0.2132 -0.8427
20059TIP3   OH281667   6.153   5.561  16.886  0.0350 -0.0678 -0.2390
20059TIP3    H181668   6.189   5.566  16.797 -1.2465 -0.8187 -0.8094
20059TIP3    H281669   6.065   5.527  16.875 -1.2800  2.5906  1.0263
20060TIP3   OH281670   5.318   4.722  11.275 -0.4668  0.3104 -0.0964
20060TIP3    H181671   5.373   4.647  11.251  1.0328  1.2734  0.2194
20060TIP3    H281672   5.353   4.795  11.224 -0.0705  1.4046  1.6691
20061TIP3   OH281673   3.299   0.228   6.252  0.4562 -0.0750  0.2190
20061TIP3    H181674   3.218   0.266   6.218  0.3216  0.0934  0.7238
20061TIP3    H281675   3.346   0.302   6.290  1.1668 -0.0483 -0.6761
20062TIP3   OH281676   6.769   3.042  13.906 -0.2440  0.2415  0.3261
20062TIP3    H181677   6.822   3.045  13.986  1.5153 -0.6512 -0.7360
20062TIP3    H281678   6.746   3.133  13.890  0.5289  0.5983  1.1194
20063TIP3   OH281679   1.378   1.828   3.008  0.4715  0.4959  0.5293
20063TIP3    H181680   1.422   1.787   2.934 -1.4280 -1.5374  0.4486
20063TIP3    H281681   1.285   1.826   2.986  0.1000  3.1913  1.4059
20064TIP3   OH281682   2.383   5.566  16.568  0.3336  0.1075  0.3615
20064TIP3    H181683   2.327   5.490  16.555  0.5749 -0.0926  0.4736
20064TIP3    H281684   2.445   5.562  16.495  1.1023 -0.4890  1.0288
20065TIP3   OH281685   6.561   6.776   2.246 -0.3394 -0.1017 -0.0861
20065TIP3    H181686   6.540   6.722   2.170  1.0554  1.9841 -2.1006
20065TIP3    H281687   6.492   6.842   2.249  0.4412  0.7525 -0.5357
20066TIP3   OH281688   3.253   5.227   0.725  0.0784  0.2026  0.4252
20066TIP3    H181689   3.249   5.189   0.813 -0.6185 -0.1795  0.2299
20066TIP3    H281690   3.174   5.196   0.681 -0.0906  1.2010 -0.0140
20067TIP3   OH281691   3.199   0.766  13.109  0.3905  0.4307  0.2831
20067TIP3    H181692   3.262   0.733  13.046  1.7110  0.8639  1.3316
20067TIP3    H281693   3.252   0.801  13.181 -0.9966  2.0440  0.5988
20068TIP3   OH281694   0.933   1.065   1.346  0.1328  0.3806 -0.2267
20068TIP3    H181695   0.981   0.990   1.311  2.2093  0.8269  1.4744
20068TIP3    H281696   0.963   1.139   1.294  0.3367  0.4670  0.0123
20069TIP3   OH281697   1.913   4.152   4.642 -0.2151  0.2427 -0.3777
20069TIP3    H181698   1.898   4.120   4.731 -0.5916  1.0313 -0.1545
20069TIP3    H281699   1.825   4.156   4.603 -0.0277 -0.3705 -0.8893
20070TIP3   OH281700   5.000   1.519   5.176  0.4921  0.3370  0.0077
20070TIP3    H181701   5.076   1.480   5.219 -0.3974 -3.3101 -1.3605
20070TIP3    H281702   5.034   1.548   5.091  0.4333 -1.3169 -0.6173
20071TIP3   OH281703   0.079   2.626  14.108 -0.4799 -0.1206 -0.0837
20071TIP3    H181704   0.001   2.676  14.087  1.3362  2.1094 -2.0056
20071TIP3    H281705   0.148   2.692  14.119  1.5149 -2.0567 -0.2287
20072TIP3   OH281706   4.877   3.970  17.131 -0.0126 -0.8292  0.3901
20072TIP3    H181707   4.909   4.029  17.063  0.9115 -1.3489  0.3721
20072TIP3    H281708   4.890   4.019  17.213 -2.1804  0.2752  0.1625
20073TIP3   OH281709   5.182   1.866   0.512  0.1146  0.3545 -0.1142
20073TIP3    H181710   5.100   1.880   0.560  0.4344  0.6899  0.3527
20073TIP3    H281711   5.199   1.773   0.520  0.7592  0.5711  1.4459
20074TIP3   OH281712   3.612   6.688  17.046  0.0204  0.0077  0.1190
20074TIP3    H181713   3.595   6.686  17.140  0.4934  0.4568  0.2195
20074TIP3    H281714   3.634   6.598  17.023  3.0875  0.4003  1.0697
20075TIP3   OH281715   5.264   0.008   4.083  0.2100 -0.0182 -0.3001
20075TIP3    H181716   5.239   0.081   4.025  0.3687  0.2648 -0.0180
20075TIP3    H281717   5.195  -0.057   4.072 -1.1042  1.0734  1.0732
20076TIP3   OH281718   3.413   3.391  14.553  0.4057 -0.3669  0.1195
20076TIP3    H181719   3.333   3.348  14.523 -0.4719  1.4293 -0.2980
20076TIP3    H281720   3.411   3.381  14.649 -0.4235 -0.2068  0.1283
20077TIP3   OH281721   1.383   1.884  16.598  0.0893  0.1867  0.3282
20077TIP3    H181722   1.409   1.948  16.664  1.9403  2.4896 -2.4038
20077TIP3    H281723   1.464   1.864  16.551 -1.1896 -1.0855 -1.4662
20078TIP3   OH281724   6.233   4.188  11.797 -0.3472  0.5162 -0.4334
20078TIP3    H181725   6.241   4.275  11.758 -1.6956  0.4176 -0.9952
20078TIP3    H281726   6.293   4.133  11.746 -0.1136  0.9423 -0.6240
20079TIP3   OH281727   0.179   3.551   2.454 -0.4347  0.1831 -0.4474
20079TIP3    H181728   0.121   3.560   2.530 -2.2750 -2.2178 -1.4232
20079TIP3    H281729   0.161   3.629   2.401 -0.6507  0.8595  0.5925
20080TIP3   OH281730   6.160   1.083  14.965  0.6748 -0.2419 -0.3449
20080TIP3    H181731   6.134   1.065  14.874 -3.3119 -0.6236  0.6506
20080TIP3    H281732   6.181   0.996  15.001 -0.0756 -0.4366 -0.3476
20081TIP3   OH281733   6.378   3.952  13.829 -0.5962  0.1219  0.0908
20081TIP3    H181734   6.450   3.946  13.766  0.6148 -0.0312  1.4347
20081TIP3    H281735   6.312   3.890  13.797  0.6455 -1.0811 -0.2110
20082TIP3   OH281736   1.660   4.241  14.042  0.1648  1.0878 -0.5364
20082TIP3    H181737   1.666   4.208  14.132  1.2706  0.5314 -0.7949
20082TIP3    H281738   1.659   4.162  13.988 -4.0835  1.2181 -0.9431
20083TIP3   OH281739   4.885   1.166   4.444 -0.1368 -0.0245 -0.2462
20083TIP3    H181740   4.917   1.114   4.371  0.2665  0.1993 -0.2290
20083TIP3    H281741   4.803   1.205   4.412 -0.1607 -0.2361 -0.4426
20084TIP3   OH281742   5.397   1.245  11.791 -0.4438  0.1506  0.0468
20084TIP3    H181743   5.465   1.288  11.842 -2.4001  0.7642  2.3076
20084TIP3    H281744   5.440   1.168  11.753  1.3079  0.0603  2.0392
20085TIP3   OH281745   2.202   4.364   3.714  0.3215  0.2740 -0.0352
20085TIP3    H181746   2.199   4.296   3.646 -0.6915 -1.7359  1.9083
20085TIP3    H281747   2.194   4.446   3.665 -0.8209 -1.0734 -2.3234
20086TIP3   OH281748   2.346   5.807   5.465 -0.2826 -0.9208 -0.3505
20086TIP3    H181749   2.336   5.897   5.497  0.6726 -1.5481  1.9372
20086TIP3    H281750   2.320   5.811   5.373 -3.5137  1.0182  0.4867
20087TIP3   OH281751   3.744   6.669  14.008  0.5672 -0.1028  0.5487
20087TIP3    H181752   3.745   6.752  14.055 -0.4160  0.4100 -0.2916
20087TIP3    H281753   3.669   6.621  14.044  1.3940 -0.8279  1.3417
20088TIP3   OH281754   4.891   0.325  16.236 -0.0223  0.1794 -0.4781
20088TIP3    H181755   4.970   0.284  16.202  0.5956 -0.2679  1.3767
20088TIP3    H281756   4.883   0.291  16.326 -0.0793  3.2337  0.7973
20089TIP3   OH281757   4.199   2.534  15.040 -0.2170 -0.7803 -0.0747
20089TIP3    H181758   4.173   2.616  14.996  1.8174  0.3224  0.6244
20089TIP3    H281759   4.206   2.470  14.969  0.0852  0.1869 -0.9486
20090TIP3   OH281760   6.576   6.320   1.441 -0.1002 -0.4008  1.0007
20090TIP3    H181761   6.501   6.277   1.483 -0.7729 -0.0702  0.1728
20090TIP3    H281762   6.652   6.290   1.491 -0.8080 -0.5096  2.0461
20091TIP3   OH281763   5.613   5.883   2.527  0.2046  0.2573  0.1287
20091TIP3    H181764   5.645   5.862   2.439 -0.9214  0.3392 -0.3116
20091TIP3    H281765   5.519   5.870   2.523  0.2516 -0.8903  1.6656
20092TIP3   OH281766   0.072   1.176  13.767  0.4357 -0.5877 -0.2131
20092TIP3    H181767   0.070   1.100  13.708 -1.2973  0.1724 -1.2079
20092TIP3    H281768   0.016   1.150  13.840  0.3004 -0.4896 -0.2811
20093TIP3   OH281769   2.707   4.761   2.299 -0.2607  0.0051 -0.0256
20093TIP3    H181770   2.760   4.682   2.310  0.4397 -0.0864 -3.3135
20093TIP3    H281771   2.755   4.829   2.348  0.6404 -0.9791  0.4904
20094TIP3   OH281772   6.526   6.602   2.043 -0.0894  0.6237 -0.1790
20094TIP3    H181773   6.438   6.619   2.008  0.3176  0.9832 -1.0515
20094TIP3    H281774   6.559   6.530   1.989  0.0575  0.3096  0.3243
20095TIP3   OH281775   5.225   6.264   0.075  0.4123 -0.1119  0.1545
20095TIP3    H181776   5.167   6.317   0.131  0.4044  2.8286 -2.4110
20095TIP3    H281777   5.306   6.315   0.069  0.2168  0.0220 -2.8609
20096TIP3   OH281778   3.320   2.612  15.291 -0.0129  0.0470 -0.0471
20096TIP3    H181779   3.226   2.629  15.296  0.1114  0.4325  1.7895
20096TIP3    H281780   3.327   2.516  15.292 -0.3638  0.0165  1.1764
20097TIP3   OH281781   0.679   4.685   6.497  0.8273 -0.2617 -0.1109
20097TIP3    H181782   0.647   4.698   6.586 -1.5606  3.7290 -1.2631
20097TIP3    H281783   0.720   4.768   6.474  3.2642 -1.8834 -2.1364
20098TIP3   OH281784   2.923   4.760  15.381  0.4631 -0.3825  0.4744
20098TIP3    H181785   2.913   4.854  15.366 -1.1337 -0.6620 -0.4654
20098TIP3    H281786   2.971   4.729  15.304 -0.3174 -0.5535  0.0534
20099TIP3   OH281787   2.546   0.299   2.399  0.3883  0.0349 -0.4012
20099TIP3    H181788   2.621   0.359   2.407  0.6464 -0.4802  1.7099
20099TIP3    H281789   2.530   0.269   2.488 -1.2978 -1.1689 -1.0568
20100TIP3   OH281790   1.924   2.593   1.433  1.3572  0.3537  0.0607
20100TIP3    H181791   1.953   2.684   1.426  0.9354  0.4488 -0.4949
20100TIP3    H281792   1.921   2.576   1.528  4.1329  0.0359  0.1745
20101TIP3   OH281793   6.767   5.352   0.598  0.1450  0.2925  0.6118
20101TIP3    H181794   6.850   5.395   0.579  0.7767 -1.4917 -0.9376
20101TIP3    H281795   6.720   5.351   0.515 -0.0354 -1.5051  0.6844
20102TIP3   OH281796   5.505   6.713   2.090 -0.0914  0.5208  0.1124
20102TIP3    H181797   5.480   6.625   2.120 -0.5354  0.0351 -1.5333
20102TIP3    H281798   5.422   6.757   2.072  0.0747  1.8382  2.2576
20103TIP3   OH281799   2.428   4.531  15.937  0.1224 -0.1664 -0.0031
20103TIP3    H181800   2.409   4.531  16.031  1.1000  0.3891  0.2125
20103TIP3    H281801   2.482   4.609  15.924 -1.1577  0.5569 -1.2854
20104TIP3   OH281802   5.974   0.609   4.684  0.2393 -0.5466  0.1608
20104TIP3    H181803   5.914   0.618   4.758  0.6837 -0.4281  0.5076
20104TIP3    H281804   6.043   0.551   4.715 -1.2489 -3.2503 -1.2337
20105TIP3   OH281805   5.889   3.684   2.989 -0.5549 -0.6316 -0.2142
20105TIP3    H181806   5.944   3.638   2.925 -0.3102  0.2858 -0.6749
20105TIP3    H281807   5.865   3.616   3.053  0.1630 -1.3005 -0.6382
20106TIP3   OH281808   1.023   0.386   3.330 -0.5719  0.4226  0.6024
20106TIP3    H181809   1.049   0.435   3.251  2.7315  0.1833  1.4048
20106TIP3    H281810   0.971   0.313   3.297  0.0747  0.7660 -1.2901
20107TIP3   OH281811   5.040   2.691   0.678 -0.1264  0.2627 -0.0059
20107TIP3    H181812   5.132   2.664   0.671 -0.3509 -0.4419 -0.3200
20107TIP3    H281813   5.023   2.695   0.772  0.8954  2.7716  0.1548
20108TIP3   OH281814   6.816   5.624  14.405 -0.4551  0.2997  0.0286
20108TIP3    H181815   6.865   5.548  14.435  0.9177  0.6268 -1.2775
20108TIP3    H281816   6.739   5.627  14.463  0.8264 -0.4579  1.8823
20109TIP3   OH281817   6.227   3.957   0.863 -0.4024 -0.0453 -0.8323
20109TIP3    H181818   6.140   3.986   0.833 -0.2717 -0.0564 -1.2308
20109TIP3    H281819   6.258   4.030   0.917 -0.7480 -0.1333 -0.5069
20110TIP3   OH281820   0.550   0.886   0.865  0.0682 -0.1664 -0.0855
20110TIP3    H181821   0.517   0.823   0.801  0.1749  1.1740 -1.5232
20110TIP3    H281822   0.643   0.865   0.875 -0.0697 -0.7194  0.0444
20111TIP3   OH281823   0.765   2.299   2.385  0.4326 -0.1236  0.4372
20111TIP3    H181824   0.841   2.348   2.355 -0.6478  0.4581 -1.5667
20111TIP3    H281825   0.737   2.344   2.465  0.2839  1.7599 -0.6106
20112TIP3   OH281826   4.574   0.341   4.309 -0.7345  0.3656  0.0494
20112TIP3    H181827   4.600   0.418   4.259 -1.3982  0.6066  0.0657
20112TIP3    H281828   4.527   0.376   4.385 -1.3489 -0.0629 -0.1255
20113TIP3   OH281829   1.538   3.181  15.383  0.1032 -0.1790 -0.0888
20113TIP3    H181830   1.589   3.152  15.458 -0.9748 -0.2539  0.6325
20113TIP3    H281831   1.482   3.106  15.361  1.3525 -0.6614 -1.8465
20114TIP3   OH281832   6.531   2.449   5.614  0.2830  0.0347 -0.6240
20114TIP3    H181833   6.499   2.361   5.598  0.0428  0.2098 -1.1010
20114TIP3    H281834   6.463   2.507   5.580  0.7245  0.4047 -0.8863
20115TIP3   OH281835   4.402   5.419  11.653 -0.3397 -0.1967  0.0593
20115TIP3    H181836   4.444   5.420  11.567  0.8701 -0.4331  0.6289
20115TIP3    H281837   4.462   5.468  11.709 -1.4911  0.6120  0.6191
20116TIP3   OH281838   3.606   2.793   1.064  0.2492  0.3424 -0.4624
20116TIP3    H181839   3.568   2.865   1.113 -1.9370 -0.0119 -1.5390
20116TIP3    H281840   3.536   2.729   1.056  0.6771  0.0983 -3.4606
20117TIP3   OH281841   6.240   0.849  11.924 -0.0217  0.1847 -0.3942
20117TIP3    H181842   6.317   0.861  11.979 -0.0447  1.9456 -0.6729
20117TIP3    H281843   6.215   0.938  11.898 -1.8581 -0.3726 -0.7098
20118TIP3   OH281844   5.799   3.757   0.203 -0.2742  0.7684  0.2172
20118TIP3    H181845   5.819   3.844   0.169  1.0297  1.5054  2.6301
20118TIP3    H281846   5.877   3.705   0.182  0.0936  0.9467  1.0952
20119TIP3   OH281847   3.089   0.481   5.892 -0.4411  0.2747 -0.0156
20119TIP3    H181848   3.184   0.475   5.893 -0.2848  0.8108 -2.8493
20119TIP3    H281849   3.071   0.575   5.893 -0.9975  0.1745  0.8725
20120TIP3   OH281850   4.501   3.554  12.196 -0.0755  0.2516  0.1175
20120TIP3    H181851   4.548   3.633  12.221 -0.8757  0.6523  0.3926
20120TIP3    H281852   4.525   3.489  12.263 -0.0129  0.4850  0.3231
20121TIP3   OH281853   4.622   2.150   4.873 -0.1342 -0.3153 -0.4446
20121TIP3    H181854   4.571   2.203   4.812 -1.0022  0.8899  1.2372
20121TIP3    H281855   4.567   2.073   4.890 -1.0324  0.5114  0.6089
20122TIP3   OH281856   0.435   1.929   0.080 -0.3359 -0.3776  0.2982
20122TIP3    H181857   0.359   1.987   0.079 -0.2230 -0.2173  0.8837
20122TIP3    H281858   0.441   1.898   0.170  0.6091  0.0258  0.3908
20123TIP3   OH281859   4.168   2.330   0.622  0.6069 -0.1310 -0.1282
20123TIP3    H181860   4.229   2.340   0.549  0.7971 -2.3781 -0.3431
20123TIP3    H281861   4.223   2.300   0.695  0.0487 -0.3589  0.2008
20124TIP3   OH281862   6.333   3.010  14.531 -0.3509  0.4648 -0.3950
20124TIP3    H181863   6.300   2.934  14.579  0.6872  0.1567 -0.1524
20124TIP3    H281864   6.380   3.061  14.597 -2.0528  1.9824 -0.2656
20125TIP3   OH281865   5.932   6.221  16.486 -0.2858  0.1317  0.5779
20125TIP3    H181866   5.976   6.171  16.554 -0.0639  0.6450  0.8129
20125TIP3    H281867   5.989   6.295  16.469 -1.8819  1.8476  2.2034
20126TIP3   OH281868   5.516   6.729  16.577 -0.6383 -0.1313 -0.3117
20126TIP3    H181869   5.502   6.685  16.493  0.2355 -0.7989 -0.1168
20126TIP3    H281870   5.577   6.673  16.624 -0.3970  0.7131  0.4105
20127TIP3   OH281871   2.560   0.892  15.466  0.1056 -0.1984 -0.1837
20127TIP3    H181872   2.593   0.974  15.501 -1.5296  0.6194 -0.4367
20127TIP3    H281873   2.574   0.828  15.535  0.4757  0.5159  0.4122
20128TIP3   OH281874   0.694   6.193   5.601  0.3454  0.0803  0.6979
20128TIP3    H181875   0.668   6.173   5.512 -0.3476 -0.3025  0.9779
20128TIP3    H281876   0.658   6.280   5.618  2.6165  1.2809 -0.2233
20129TIP3   OH281877   4.147   3.621  13.387  0.0393  0.0928 -0.1660
20129TIP3    H181878   4.165   3.700  13.336 -2.1017  0.1364 -0.9538
20129TIP3    H281879   4.178   3.550  13.332  1.5989  0.3133  0.3683
20130TIP3   OH281880   6.624   6.343   3.964  0.1687 -0.4150  0.0858
20130TIP3    H181881   6.544   6.376   3.923 -1.0059 -1.8412  1.0823
20130TIP3    H281882   6.674   6.421   3.988 -1.1764  0.5327 -0.1154
20131TIP3   OH281883   6.164   4.519  14.398  0.4685 -0.5523  0.4065
20131TIP3    H181884   6.145   4.556  14.312 -2.1385 -0.5639  0.9089
20131TIP3    H281885   6.260   4.513  14.401  0.7306  1.4997 -1.6098
20132TIP3   OH281886   1.699   5.343  14.626 -0.0497 -0.1765  0.0458
20132TIP3    H181887   1.785   5.302  14.633 -0.8402 -1.8297  0.5591
20132TIP3    H281888   1.637   5.271  14.638 -1.5176  1.2106  1.1925
20133TIP3   OH281889   2.134   6.532  12.768  0.3141  0.5848 -0.3238
20133TIP3    H181890   2.047   6.505  12.738  1.2796 -1.8691 -1.1602
20133TIP3    H281891   2.125   6.538  12.863 -0.5162 -0.8662 -0.2736
20134TIP3   OH281892   3.323   2.668   3.548  0.4119 -0.2746  0.2112
20134TIP3    H181893   3.250   2.726   3.566 -0.0966 -0.7580 -0.2448
20134TIP3    H281894   3.323   2.658   3.452 -0.6024 -2.3662  0.3642
20135TIP3   OH281895   4.646   3.392  12.373 -0.2672 -0.1336 -0.1878
20135TIP3    H181896   4.652   3.443  12.453 -0.0927  0.3593 -0.5134
20135TIP3    H281897   4.717   3.327  12.381 -0.8235 -0.6756  0.4616
20136TIP3   OH281898   0.135   1.931   2.582  0.4180  0.0230  0.1540
20136TIP3    H181899   0.177   1.917   2.497  0.8456  0.3806  0.3022
20136TIP3    H281900   0.042   1.917   2.565  0.5757 -0.6375 -0.2130
20137TIP3   OH281901   3.896   6.624  10.704 -0.1184  0.2660 -0.3729
20137TIP3    H181902   3.887   6.612  10.799  2.5502 -0.4679 -0.1403
20137TIP3    H281903   3.806   6.633  10.673 -1.2735 -1.9714  1.9208
20138TIP3   OH281904   0.033   2.761   6.089  0.4305  0.5702 -0.3374
20138TIP3    H181905  -0.058   2.738   6.111  0.8044 -2.4917 -1.4442
20138TIP3    H281906   0.047   2.722   6.003  2.5753  1.7402 -0.5886
20139TIP3   OH281907   6.052   5.337   3.099 -0.7513 -0.2774 -0.1011
20139TIP3    H181908   6.028   5.429   3.101 -3.6595 -0.8464 -2.3133
20139TIP3    H281909   5.977   5.292   3.139 -0.5673 -1.8047 -1.3836
20140TIP3   OH281910   2.521   3.060  14.760 -0.1794  0.1312 -0.3687
20140TIP3    H181911   2.593   3.015  14.803  0.2037  2.1400  1.1971
20140TIP3    H281912   2.532   3.152  14.783 -2.9285  0.5846 -0.5181
20141TIP3   OH281913   6.147   3.057  13.207  0.5833 -0.0483  0.4429
20141TIP3    H181914   6.094   3.036  13.284 -0.9972  1.8018 -0.0684
20141TIP3    H281915   6.092   3.032  13.133  1.7222 -0.9643 -0.1176
20142TIP3   OH281916   3.893   2.840  12.846 -0.2058 -0.1864  0.3231
20142TIP3    H181917   3.947   2.763  12.861  1.9717  1.0921 -0.4894
20142TIP3    H281918   3.901   2.891  12.927  1.3050  0.8237 -0.4242
20143TIP3   OH281919   1.792   6.670  13.852 -0.1359 -0.2760  0.2627
20143TIP3    H181920   1.808   6.661  13.758 -0.3322 -1.7355  0.3452
20143TIP3    H281921   1.826   6.589  13.890 -0.1837  0.2353  1.4419
20144TIP3   OH281922   0.349   2.881  10.594 -0.1897 -0.1947 -0.2072
20144TIP3    H181923   0.331   2.929  10.675 -1.1414 -1.6953  0.5246
20144TIP3    H281924   0.441   2.855  10.600 -0.5788 -1.3951  1.0447
20145TIP3   OH281925   2.763   6.684  14.171  0.4496 -0.7824 -0.3539
20145TIP3    H181926   2.716   6.717  14.248  0.8033  1.6382 -1.0774
20145TIP3    H281927   2.718   6.603  14.148 -0.8179 -0.6052  1.3238
20146TIP3   OH281928   6.494   0.826  12.422  0.6423 -0.1269  0.7386
20146TIP3    H181929   6.455   0.750  12.465  0.3274 -0.4545 -0.0987
20146TIP3    H281930   6.490   0.896  12.488  0.2045 -0.6184  1.2425
20147TIP3   OH281931   0.453   5.845  16.398 -0.9494  0.1534  0.2244
20147TIP3    H181932   0.502   5.916  16.358 -0.6199 -0.3357 -0.2536
20147TIP3    H281933   0.519   5.792  16.444 -1.2320  0.3254  0.8460
20148TIP3   OH281934   0.786   0.084   4.170  0.4231  0.3752  0.3418
20148TIP3    H181935   0.863   0.032   4.194  1.3922  1.2750 -0.6972
20148TIP3    H281936   0.812   0.129   4.090 -1.2117  0.6812 -0.0420
20149TIP3   OH281937   4.888   5.446  11.211 -0.8926  0.6413  0.0833
20149TIP3    H181938   4.867   5.536  11.187  0.0082  0.1989 -2.7782
20149TIP3    H281939   4.847   5.393  11.143  3.3696 -0.6386 -1.8898
20150TIP3   OH281940   6.376   3.261   4.420 -0.0485  0.4315  0.5193
20150TIP3    H181941   6.398   3.340   4.370 -0.6922 -0.9238 -2.0959
20150TIP3    H281942   6.281   3.262   4.426 -0.3936 -1.6449 -2.4689
20151TIP3   OH281943   5.716   5.753   4.014 -0.3727  0.8739  0.2706
20151TIP3    H181944   5.783   5.774   4.079  0.2992  1.2559 -0.5255
20151TIP3    H281945   5.763   5.750   3.931 -1.1464 -0.0099 -0.1551
20152TIP3   OH281946   2.056   0.439   4.439  0.1343 -0.3216  0.1989
20152TIP3    H181947   2.032   0.525   4.404  0.9521 -0.0420  0.3130
20152TIP3    H281948   1.979   0.412   4.488 -0.0233  0.4838  0.4143
20153TIP3   OH281949   1.714   1.020  14.060  0.4160 -0.4840  0.2446
20153TIP3    H181950   1.657   1.081  14.106  1.2742  0.3841  0.1925
20153TIP3    H281951   1.686   0.933  14.089 -0.6878 -0.0590  0.4756
20154TIP3   OH281952   4.726   4.413   1.101  0.0307 -0.3376  0.1622
20154TIP3    H181953   4.635   4.422   1.131 -0.5207  0.0601 -1.4858
20154TIP3    H281954   4.737   4.483   1.037  0.2929 -2.5438 -2.3931
20155TIP3   OH281955   1.879   5.221   3.292 -0.5790 -0.2641  0.0027
20155TIP3    H181956   1.893   5.183   3.378 -1.2863  0.4038  0.4258
20155TIP3    H281957   1.928   5.304   3.295 -2.1325  0.6718  0.4535
20156TIP3   OH281958   4.327   6.726   2.173  0.0944  0.6414 -0.0015
20156TIP3    H181959   4.420   6.719   2.197  0.4078  2.0492 -0.7128
20156TIP3    H281960   4.324   6.702   2.080  0.1291  2.7464 -0.5906
20157TIP3   OH281961   2.797   6.252   4.199  0.3763  0.0270 -0.4324
20157TIP3    H181962   2.723   6.230   4.255  0.5515 -1.8443 -0.8697
20157TIP3    H281963   2.792   6.189   4.127  1.8345  0.4969 -0.9823
20158TIP3   OH281964   2.720   3.602  15.134 -0.4268 -0.1390  0.0576
20158TIP3    H181965   2.803   3.594  15.179 -0.6482 -0.7422  0.3615
20158TIP3    H281966   2.744   3.608  15.041 -0.0526 -0.4193  0.1340
20159TIP3   OH281967   6.501   5.660  14.909  0.3216  0.4481  0.0160
20159TIP3    H181968   6.580   5.608  14.896  1.9054  1.7667  3.2934
20159TIP3    H281969   6.529   5.750  14.892 -0.0912  1.0441  2.1762
20160TIP3   OH281970   6.299   3.879  16.249  0.0024 -0.4774  0.3261
20160TIP3    H181971   6.306   3.935  16.171 -3.8637 -0.0573  0.1026
20160TIP3    H281972   6.378   3.825  16.247  1.8929  2.0787 -1.7454
20161TIP3   OH281973   1.445   2.037  16.819 -0.1244  0.4929 -0.0368
20161TIP3    H181974   1.428   2.127  16.794  1.1823  0.3892 -1.3976
20161TIP3    H281975   1.529   2.041  16.866 -0.2362  0.0377  0.2036
20162TIP3   OH281976   0.790   1.684  11.439  0.2509  0.4540  0.4619
20162TIP3    H181977   0.874   1.638  11.449 -0.6051 -1.2130  0.3917
20162TIP3    H281978   0.742   1.631  11.375 -0.8921  1.3252  0.5803
20163TIP3   OH281979   1.502   0.742  12.091 -0.3143  0.6717 -0.7283
20163TIP3    H181980   1.488   0.835  12.108 -1.4794  0.4094 -0.0759
20163TIP3    H281981   1.434   0.719  12.027  1.5021  0.7667 -2.7917
20164TIP3   OH281982   5.636   6.056  11.061 -0.6960  0.1291  0.1267
20164TIP3    H181983   5.588   6.099  10.991 -1.6346  0.7768  1.1426
20164TIP3    H281984   5.710   6.113  11.079  0.5331 -0.8774 -1.4510
20165TIP3   OH281985   1.656   1.613  11.312 -0.4335  0.3992  0.2683
20165TIP3    H181986   1.730   1.569  11.352  0.6136  0.1756 -1.7878
20165TIP3    H281987   1.678   1.619  11.219 -2.5402  1.2484 -0.2534
20166TIP3   OH281988   1.538   0.012   4.022 -0.0535  0.2204 -0.0992
20166TIP3    H181989   1.478  -0.053   3.986  0.6564 -1.3115  1.3009
20166TIP3    H281990   1.565  -0.025   4.107 -0.9849  3.1915  1.6291
20167TIP3   OH281991   4.863   1.727  15.559  0.2024 -0.7250  0.1711
20167TIP3    H181992   4.906   1.644  15.537  0.5817 -0.7016  0.8136
20167TIP3    H281993   4.772   1.715  15.529  0.9300 -0.2687 -2.4529
20168TIP3   OH281994   0.127   3.706   4.538  0.4562 -0.1231 -0.6842
20168TIP3    H181995   0.035   3.698   4.561  0.2035 -1.8114 -2.0748
20168TIP3    H281996   0.134   3.789   4.492 -0.2744  0.2076 -0.2027
20169TIP3   OH281997   1.665   1.358   4.362  0.3895  0.3888  0.4249
20169TIP3    H181998   1.638   1.450   4.366 -1.0275  0.0670 -0.9897
20169TIP3    H281999   1.665   1.330   4.454  0.1620  1.6119  0.8208
20170TIP3   OH282000   2.225   4.810   2.250  0.1057  0.6903  0.1950
20170TIP3    H182001   2.132   4.817   2.227  0.4894 -0.9864 -2.2473
20170TIP3    H282002   2.238   4.717   2.268  1.4435  0.7838 -0.2130
20171TIP3   OH282003   3.978   1.180  14.489  0.0849 -0.6063  0.5880
20171TIP3    H182004   3.945   1.196  14.577  1.9120  0.7894  1.0818
20171TIP3    H282005   4.064   1.222  14.488 -0.3318  0.3756 -2.2022
20172TIP3   OH282006   4.643   1.942   1.326  0.0927 -0.4934  0.1395
20172TIP3    H182007   4.618   1.853   1.351 -0.2632 -0.7858 -1.1607
20172TIP3    H282008   4.567   1.975   1.277 -0.2159  0.9325  1.5097
20173TIP3   OH282009   2.519   2.486  17.050  0.2383  0.2428  0.0956
20173TIP3    H182010   2.586   2.472  17.118  0.7686  1.4604 -0.1399
20173TIP3    H282011   2.543   2.570  17.011 -0.2954 -0.2503 -1.3447
20174TIP3   OH282012   6.628   1.889   0.912  0.2572  0.1851 -0.7674
20174TIP3    H182013   6.636   1.942   0.991  3.2032  1.1703 -1.6065
20174TIP3    H282014   6.608   1.952   0.843  2.7904  0.1894 -1.6047
20175TIP3   OH282015   3.124   3.649   0.855  0.2399  0.6478 -0.1529
20175TIP3    H182016   3.204   3.627   0.903  0.9837  3.2671 -0.0193
20175TIP3    H282017   3.057   3.658   0.923 -0.1928 -1.4048 -0.2503
20176TIP3   OH282018   4.485   4.115  13.885 -0.4838  0.2278  0.1092
20176TIP3    H182019   4.446   4.178  13.946 -1.0995 -0.5415  0.5378
20176TIP3    H282020   4.410   4.074  13.842 -0.0578  1.4669 -1.9662
20177TIP3   OH282021   1.614   4.860  13.248 -0.0148 -0.1931 -0.6452
20177TIP3    H182022   1.575   4.799  13.310 -0.3054 -0.1465 -0.7828
20177TIP3    H282023   1.708   4.858  13.269 -0.1422  0.0219 -0.0323
20178TIP3   OH282024   4.109   6.803   3.487 -0.3304 -0.5998  0.3391
20178TIP3    H182025   4.153   6.866   3.430  1.6010 -0.8801  1.4334
20178TIP3    H282026   4.125   6.836   3.576 -0.8124 -1.6752  0.8404
20179TIP3   OH282027   6.449   0.503   2.268 -0.3238  0.3888  0.8814
20179TIP3    H182028   6.450   0.555   2.188  0.0575  0.4669  0.9330
20179TIP3    H282029   6.509   0.430   2.250 -2.0446 -0.9553  0.2146
20180TIP3   OH282030   2.624   0.653  15.642  0.8690  0.8765  0.2410
20180TIP3    H182031   2.617   0.561  15.616 -1.3236  0.9766  0.2920
20180TIP3    H282032   2.690   0.653  15.711  1.0098 -0.6410  0.1446
20181TIP3   OH282033   0.810   5.650   1.281 -0.1065  0.1231  0.1978
20181TIP3    H182034   0.834   5.565   1.245 -0.4329 -0.0634  0.4196
20181TIP3    H282035   0.727   5.672   1.238  1.6857  2.0467 -2.7278
20182TIP3   OH282036   4.590   5.969  11.760 -0.1412  0.1473  0.2708
20182TIP3    H182037   4.663   6.019  11.796  0.0893  0.6562 -0.8530
20182TIP3    H282038   4.526   5.964  11.831  0.2425  1.2069  0.7020
20183TIP3   OH282039   4.696   6.571   3.420  0.0849 -0.2406  0.0801
20183TIP3    H182040   4.750   6.650   3.415 -2.0079  1.4377  1.9037
20183TIP3    H282041   4.606   6.603   3.423 -0.8121 -2.5507  2.4474
20184TIP3   OH282042   0.926   6.119   1.544  0.3177 -0.7593 -0.0900
20184TIP3    H182043   0.995   6.137   1.481 -1.9664 -0.6202 -2.7871
20184TIP3    H282044   0.902   6.028   1.528 -0.4074 -0.6892  0.4955
20185TIP3   OH282045   4.864   1.207  12.189 -0.2308 -0.3178 -0.0273
20185TIP3    H182046   4.803   1.175  12.123 -0.3789  2.2570 -1.2723
20185TIP3    H282047   4.910   1.280  12.146  0.2158  0.9636  2.4311
20186TIP3   OH282048   3.252   3.056  10.941 -0.2207 -0.3921  0.0705
20186TIP3    H182049   3.273   3.146  10.918 -1.9534  0.7427  2.4889
20186TIP3    H282050   3.178   3.034  10.886 -2.0943  1.0413  1.8538
20187TIP3   OH282051   2.793   1.842  13.799  0.1984  0.0126 -0.6566
20187TIP3    H182052   2.789   1.760  13.751  0.2517 -0.1329 -0.4157
20187TIP3    H282053   2.732   1.830  13.872  0.7867 -0.1030 -0.1825
20188TIP3   OH282054   2.701   6.733   4.972  0.1880  0.6468  0.0382
20188TIP3    H182055   2.731   6.685   4.895  1.4705 -1.2265  1.6168
20188TIP3    H282056   2.781   6.755   5.020 -0.5224  2.5317  0.4568
20189TIP3   OH282057   4.187   1.129   0.111 -0.0428  0.6404  0.5752
20189TIP3    H182058   4.168   1.122   0.018  0.7038 -1.1607  0.5090
20189TIP3    H282059   4.102   1.142   0.153 -0.9848 -2.5558 -0.0671
20190TIP3   OH282060   5.562   5.823  13.003 -0.0311  0.3881 -0.0629
20190TIP3    H182061   5.489   5.816  13.065  0.6643  0.8334  0.8208
20190TIP3    H282062   5.639   5.835  13.058  0.6035  0.7876 -1.0189
20191TIP3   OH282063   5.457   5.061   2.121 -0.3205  0.5682 -0.4913
20191TIP3    H182064   5.516   4.988   2.101 -0.6172  0.2782 -0.3198
20191TIP3    H282065   5.371   5.030   2.095 -0.7810  0.0422  1.4781
20192TIP3   OH282066   1.885   2.912   3.846 -0.2443 -0.2072  0.5034
20192TIP3    H182067   1.840   2.958   3.775 -0.1983  0.9496  1.1945
20192TIP3    H282068   1.843   2.826   3.849 -0.4509 -0.1611 -0.7182
20193TIP3   OH282069   5.341   0.993   5.404  0.0895 -0.5863 -0.1595
20193TIP3    H182070   5.407   1.037   5.351 -1.0318  2.2728  0.6464
20193TIP3    H282071   5.344   0.902   5.374  1.7882  0.1947 -2.7401
20194TIP3   OH282072   2.853   6.043  12.281  0.2353  0.5457  0.0833
20194TIP3    H182073   2.839   6.036  12.186  2.1620 -0.5199 -0.1690
20194TIP3    H282074   2.767   6.022  12.319 -1.0408  2.6297 -1.3871
20195TIP3   OH282075   3.808   1.268   3.396 -0.3384 -0.1387  0.1805
20195TIP3    H182076   3.865   1.192   3.407  1.6628  0.7095 -3.1070
20195TIP3    H282077   3.827   1.301   3.308 -3.7648  2.0583  0.0449
20196TIP3   OH282078   5.202   1.568  12.809 -0.0623  0.6015 -0.1019
20196TIP3    H182079   5.181   1.630  12.740 -0.0168  0.2773 -0.4065
20196TIP3    H282080   5.272   1.514  12.773 -1.2110 -0.6957 -0.4514
20197TIP3   OH282081   1.661   5.183  16.362 -0.0287 -0.4318 -0.1783
20197TIP3    H182082   1.709   5.136  16.294  0.2542 -0.7285  0.2272
20197TIP3    H282083   1.592   5.229  16.314 -1.0261 -2.1469 -0.4678
20198TIP3   OH282084   6.037   0.188   1.372  0.1366  0.1326 -0.5097
20198TIP3    H182085   6.060   0.156   1.459  1.2112  1.8980 -0.1031
20198TIP3    H282086   5.968   0.252   1.387  0.3349  0.4553 -0.9634
20199TIP3   OH282087   5.682   2.449   6.406 -0.1740 -0.1469 -0.1560
20199TIP3    H182088   5.689   2.354   6.409  0.0208 -0.1541 -0.6771
20199TIP3    H282089   5.589   2.467   6.412 -0.1359 -0.3006  1.3669
20200TIP3   OH282090   0.785   1.250   0.877  0.2990  0.5083 -0.9536
20200TIP3    H182091   0.839   1.176   0.906  0.3984  0.7497 -0.5090
20200TIP3    H282092   0.731   1.271   0.953 -0.5122  0.1950 -1.4369
20201TIP3   OH282093   5.478   4.022  16.096 -0.0764  0.2984  0.2068
20201TIP3    H182094   5.572   4.005  16.100 -0.2307 -1.5911 -1.9078
20201TIP3    H282095   5.468   4.084  16.024 -0.6212 -2.4106 -2.2355
20202TIP3   OH282096   0.970   2.010   3.761 -0.4023 -0.0553  1.1104
20202TIP3    H182097   1.037   2.060   3.714  0.0239  1.5813  3.2935
20202TIP3    H282098   0.996   2.016   3.853 -2.1963 -1.5308  1.7635
20203TIP3   OH282099   3.134   2.585  11.531 -0.1125 -0.2259  0.0921
20203TIP3    H182100   3.061   2.561  11.473  0.4460 -2.1535  0.1170
20203TIP3    H282101   3.124   2.527  11.606 -0.2194  1.5220  1.4791
20204TIP3   OH282102   1.334   5.561   5.358 -0.0176  0.3346 -0.7791
20204TIP3    H182103   1.302   5.650   5.345  1.8494  0.8341 -2.3192
20204TIP3    H282104   1.331   5.521   5.271 -0.9357 -1.1832 -0.0918
20205TIP3   OH282105   4.813   0.848  14.688 -0.0573 -0.2198 -0.3477
20205TIP3    H182106   4.902   0.814  14.678 -0.2647 -0.6441 -0.7767
20205TIP3    H282107   4.786   0.871  14.599 -0.1233  0.5649 -0.1326
20206TIP3   OH282108   3.072   0.385   0.906  0.2921 -0.8912 -0.2478
20206TIP3    H182109   3.141   0.396   0.970  0.4683 -0.2023 -0.5483
20206TIP3    H282110   3.107   0.321   0.844  0.7761 -0.3474 -0.5460
20207TIP3   OH282111   1.429   2.009  13.667 -0.2624 -0.3966 -0.0520
20207TIP3    H182112   1.348   1.964  13.689 -0.8246  0.5512 -0.0866
20207TIP3    H282113   1.437   2.078  13.733  0.4348 -0.3859 -0.1397
20208TIP3   OH282114   1.923   5.204  14.596  0.1084 -0.1181  0.5026
20208TIP3    H182115   2.011   5.242  14.591  0.2716 -0.5735 -0.2612
20208TIP3    H282116   1.899   5.186  14.505  0.2897 -2.3745  0.8287
20209TIP3   OH282117   0.450   1.427   2.069 -0.2110  0.4220  0.0815
20209TIP3    H182118   0.473   1.519   2.082 -1.6091  1.0865 -1.7277
20209TIP3    H282119   0.357   1.422   2.090 -0.6951 -0.0509 -1.8998
20210TIP3   OH282120   6.085   5.870   6.091  0.8237  0.1151  0.5222
20210TIP3    H182121   6.115   5.780   6.075  2.5881  0.7346  0.0589
20210TIP3    H282122   6.134   5.923   6.027 -0.2232  1.3975  0.7434
20211TIP3   OH282123   2.684   0.835   5.646  0.4063  0.0601  0.2526
20211TIP3    H182124   2.626   0.764   5.620 -0.0498  1.4360 -2.9291
20211TIP3    H282125   2.769   0.792   5.659  0.3776 -1.0743 -2.5187
20212TIP3   OH282126   6.202   3.520   0.740  0.2100  0.3609  0.3346
20212TIP3    H182127   6.161   3.435   0.760  0.8483 -0.2682 -0.9256
20212TIP3    H282128   6.192   3.571   0.821 -1.4169 -0.4138  0.6634
20213TIP3   OH282129   6.386   3.679  14.694  0.9032 -0.3834 -0.2345
20213TIP3    H182130   6.394   3.584  14.695  1.1946 -0.3712 -0.7303
20213TIP3    H282131   6.352   3.699  14.607  1.9187  0.0376 -0.5554
20214TIP3   OH282132   6.456   2.969   6.838 -0.2579  0.2479 -0.2862
20214TIP3    H182133   6.488   3.035   6.900  0.4190  0.1346 -0.5151
20214TIP3    H282134   6.366   2.996   6.820 -0.1532  0.8219  0.0140
20215TIP3   OH282135   2.827   6.671   0.780 -0.3010  0.2228 -0.8308
20215TIP3    H182136   2.839   6.679   0.685 -0.7139  0.0776 -0.8970
20215TIP3    H282137   2.914   6.650   0.813 -0.3609 -0.8899 -1.3084
20216TIP3   OH282138   3.886   5.589   1.892 -0.1353  0.1970 -0.5037
20216TIP3    H182139   3.976   5.561   1.875  0.8411  2.8374 -0.1591
20216TIP3    H282140   3.862   5.641   1.816 -1.7442 -1.1676 -0.9912
20217TIP3   OH282141   6.306   6.286   4.760 -0.4502  0.4500 -0.5553
20217TIP3    H182142   6.374   6.297   4.825  0.5116  1.8544 -1.7404
20217TIP3    H282143   6.231   6.253   4.809  0.7115 -0.0201  0.9688
20218TIP3   OH282144   4.687   3.010  13.143  0.3872 -0.7464 -0.0568
20218TIP3    H182145   4.680   3.088  13.088  2.4619 -0.8976 -0.5971
20218TIP3    H282146   4.691   2.937  13.081  1.1259 -1.0456  0.3288
20219TIP3   OH282147   5.904   5.650   4.213 -1.0261  0.4068  0.1501
20219TIP3    H182148   5.880   5.576   4.157 -0.0231  0.5431 -0.4792
20219TIP3    H282149   5.862   5.630   4.298 -1.5814 -0.3806 -0.2933
20220TIP3   OH282150   3.875   0.233  16.254 -1.2915  0.1275 -0.4253
20220TIP3    H182151   3.906   0.206  16.340  0.8246 -0.0923 -1.2093
20220TIP3    H282152   3.847   0.324  16.265  2.5080  1.4422 -0.2336
20221TIP3   OH282153   2.960   3.841   3.172  0.1800  0.8933 -0.1102
20221TIP3    H182154   2.962   3.874   3.262 -1.1164 -1.4201  0.8635
20221TIP3    H282155   3.036   3.882   3.130  1.5909  1.0876  2.4065
20222TIP3   OH282156   4.399   0.311  16.440  0.8213 -0.0910 -0.0447
20222TIP3    H182157   4.491   0.295  16.460  0.5467 -1.2212  0.3663
20222TIP3    H282158   4.354   0.299  16.524  0.2401 -0.0687 -0.3506
20223TIP3   OH282159   1.486   5.421   3.190 -0.3792  0.0141 -0.0713
20223TIP3    H182160   1.486   5.395   3.282  0.5445  2.6576  0.7729
20223TIP3    H282161   1.541   5.355   3.147  1.7132  0.3349  1.8710
20224TIP3   OH282162   1.933   6.583  15.556 -0.2275 -0.5247 -0.7127
20224TIP3    H182163   1.988   6.556  15.629 -0.0148 -0.8971 -1.0068
20224TIP3    H282164   1.864   6.636  15.596  1.1349  1.1784 -0.5008
20225TIP3   OH282165   6.063   3.616   5.917  0.3874  0.2652 -0.1768
20225TIP3    H182166   6.069   3.636   5.824 -1.1316  1.0530 -0.1419
20225TIP3    H282167   6.083   3.699   5.960 -0.5501  0.3520  0.1267
20226TIP3   OH282168   4.812   1.458   2.978  0.3825 -0.4471  0.1838
20226TIP3    H182169   4.871   1.475   3.052 -1.4136 -0.3928  1.6767
20226TIP3    H282170   4.741   1.405   3.016 -0.0698 -1.3051 -1.7526
20227TIP3   OH282171   5.243   6.557  10.766 -0.2561  0.3206  0.1857
20227TIP3    H182172   5.257   6.517  10.681 -0.0346 -1.4487  1.0145
20227TIP3    H282173   5.167   6.511  10.803  0.3910  0.1843  1.4231
20228TIP3   OH282174   4.635   6.243  14.290 -0.4567 -0.0132  0.1096
20228TIP3    H182175   4.605   6.192  14.216  0.2978  0.3735 -0.4825
20228TIP3    H282176   4.693   6.184  14.339  1.2775  0.5640 -1.1645
20229TIP3   OH282177   2.939   6.116  11.457  0.1301 -0.2451  0.3742
20229TIP3    H182178   2.990   6.035  11.454 -0.0572 -0.4229  1.5728
20229TIP3    H282179   2.962   6.161  11.376 -0.5302 -1.9382 -0.7971
20230TIP3   OH282180   1.144   4.580   4.794 -0.0968  0.9123 -0.5270
20230TIP3    H182181   1.081   4.616   4.857  0.6336  2.3460 -0.5912
20230TIP3    H282182   1.127   4.628   4.713 -0.2532 -0.1195 -1.1296
20231TIP3   OH282183   4.079   3.944   3.756 -0.4773  0.2637  0.1895
20231TIP3    H182184   4.103   3.972   3.667 -2.9282  0.3623 -0.5019
20231TIP3    H282185   4.083   3.848   3.753 -2.7371  0.1458 -0.7690
20232TIP3   OH282186   1.872   4.273  13.508  0.3275 -0.2356  0.6068
20232TIP3    H182187   1.935   4.335  13.470  3.1486 -0.8575  3.8120
20232TIP3    H282188   1.921   4.191  13.514 -1.5956 -1.3837  1.1835
20233TIP3   OH282189   4.894   1.171  16.176  0.5600 -0.2411  0.8644
20233TIP3    H182190   4.901   1.210  16.263 -2.2785  1.4994  0.4838
20233TIP3    H282191   4.955   1.098  16.176  3.0323  1.6294  3.1749
20234TIP3   OH282192   3.841   2.220   1.187  0.1925 -0.1910  0.2103
20234TIP3    H182193   3.868   2.277   1.115  0.1925  0.1312  0.4633
20234TIP3    H282194   3.917   2.163   1.200  0.5458  0.3428  0.5455
20235TIP3   OH282195   2.620   6.418   1.892  0.6855 -0.2355 -0.1244
20235TIP3    H182196   2.601   6.438   1.801  1.1656 -0.4411 -0.2732
20235TIP3    H282197   2.606   6.324   1.900 -0.0228 -0.1132  0.1888
20236TIP3   OH282198   0.283   4.946  13.815  0.1074 -0.1614  0.3443
20236TIP3    H182199   0.260   5.014  13.752 -0.8175 -1.1289 -0.3918
20236TIP3    H282200   0.201   4.928  13.862  0.7626  0.4861  1.7794
20237TIP3   OH282201   3.531   2.926   2.724 -0.3176 -0.0366  0.8197
20237TIP3    H182202   3.624   2.906   2.740 -0.1709  0.4254  0.5547
20237TIP3    H282203   3.532   2.987   2.651 -0.7966  0.4092  1.1784
20238TIP3   OH282204   4.218   3.593  12.243 -0.4652  0.0934 -0.0745
20238TIP3    H182205   4.299   3.626  12.205  0.1191 -1.7747 -0.5348
20238TIP3    H282206   4.244   3.512  12.287 -1.8011  0.3058  1.1693
20239TIP3   OH282207   3.071   5.938   2.288 -0.1008  0.3715 -1.0751
20239TIP3    H182208   3.131   5.946   2.362 -1.1102 -2.3777  0.1540
20239TIP3    H282209   3.045   6.028   2.269  2.4420  1.4350 -0.0647
20240TIP3   OH282210   0.604   3.092  11.688  0.1172  0.1184  0.0815
20240TIP3    H182211   0.628   3.078  11.779 -0.4072 -2.3192 -0.0962
20240TIP3    H282212   0.665   3.037  11.638  0.7926  1.8611 -1.1232
20241TIP3   OH282213   2.882   0.948   1.270 -0.0641 -0.0635 -0.3681
20241TIP3    H182214   2.823   1.001   1.324 -0.2308 -0.4239 -0.1939
20241TIP3    H282215   2.826   0.912   1.202 -0.0467 -0.4145 -0.1973
20242TIP3   OH282216   2.369   1.505   2.435  0.9845 -0.4725 -0.1081
20242TIP3    H182217   2.420   1.531   2.358  0.2217  2.0545  0.1162
20242TIP3    H282218   2.281   1.539   2.417  0.2289 -1.7910  0.9394
20243TIP3   OH282219   0.499   6.248   0.309 -0.2788  0.2959  0.1368
20243TIP3    H182220   0.579   6.254   0.360 -1.5820 -0.1173  2.3630
20243TIP3    H282221   0.485   6.336   0.274  0.8482  0.4904  0.1464
20244TIP3   OH282222   5.868   4.981  11.594 -0.5513 -1.1509 -0.2864
20244TIP3    H182223   5.889   5.019  11.679 -0.0338 -1.2652 -0.3625
20244TIP3    H282224   5.783   4.940  11.608 -3.0428  3.1300 -1.1597
20245TIP3   OH282225   5.428   5.218  11.032 -0.4618 -0.6712 -0.0790
20245TIP3    H182226   5.508   5.188  11.075 -1.2931 -1.9586  0.6635
20245TIP3    H282227   5.458   5.273  10.960  0.9956  1.2529  1.8844
20246TIP3   OH282228   2.098   5.669  11.155  0.0736 -0.1939 -0.6325
20246TIP3    H182229   2.114   5.759  11.125  0.2421 -0.8038 -2.4995
20246TIP3    H282230   2.186   5.633  11.169  0.0434 -0.3887 -0.9304
20247TIP3   OH282231   3.662   2.428  13.415  0.0755  0.4594  0.3764
20247TIP3    H182232   3.656   2.373  13.337 -0.6456 -0.5181  1.0928
20247TIP3    H282233   3.717   2.502  13.389  0.1629 -0.0512 -0.9307
20248TIP3   OH282234   3.399   5.954   1.694  0.2319  0.2593 -0.3582
20248TIP3    H182235   3.430   5.987   1.779  0.4814 -0.3773 -0.1914
20248TIP3    H282236   3.421   6.023   1.632  2.0949 -0.1969 -0.2671
20249TIP3   OH282237   4.349   6.208  12.672 -0.6756  0.1735 -0.0471
20249TIP3    H182238   4.322   6.153  12.745  2.3962 -0.8901  0.4370
20249TIP3    H282239   4.416   6.265  12.709 -1.0617  1.6096 -1.4358
20250TIP3   OH282240   6.395   5.769   5.556 -0.2964  0.0380  0.6044
20250TIP3    H182241   6.403   5.792   5.649 -0.2847 -0.6400  0.7717
20250TIP3    H282242   6.456   5.697   5.543 -0.2958  0.1319  0.0639
20251TIP3   OH282243   4.691   0.549   0.942 -0.1833  0.3965 -0.5320
20251TIP3    H182244   4.666   0.630   0.898 -1.9898 -0.2057 -0.6786
20251TIP3    H282245   4.650   0.554   1.028  0.6632  0.1408 -0.0979
20252LIG      S82246   3.172   3.362  16.557 -0.3148 -0.1851  0.3942
20252LIG     N182247   3.634   3.176  16.395 -0.1331 -0.0767 -0.0151
20252LIG     N282248   3.439   3.412  16.433 -0.2058  0.0231 -0.3922
20252LIG     N382249   4.023   3.266  16.598  0.1477 -0.0668 -0.2205
20252LIG     C182250   3.635   3.279  16.288 -0.3324 -0.1205 -0.1393
20252LIG     C282251   3.668   3.421  16.338 -0.4855 -0.1887  0.4649
20252LIG     C382252   3.569   3.478  16.439  0.0756 -0.6269 -0.8043
20252LIG     C482253   3.428   3.276  16.496  0.5527 -0.9681 -0.2516
20252LIG     C582254   3.517   3.170  16.479  0.0849  0.0363  0.0013
20252LIG     C682255   3.744   3.078  16.411  0.0723 -0.3077 -0.7229
20252LIG     C782256   3.879   3.148  16.440 -0.2197 -0.0678  0.5512
20252LIG     C882257   3.328   3.450  16.352 -0.4766  0.5303  0.2337
20252LIG     C982258   3.306   3.247  16.554 -0.3148 -0.2346 -0.5393
20252LIG    C1082259   3.483   3.040  16.535 -0.2753  0.2209 -0.1795
20252LIG    C1182260   3.883   3.223  16.570  0.3601  0.2681  0.6952
20252LIG    C1282261   3.195   3.430  16.399  0.2162 -0.1859  0.4910
20252LIG    C1382262   3.274   3.121  16.607 -0.2547 -0.7962  0.4612
20252LIG    C1482263   3.362   3.014  16.598 -0.2257 -0.6330 -0.4668
20252LIG    C1582264   3.345   3.485  16.219  0.1464  0.7372  0.4409
20252LIG    C1682265   3.082   3.461  16.318  0.3568 -0.5290 -0.5129
20252LIG    C1782266   3.230   3.512  16.136  0.2705 -0.2974 -0.2826
20252LIG    C1882267   3.103   3.499  16.188 -0.2563  0.6397  0.0841
20252LIG    C1982268   4.115   3.154  16.644  0.4200 -0.7522 -0.3998
20252LIG    C2082269   4.064   3.380  16.519  0.3455 -0.1204  0.9313
20252LIG     H182270   3.549   3.279  16.217  0.7796 -0.7928 -1.5639
20252LIG     H282271   3.711   3.243  16.215 -0.7794  0.1994 -0.7747
20252LIG     H382272   3.682   3.494  16.255  1.4782  0.0287  0.9284
20252LIG     H482273   3.769   3.423  16.383 -0.6250 -0.6868  0.8102
20252LIG     H582274   3.615   3.454  16.537  0.6971 -1.1250 -1.2101
20252LIG     H682275   3.584   3.588  16.426  0.6479 -0.7900 -1.6780
20252LIG     H782276   3.745   3.021  16.315 -0.2072  1.0113 -1.5397
20252LIG     H882277   3.725   3.011  16.497 -2.9043  1.0611 -0.2122
20252LIG     H982278   3.910   3.221  16.363  0.9872 -1.5529 -0.4400
20252LIG    H1082279   3.957   3.069  16.429  0.8491  1.1820 -1.3164
20252LIG    H1182280   3.545   2.951  16.532 -2.2117 -1.1874 -0.0424
20252LIG    H1282281   3.809   3.306  16.566 -0.0423 -0.1049 -3.2925
20252LIG    H1382282   3.856   3.160  16.657 -1.2455  2.1195  1.6030
20252LIG    H1482283   3.177   3.101  16.650 -0.4930 -1.3790 -0.3317
20252LIG    H1582284   3.342   2.920  16.647 -0.4265 -0.7013 -0.6742
20252LIG    H1682285   3.446   3.508  16.190  0.2167  2.3486  1.7785
20252LIG    H1782286   2.984   3.443  16.358  0.2421  1.8367  0.3762
20252LIG    H1882287   3.241   3.545  16.034 -0.0609  1.0983  0.1130
20252LIG    H1982288   3.019   3.517  16.122 -0.6758  1.2670  0.7758
20252LIG    H2082289   4.223   3.179  16.651  0.9753 -2.0344 -3.0513
20252LIG    H2182290   4.104   3.066  16.577  0.1396 -1.8855  1.1057
20252LIG    H2282291   4.080   3.110  16.739 -0.4056  0.9718  0.1307
20252LIG    H2382292   4.135   3.350  16.439 -0.7370  2.0806 -0.9484
20252LIG    H2482293   4.118   3.456  16.579  1.3913  0.8038 -1.0812
20252LIG    H2582294   3.979   3.429  16.467 -0.1196 -1.0325  0.8052
   6.82636   6.82636  17.29611
